<event>
 7    1  0.6188600E-006  0.5522484E+02  0.7818608E-02  0.1448207E+00
          2   -1    0    0  502    0  0.00000000000E+00  0.00000000000E+00  0.18148960620E+03  0.18148960620E+03  0.00000000000E+00 0. -1.
          1   -1    0    0  501    0 -0.00000000000E+00 -0.00000000000E+00 -0.47979914177E+03  0.47979914177E+03  0.00000000000E+00 0. -1.
         25    2    1    2    0    0  0.71937363357E+01  0.24316684995E+02 -0.20196848506E+03  0.23887004604E+03  0.12499831569E+03 0.  0.
          2    1    1    2  501    0  0.20768659726E+02 -0.58701822762E+02 -0.25251445089E+03  0.26007842881E+03  0.00000000000E+00 0. -1.
          1    1    1    2  502    0 -0.27962396061E+02  0.34385137767E+02  0.15617340037E+03  0.16234027312E+03  0.00000000000E+00 0. -1.
         22    1    3    3    0    0  0.53750146291E+01  0.57497563675E+02 -0.19697569945E+03  0.20526638007E+03  0.00000000000E+00 0. -1.
         22    1    3    3    0    0  0.18187217066E+01 -0.33180878680E+02 -0.49927856059E+01  0.33603665972E+02  0.00000000000E+00 0. -1.
</event>
<event>
 7    1  0.6188600E-006  0.6351959E+02  0.7818608E-02  0.1438079E+00
          2   -1    0    0  502    0  0.00000000000E+00  0.00000000000E+00  0.14804081138E+04  0.14804081138E+04  0.00000000000E+00 0. -1.
          1   -1    0    0  501    0 -0.00000000000E+00 -0.00000000000E+00 -0.27809115441E+03  0.27809115441E+03  0.00000000000E+00 0. -1.
         25    2    1    2    0    0  0.75315947130E+02  0.65370863038E+02 -0.41688436582E+02  0.16525519582E+03  0.12500204948E+03 0.  0.
          2    1    1    2  501    0 -0.18682136252E+02 -0.37110164925E+02 -0.17143071970E+03  0.17639353223E+03  0.00000000000E+00 0. -1.
          1    1    1    2  502    0 -0.56633810879E+02 -0.28260698112E+02  0.14154361157E+04  0.14168505401E+04  0.00000000000E+00 0. -1.
         22    1    3    3    0    0  0.81810421929E+02  0.83735817608E+02 -0.65773493511E+02  0.13427875757E+03  0.00000000000E+00 0.  1.
         22    1    3    3    0    0 -0.64944747991E+01 -0.18364954571E+02  0.24085056929E+02  0.30976438248E+02  0.00000000000E+00 0.  1.
</event>
<event>
 7    1  0.6188600E-006  0.8610349E+02  0.7818608E-02  0.1471039E+00
          2   -1    0    0  502    0  0.00000000000E+00  0.00000000000E+00  0.13467591958E+04  0.13467591958E+04  0.00000000000E+00 0. -1.
          1   -1    0    0  501    0 -0.00000000000E+00 -0.00000000000E+00 -0.15819809864E+04  0.15819809864E+04  0.00000000000E+00 0. -1.
         25    2    1    2    0    0 -0.66203423741E+02 -0.53857220785E+00 -0.12324745927E+03  0.18760843945E+03  0.12499522776E+03 0.  0.
          2    1    1    2  501    0  0.85941219642E+02 -0.13253566421E+02 -0.14251174155E+04  0.14277679077E+04  0.00000000000E+00 0. -1.
          1    1    1    2  502    0 -0.19737795900E+02  0.13792138629E+02  0.13131430842E+04  0.13133638351E+04  0.00000000000E+00 0. -1.
         22    1    3    3    0    0 -0.52639301096E+02 -0.38665858961E+02 -0.84151994679E+01  0.65854083026E+02  0.00000000000E+00 0. -1.
         22    1    3    3    0    0 -0.13564122645E+02  0.38127286753E+02 -0.11483225980E+03  0.12175435643E+03  0.00000000000E+00 0. -1.
</event>
<event>
 7    1  0.6188600E-006  0.9331445E+02  0.7818608E-02  0.1361316E+00
          2   -1    0    0  502    0  0.00000000000E+00  0.00000000000E+00  0.11526543547E+04  0.11526543547E+04  0.00000000000E+00 0. -1.
          1   -1    0    0  501    0 -0.00000000000E+00 -0.00000000000E+00 -0.14075362857E+03  0.14075362857E+03  0.00000000000E+00 0. -1.
         25    2    1    2    0    0  0.73213091470E+02  0.16144581361E+02  0.52140068703E+03  0.54139173868E+03  0.12500213602E+03 0.  0.
          2    1    1    2  501    0 -0.88084389417E+02  0.33656627678E+02 -0.11249347453E+03  0.14678695466E+03  0.00000000000E+00 0. -1.
          1    1    1    2  502    0  0.14871297947E+02 -0.49801209039E+02  0.60299351358E+03  0.60522928990E+03  0.00000000000E+00 0. -1.
         22    1    3    3    0    0  0.25040577787E+02 -0.40898430305E+02  0.36440140376E+03  0.36754332425E+03  0.00000000000E+00 0. -1.
         22    1    3    3    0    0  0.48172513684E+02  0.57043011666E+02  0.15699928326E+03  0.17384841443E+03  0.00000000000E+00 0. -1.
</event>
<event>
 7    1  0.6188600E-006  0.5252604E+02  0.7818608E-02  0.1522184E+00
          2   -1    0    0  502    0  0.00000000000E+00  0.00000000000E+00  0.98694214167E+03  0.98694214167E+03  0.00000000000E+00 0. -1.
          1   -1    0    0  501    0 -0.00000000000E+00 -0.00000000000E+00 -0.10166793713E+04  0.10166793713E+04  0.00000000000E+00 0. -1.
         25    2    1    2    0    0  0.53429589278E+02 -0.39680495139E+02 -0.78896059491E+02  0.16210909272E+03  0.12500202812E+03 0.  0.
          2    1    1    2  501    0 -0.26276994971E+02  0.45295374835E+02 -0.89520818709E+03  0.89673845110E+03  0.00000000000E+00 0. -1.
          1    1    1    2  502    0 -0.27152594308E+02 -0.56148796964E+01  0.94436701691E+03  0.94477396920E+03  0.00000000000E+00 0. -1.
         22    1    3    3    0    0  0.11308656641E+02 -0.81115117141E+02 -0.38234467467E+02  0.90384857395E+02  0.00000000000E+00 0. -1.
         22    1    3    3    0    0  0.42120932637E+02  0.41434622002E+02 -0.40661592025E+02  0.71724235323E+02  0.00000000000E+00 0. -1.
</event>
<event>
 7    1  0.6188600E-006  0.9873086E+02  0.7818608E-02  0.1410103E+00
          2   -1    0    0  502    0  0.00000000000E+00  0.00000000000E+00  0.10560149225E+03  0.10560149225E+03  0.00000000000E+00 0. -1.
          1   -1    0    0  501    0 -0.00000000000E+00 -0.00000000000E+00 -0.51999203733E+03  0.51999203733E+03  0.00000000000E+00 0. -1.
         25    2    1    2    0    0  0.58050122519E+02 -0.49440381167E+02  0.30286769004E+02  0.14952236993E+03  0.12500193086E+03 0.  0.
          2    1    1    2  501    0 -0.90563944715E+02  0.43210451534E+02 -0.42682007332E+03  0.43845677802E+03  0.00000000000E+00 0. -1.
          1    1    1    2  502    0  0.32513822196E+02  0.62299296327E+01 -0.17857240761E+02  0.37614381620E+02  0.00000000000E+00 0. -1.
         22    1    3    3    0    0 -0.24375871411E+02 -0.45462782944E+02 -0.17120826306E+02  0.54352280849E+02  0.00000000000E+00 0.  1.
         22    1    3    3    0    0  0.82425993931E+02 -0.39775982226E+01  0.47407595310E+02  0.95170089084E+02  0.00000000000E+00 0.  1.
</event>
<event>
 7    1  0.6188600E-006  0.9217580E+02  0.7818608E-02  0.1419210E+00
          2   -1    0    0  502    0  0.00000000000E+00  0.00000000000E+00  0.54025690293E+03  0.54025690293E+03  0.00000000000E+00 0. -1.
          1   -1    0    0  501    0 -0.00000000000E+00 -0.00000000000E+00 -0.11810260026E+04  0.11810260026E+04  0.00000000000E+00 0. -1.
         25    2    1    2    0    0 -0.99403663293E+01 -0.84284620227E+02 -0.65074960161E+02  0.16450625661E+03  0.12499939974E+03 0.  0.
          2    1    1    2  501    0 -0.32972171249E+02  0.21606745675E+01 -0.10616003515E+04  0.10621144660E+04  0.00000000000E+00 0. -1.
          1    1    1    2  502    0  0.42912537579E+02  0.82123945659E+02  0.48590621200E+03  0.49466218290E+03  0.00000000000E+00 0. -1.
         22    1    3    3    0    0  0.30151697068E+02  0.20334507544E+02 -0.31760691929E+01  0.36506224793E+02  0.00000000000E+00 0. -1.
         22    1    3    3    0    0 -0.40092063397E+02 -0.10461912777E+03 -0.61898890968E+02  0.12800003182E+03  0.00000000000E+00 0. -1.
</event>
<event>
 7    1  0.6188600E-006  0.3146036E+02  0.7818608E-02  0.1647898E+00
          2   -1    0    0  502    0  0.00000000000E+00  0.00000000000E+00  0.95592502300E+03  0.95592502300E+03  0.00000000000E+00 0. -1.
          1   -1    0    0  501    0 -0.00000000000E+00 -0.00000000000E+00 -0.31577088545E+02  0.31577088545E+02  0.00000000000E+00 0. -1.
         25    2    1    2    0    0 -0.51600458520E+02 -0.86524290063E+01  0.48088223529E+03  0.49961025360E+03  0.12500083773E+03 0.  0.
          2    1    1    2  501    0  0.30746318610E+02  0.39251916662E+01 -0.11025131324E+02  0.32898278958E+02  0.00000000000E+00 0. -1.
          1    1    1    2  502    0  0.20854139910E+02  0.47272373401E+01  0.45449083049E+03  0.45499357899E+03  0.00000000000E+00 0. -1.
         22    1    3    3    0    0  0.24208553458E+00 -0.96200275522E+01 -0.50854499365E+01  0.10884178268E+02  0.00000000000E+00 0. -1.
         22    1    3    3    0    0 -0.51842544054E+02  0.96759854592E+00  0.48596768523E+03  0.48872607533E+03  0.00000000000E+00 0. -1.
</event>
<event>
 7    1  0.6188600E-006  0.1608493E+03  0.7818608E-02  0.1374655E+00
          2   -1    0    0  502    0  0.00000000000E+00  0.00000000000E+00  0.31963929367E+03  0.31963929367E+03  0.00000000000E+00 0. -1.
          1   -1    0    0  501    0 -0.00000000000E+00 -0.00000000000E+00 -0.70083088433E+03  0.70083088433E+03  0.00000000000E+00 0. -1.
         25    2    1    2    0    0  0.16692510505E+03  0.16612473417E+01 -0.28510850399E+02  0.21048688587E+03  0.12500044038E+03 0.  0.
          2    1    1    2  501    0 -0.93917231532E+01  0.25304354188E+02 -0.55303373029E+03  0.55369199167E+03  0.00000000000E+00 0. -1.
          1    1    1    2  502    0 -0.15753338190E+03 -0.26965601529E+02  0.20035299003E+03  0.25629130046E+03  0.00000000000E+00 0. -1.
         22    1    3    3    0    0  0.16847799683E+02 -0.44801637111E+02 -0.23449746152E+02  0.53300334301E+02  0.00000000000E+00 0.  1.
         22    1    3    3    0    0  0.15007730537E+03  0.46462884453E+02 -0.50611042466E+01  0.15718655157E+03  0.00000000000E+00 0.  1.
</event>
<event>
 7    1  0.6188600E-006  0.1794292E+03  0.7818608E-02  0.1389729E+00
          2   -1    0    0  502    0  0.00000000000E+00  0.00000000000E+00  0.98775280843E+03  0.98775280843E+03  0.00000000000E+00 0. -1.
          1   -1    0    0  501    0 -0.00000000000E+00 -0.00000000000E+00 -0.51411465353E+03  0.51411465353E+03  0.00000000000E+00 0. -1.
         25    2    1    2    0    0 -0.17207957808E+03 -0.36166397474E+02 -0.37622700171E+02  0.21899602682E+03  0.12499761076E+03 0.  0.
          2    1    1    2  501    0  0.17976738169E+03  0.16188883934E+02 -0.36455671505E+03  0.40679231799E+03  0.00000000000E+00 0. -1.
          1    1    1    2  502    0 -0.76878036127E+01  0.19977513540E+02  0.87581757013E+03  0.87607911716E+03  0.00000000000E+00 0. -1.
         22    1    3    3    0    0  0.15383032921E+02 -0.22286856518E+02  0.97789958496E+00  0.27097932816E+02  0.00000000000E+00 0. -1.
         22    1    3    3    0    0 -0.18746261100E+03 -0.13879540956E+02 -0.38600599756E+02  0.19189809400E+03  0.00000000000E+00 0. -1.
</event>
<event>
 7    1  0.6188600E-006  0.5635408E+02  0.7818608E-02  0.1497906E+00
          2   -1    0    0  502    0  0.00000000000E+00  0.00000000000E+00  0.60954365799E+03  0.60954365799E+03  0.00000000000E+00 0. -1.
          1   -1    0    0  501    0 -0.00000000000E+00 -0.00000000000E+00 -0.41979225133E+02  0.41979225133E+02  0.00000000000E+00 0. -1.
         25    2    1    2    0    0 -0.78259321227E+02 -0.51622851904E+01  0.32672339978E+03  0.35850407486E+03  0.12500328467E+03 0.  0.
          2    1    1    2  501    0  0.51215647816E+02  0.19191958845E+02  0.46718381651E+01  0.54892621885E+02  0.00000000000E+00 0. -1.
          1    1    1    2  502    0  0.27043673410E+02 -0.14029673654E+02  0.23616919491E+03  0.23812618638E+03  0.00000000000E+00 0. -1.
         22    1    3    3    0    0 -0.84124511384E+02  0.25396794811E+02  0.31188935112E+03  0.32403224830E+03  0.00000000000E+00 0.  1.
         22    1    3    3    0    0  0.58651901569E+01 -0.30559080002E+02  0.14834048663E+02  0.34471826552E+02  0.00000000000E+00 0.  1.
</event>
<event>
 7    1  0.6188600E-006  0.6491721E+02  0.7818608E-02  0.1409960E+00
          2   -1    0    0  502    0  0.00000000000E+00  0.00000000000E+00  0.40184596537E+04  0.40184596537E+04  0.00000000000E+00 0. -1.
          1   -1    0    0  501    0 -0.00000000000E+00 -0.00000000000E+00 -0.33753928666E+02  0.33753928666E+02  0.00000000000E+00 0. -1.
         25    2    1    2    0    0  0.41291526903E+02  0.10104916813E+03  0.20590758495E+04  0.20657526681E+04  0.12499922971E+03 0.  0.
          2    1    1    2  501    0 -0.15776875651E+02 -0.47872395664E+02 -0.87697302383E+01  0.51162332241E+02  0.00000000000E+00 0. -1.
          1    1    1    2  502    0 -0.25514651252E+02 -0.53176772462E+02  0.19343996058E+04  0.19352985820E+04  0.00000000000E+00 0. -1.
         22    1    3    3    0    0  0.50517160756E+02  0.12781718427E+03  0.17441468585E+04  0.17495535088E+04  0.00000000000E+00 0.  1.
         22    1    3    3    0    0 -0.92256338531E+01 -0.26768016140E+02  0.31492899095E+03  0.31619915931E+03  0.00000000000E+00 0.  1.
</event>
<event>
 7    1  0.6188600E-006  0.2865479E+02  0.7818608E-02  0.1643864E+00
          2   -1    0    0  502    0  0.00000000000E+00  0.00000000000E+00  0.11548339270E+04  0.11548339270E+04  0.00000000000E+00 0. -1.
          1   -1    0    0  501    0 -0.00000000000E+00 -0.00000000000E+00 -0.59518777622E+02  0.59518777622E+02  0.00000000000E+00 0. -1.
         25    2    1    2    0    0 -0.15415565930E+02 -0.29317163007E+01  0.28660949721E+03  0.31307525082E+03  0.12499949660E+03 0.  0.
          2    1    1    2  501    0  0.38853204881E+01 -0.23704215090E+02 -0.42905513980E+02  0.49171827892E+02  0.00000000000E+00 0. -1.
          1    1    1    2  502    0  0.11530245442E+02  0.26635931391E+02  0.85161116611E+03  0.85210562588E+03  0.00000000000E+00 0. -1.
         22    1    3    3    0    0 -0.28429713097E+02 -0.48954473257E+02  0.23891729239E+03  0.24553260811E+03  0.00000000000E+00 0. -1.
         22    1    3    3    0    0  0.13014147167E+02  0.46022756957E+02  0.47692204814E+02  0.67542642711E+02  0.00000000000E+00 0. -1.
</event>
<event>
 7    1  0.6188600E-006  0.7010942E+02  0.7818608E-02  0.1394835E+00
          2   -1    0    0  502    0  0.00000000000E+00  0.00000000000E+00  0.48990121966E+03  0.48990121966E+03  0.00000000000E+00 0. -1.
          1   -1    0    0  501    0 -0.00000000000E+00 -0.00000000000E+00 -0.45441531366E+03  0.45441531366E+03  0.00000000000E+00 0. -1.
         25    2    1    2    0    0  0.41146963114E+02  0.11216764830E+03 -0.81644512710E+02  0.19122208307E+03  0.12500161879E+03 0.  0.
          2    1    1    2  501    0 -0.24363646657E+02 -0.62329730700E+02 -0.31284110400E+03  0.31991895686E+03  0.00000000000E+00 0. -1.
          1    1    1    2  502    0 -0.16783316457E+02 -0.49837917602E+02  0.42997152270E+03  0.43317549340E+03  0.00000000000E+00 0. -1.
         22    1    3    3    0    0  0.55515129296E+02 -0.41807763389E+01 -0.27331872849E+02  0.62019672242E+02  0.00000000000E+00 0. -1.
         22    1    3    3    0    0 -0.14368166182E+02  0.11634842464E+03 -0.54312639861E+02  0.12920241083E+03  0.00000000000E+00 0. -1.
</event>
<event>
 7    1  0.6188600E-006  0.7123975E+02  0.7818608E-02  0.1391091E+00
          2   -1    0    0  502    0  0.00000000000E+00  0.00000000000E+00  0.21244914178E+04  0.21244914178E+04  0.00000000000E+00 0. -1.
          1   -1    0    0  501    0 -0.00000000000E+00 -0.00000000000E+00 -0.12454258284E+04  0.12454258284E+04  0.00000000000E+00 0. -1.
         25    2    1    2    0    0  0.19742456838E+02  0.10381999029E+03 -0.10852160877E+02  0.16404465188E+03  0.12499809370E+03 0.  0.
          2    1    1    2  501    0 -0.43440821366E+02 -0.56047874818E+02 -0.11565441376E+04  0.11587160185E+04  0.00000000000E+00 0. -1.
          1    1    1    2  502    0  0.23698364529E+02 -0.47772115474E+02  0.20464618879E+04  0.20471565758E+04  0.00000000000E+00 0. -1.
         22    1    3    3    0    0 -0.30371168844E+01  0.35604864630E+02 -0.64895968297E+02  0.74083852259E+02  0.00000000000E+00 0. -1.
         22    1    3    3    0    0  0.22779573722E+02  0.68215125662E+02  0.54043807420E+02  0.89960799621E+02  0.00000000000E+00 0. -1.
</event>
<event>
 7    1  0.6188600E-006  0.9222233E+02  0.7818608E-02  0.1318067E+00
          2   -1    0    0  502    0  0.00000000000E+00  0.00000000000E+00  0.23292230400E+03  0.23292230400E+03  0.00000000000E+00 0. -1.
          1   -1    0    0  501    0 -0.00000000000E+00 -0.00000000000E+00 -0.12464033160E+04  0.12464033160E+04  0.00000000000E+00 0. -1.
         25    2    1    2    0    0  0.34111318487E+02 -0.16093377116E+03 -0.15277374092E+03  0.25695947405E+03  0.12500037855E+03 0.  0.
          2    1    1    2  501    0 -0.21419014396E+02  0.73452694993E+02 -0.10292281626E+04  0.10320681582E+04  0.00000000000E+00 0. -1.
          1    1    1    2  502    0 -0.12692304091E+02  0.87481076170E+02  0.16852089149E+03  0.19029798774E+03  0.00000000000E+00 0. -1.
         22    1    3    3    0    0 -0.41916359513E+02 -0.10221059498E+03 -0.85146681876E+02  0.13947739730E+03  0.00000000000E+00 0.  1.
         22    1    3    3    0    0  0.76027678000E+02 -0.58723176178E+02 -0.67627059047E+02  0.11748207675E+03  0.00000000000E+00 0.  1.
</event>
<event>
 7    1  0.6188600E-006  0.1206353E+03  0.7818608E-02  0.1399239E+00
          2   -1    0    0  502    0  0.00000000000E+00  0.00000000000E+00  0.51597596847E+03  0.51597596847E+03  0.00000000000E+00 0. -1.
          1   -1    0    0  501    0 -0.00000000000E+00 -0.00000000000E+00 -0.14478754881E+04  0.14478754881E+04  0.00000000000E+00 0. -1.
         25    2    1    2    0    0  0.11428843032E+03  0.35867072062E+02 -0.14610554074E+03  0.22654633131E+03  0.12501247551E+03 0.  0.
          2    1    1    2  501    0 -0.12073199220E+03 -0.70683911153E+01 -0.12581896013E+04  0.12639886269E+04  0.00000000000E+00 0. -1.
          1    1    1    2  502    0  0.64435618803E+01 -0.28798680946E+02  0.47239562243E+03  0.47331649834E+03  0.00000000000E+00 0. -1.
         22    1    3    3    0    0 -0.21214368239E+02 -0.92701177793E+01 -0.47949620160E+02  0.53246132037E+02  0.00000000000E+00 0. -1.
         22    1    3    3    0    0  0.13550279856E+03  0.45137189841E+02 -0.98155920579E+02  0.17330019927E+03  0.00000000000E+00 0. -1.
</event>
<event>
 7    1  0.6188600E-006  0.1449423E+03  0.7818608E-02  0.1330447E+00
          2   -1    0    0  502    0  0.00000000000E+00  0.00000000000E+00  0.18501831746E+04  0.18501831746E+04  0.00000000000E+00 0. -1.
          1   -1    0    0  501    0 -0.00000000000E+00 -0.00000000000E+00 -0.67112641051E+03  0.67112641051E+03  0.00000000000E+00 0. -1.
         25    2    1    2    0    0  0.17862244158E+02 -0.17607324442E+03  0.79254392777E+02  0.23071081801E+03  0.12500150240E+03 0.  0.
          2    1    1    2  501    0 -0.38962852656E+02  0.13790027858E+03 -0.58648990996E+03  0.60374249909E+03  0.00000000000E+00 0. -1.
          1    1    1    2  502    0  0.21100608498E+02  0.38172965846E+02  0.16862922813E+04  0.16868562680E+04  0.00000000000E+00 0. -1.
         22    1    3    3    0    0  0.54246886239E+02 -0.17153483722E+03  0.63236077521E+02  0.19069799828E+03  0.00000000000E+00 0. -1.
         22    1    3    3    0    0 -0.36384642081E+02 -0.45384072068E+01  0.16018315256E+02  0.40012819733E+02  0.00000000000E+00 0. -1.
</event>
<event>
 7    1  0.6188600E-006  0.6513265E+02  0.7818608E-02  0.1500328E+00
          2   -1    0    0  502    0  0.00000000000E+00  0.00000000000E+00  0.57505929429E+03  0.57505929429E+03  0.00000000000E+00 0. -1.
          1   -1    0    0  501    0 -0.00000000000E+00 -0.00000000000E+00 -0.12780306668E+03  0.12780306668E+03  0.00000000000E+00 0. -1.
         25    2    1    2    0    0 -0.16292389167E+02  0.37749911457E+02  0.10205080897E+03  0.16652189864E+03  0.12499870942E+03 0.  0.
          2    1    1    2  501    0 -0.10102994572E+02  0.23874780041E+02 -0.91201417985E+02  0.94814420126E+02  0.00000000000E+00 0. -1.
          1    1    1    2  502    0  0.26395383738E+02 -0.61624691498E+02  0.43640683663E+03  0.44152604220E+03  0.00000000000E+00 0. -1.
         22    1    3    3    0    0 -0.23530700858E+02  0.26467333356E+02 -0.22037474240E+02  0.41711675689E+02  0.00000000000E+00 0.  1.
         22    1    3    3    0    0  0.72383116916E+01  0.11282578100E+02  0.12408828321E+03  0.12481022296E+03  0.00000000000E+00 0.  1.
</event>
<event>
 7    1  0.6188600E-006  0.4852244E+02  0.7818608E-02  0.1457581E+00
          2   -1    0    0  502    0  0.00000000000E+00  0.00000000000E+00  0.39338062796E+03  0.39338062796E+03  0.00000000000E+00 0. -1.
          1   -1    0    0  501    0 -0.00000000000E+00 -0.00000000000E+00 -0.29549677328E+04  0.29549677328E+04  0.00000000000E+00 0. -1.
         25    2    1    2    0    0 -0.87833945079E+02  0.32682569929E+02 -0.63805719685E+03  0.65691042590E+03  0.12502547309E+03 0.  0.
          2    1    1    2  501    0  0.40071528568E+02 -0.24730731688E+02 -0.23057160357E+04  0.23061968203E+04  0.00000000000E+00 0. -1.
          1    1    1    2  502    0  0.47762416512E+02 -0.79518382413E+01  0.38218612771E+03  0.38524111460E+03  0.00000000000E+00 0. -1.
         22    1    3    3    0    0 -0.10707826866E+03  0.41153678264E+02 -0.61539841436E+03  0.62599887320E+03  0.00000000000E+00 0. -1.
         22    1    3    3    0    0  0.19244323579E+02 -0.84711083348E+01 -0.22658782491E+02  0.30911552701E+02  0.00000000000E+00 0. -1.
</event>
<event>
 7    1  0.6188600E-006  0.5998028E+02  0.7818608E-02  0.1472652E+00
          2   -1    0    0  502    0  0.00000000000E+00  0.00000000000E+00  0.60862925773E+03  0.60862925773E+03  0.00000000000E+00 0. -1.
          1   -1    0    0  501    0 -0.00000000000E+00 -0.00000000000E+00 -0.20534051933E+03  0.20534051933E+03  0.00000000000E+00 0. -1.
         25    2    1    2    0    0  0.77464389540E+02  0.52180742129E+02  0.19860313266E+03  0.25257032363E+03  0.12500001032E+03 0.  0.
          2    1    1    2  501    0 -0.48632232190E+02 -0.33841965589E+02 -0.17264308167E+03  0.18252672761E+03  0.00000000000E+00 0. -1.
          1    1    1    2  502    0 -0.28832157350E+02 -0.18338776540E+02  0.37732868741E+03  0.37887272582E+03  0.00000000000E+00 0. -1.
         22    1    3    3    0    0  0.35994426442E+02 -0.35058105843E+02  0.30751606692E+02  0.58909513955E+02  0.00000000000E+00 0.  1.
         22    1    3    3    0    0  0.41469963098E+02  0.87238847972E+02  0.16785152597E+03  0.19366080968E+03  0.00000000000E+00 0.  1.
</event>
<event>
 7    1  0.6188600E-006  0.1161401E+03  0.7818608E-02  0.1405026E+00
          2   -1    0    0  502    0  0.00000000000E+00  0.00000000000E+00  0.13462427589E+04  0.13462427589E+04  0.00000000000E+00 0. -1.
          1   -1    0    0  501    0 -0.00000000000E+00 -0.00000000000E+00 -0.79174866973E+03  0.79174866973E+03  0.00000000000E+00 0. -1.
         25    2    1    2    0    0 -0.12638301118E+03 -0.62030036781E+02  0.25961460061E+02  0.19005121138E+03  0.12500029823E+03 0.  0.
          2    1    1    2  501    0  0.29282936871E+02 -0.25870298068E+00 -0.70671295595E+03  0.70731941825E+03  0.00000000000E+00 0. -1.
          1    1    1    2  502    0  0.97100074311E+02  0.62288739762E+02  0.12352455851E+04  0.12406207990E+04  0.00000000000E+00 0. -1.
         22    1    3    3    0    0 -0.13109341718E+03 -0.34627509559E+02 -0.19275149392E+02  0.13695283798E+03  0.00000000000E+00 0. -1.
         22    1    3    3    0    0  0.47104059975E+01 -0.27402527222E+02  0.45236609453E+02  0.53098373399E+02  0.00000000000E+00 0. -1.
</event>
<event>
 7    1  0.6188600E-006  0.9144507E+02  0.7818608E-02  0.1438452E+00
          2   -1    0    0  502    0  0.00000000000E+00  0.00000000000E+00  0.50561296718E+03  0.50561296718E+03  0.00000000000E+00 0. -1.
          1   -1    0    0  501    0 -0.00000000000E+00 -0.00000000000E+00 -0.66058971033E+03  0.66058971033E+03  0.00000000000E+00 0. -1.
         25    2    1    2    0    0 -0.57833726889E+02 -0.65449830754E+02 -0.69962557392E+02  0.16777529679E+03  0.12500148185E+03 0.  0.
          2    1    1    2  501    0 -0.21432646567E+02  0.19206220979E+02 -0.53672140211E+03  0.53749241924E+03  0.00000000000E+00 0. -1.
          1    1    1    2  502    0  0.79266373456E+02  0.46243609775E+02  0.45170721635E+03  0.46093496147E+03  0.00000000000E+00 0. -1.
         22    1    3    3    0    0  0.15686851235E+02 -0.13329158276E+02 -0.74744456152E+02  0.77527269315E+02  0.00000000000E+00 0.  1.
         22    1    3    3    0    0 -0.73520578124E+02 -0.52120672478E+02  0.47818987601E+01  0.90248027474E+02  0.00000000000E+00 0.  1.
</event>
<event>
 7    1  0.6188600E-006  0.8980919E+02  0.7818608E-02  0.1378968E+00
          2   -1    0    0  502    0  0.00000000000E+00  0.00000000000E+00  0.17476070144E+04  0.17476070144E+04  0.00000000000E+00 0. -1.
          1   -1    0    0  501    0 -0.00000000000E+00 -0.00000000000E+00 -0.54634323166E+03  0.54634323166E+03  0.00000000000E+00 0. -1.
         25    2    1    2    0    0 -0.11484972518E+03  0.38251267442E+02  0.38188066742E+02  0.17814836232E+03  0.12499956688E+03 0.  0.
          2    1    1    2  501    0  0.25476887850E+02 -0.39093986340E+02 -0.47399844107E+03  0.47628975815E+03  0.00000000000E+00 0. -1.
          1    1    1    2  502    0  0.89372837331E+02  0.84271889867E+00  0.16370741570E+04  0.16395121256E+04  0.00000000000E+00 0. -1.
         22    1    3    3    0    0 -0.26189213169E+02  0.68503884953E+02 -0.78664815117E+01  0.73760007264E+02  0.00000000000E+00 0. -1.
         22    1    3    3    0    0 -0.88660512011E+02 -0.30252617512E+02  0.46054548254E+02  0.10438835506E+03  0.00000000000E+00 0. -1.
</event>
<event>
 7    1  0.6188600E-006  0.7610477E+02  0.7818608E-02  0.1363186E+00
          2   -1    0    0  502    0  0.00000000000E+00  0.00000000000E+00  0.72955138564E+02  0.72955138564E+02  0.00000000000E+00 0. -1.
          1   -1    0    0  501    0 -0.00000000000E+00 -0.00000000000E+00 -0.44153239463E+03  0.44153239463E+03  0.00000000000E+00 0. -1.
         25    2    1    2    0    0 -0.28327455180E+02 -0.11314816391E+03 -0.26699823931E+03  0.31704337459E+03  0.12499395930E+03 0.  0.
          2    1    1    2  501    0  0.39128032667E+02  0.51347592364E+02 -0.11628811674E+03  0.13300565506E+03  0.00000000000E+00 0. -1.
          1    1    1    2  502    0 -0.10800577486E+02  0.61800571546E+02  0.14709099985E+02  0.64438503551E+02  0.00000000000E+00 0. -1.
         22    1    3    3    0    0 -0.45104779652E+02 -0.79071765257E+02 -0.65879575505E+02  0.11236949620E+03  0.00000000000E+00 0.  1.
         22    1    3    3    0    0  0.16777324472E+02 -0.34076398653E+02 -0.20111866381E+03  0.20467387838E+03  0.00000000000E+00 0.  1.
</event>
<event>
 7    1  0.6188600E-006  0.1083272E+03  0.7818608E-02  0.1418229E+00
          2   -1    0    0  502    0  0.00000000000E+00  0.00000000000E+00  0.16219568553E+04  0.16219568553E+04  0.00000000000E+00 0. -1.
          1   -1    0    0  501    0 -0.00000000000E+00 -0.00000000000E+00 -0.60945791109E+03  0.60945791109E+03  0.00000000000E+00 0. -1.
         25    2    1    2    0    0  0.65823649048E+02  0.11095632109E+03  0.10219640068E+04  0.10376315546E+04  0.12499901596E+03 0.  0.
          2    1    1    2  501    0 -0.39367778256E+02 -0.10082416973E+03 -0.59641151528E+03  0.60615347127E+03  0.00000000000E+00 0. -1.
          1    1    1    2  502    0 -0.26455870792E+02 -0.10132151360E+02  0.58694645273E+03  0.58762974054E+03  0.00000000000E+00 0. -1.
         22    1    3    3    0    0  0.78324662581E+02  0.55308042728E+02  0.87084431045E+03  0.87610703993E+03  0.00000000000E+00 0.  1.
         22    1    3    3    0    0 -0.12501013534E+02  0.55648278362E+02  0.15111969634E+03  0.16152451469E+03  0.00000000000E+00 0.  1.
</event>
<event>
 7    1  0.6188600E-006  0.1500693E+03  0.7818608E-02  0.1250453E+00
          2   -1    0    0  502    0  0.00000000000E+00  0.00000000000E+00  0.48433747714E+02  0.48433747714E+02  0.00000000000E+00 0. -1.
          1   -1    0    0  501    0 -0.00000000000E+00 -0.00000000000E+00 -0.17302133163E+04  0.17302133163E+04  0.00000000000E+00 0. -1.
         25    2    1    2    0    0 -0.21273445261E+02  0.96302306940E+02 -0.10722967376E+04  0.10840536681E+04  0.12500147291E+03 0.  0.
          2    1    1    2  501    0  0.69169114148E+02  0.56200979832E+02 -0.48190265998E+03  0.49007457614E+03  0.00000000000E+00 0. -1.
          1    1    1    2  502    0 -0.47895668886E+02 -0.15250328677E+03 -0.12758017101E+03  0.20451881969E+03  0.00000000000E+00 0. -1.
         22    1    3    3    0    0 -0.13958557852E+02  0.27337634656E+02 -0.45311775353E+02  0.54729741380E+02  0.00000000000E+00 0. -1.
         22    1    3    3    0    0 -0.73148874095E+01  0.68964672284E+02 -0.10269849622E+04  0.10293239268E+04  0.00000000000E+00 0. -1.
</event>
<event>
 7    1  0.6188600E-006  0.1406962E+03  0.7818608E-02  0.1316981E+00
          2   -1    0    0  502    0  0.00000000000E+00  0.00000000000E+00  0.66272012595E+03  0.66272012595E+03  0.00000000000E+00 0. -1.
          1   -1    0    0  501    0 -0.00000000000E+00 -0.00000000000E+00 -0.95131136451E+03  0.95131136451E+03  0.00000000000E+00 0. -1.
         25    2    1    2    0    0  0.90183160716E+02 -0.10457498778E+03 -0.19297759284E+03  0.26820248864E+03  0.12499317194E+03 0.  0.
          2    1    1    2  501    0  0.33972787167E+02  0.37556011762E+02 -0.71184917841E+03  0.71364827268E+03  0.00000000000E+00 0. -1.
          1    1    1    2  502    0 -0.12415594788E+03  0.67018976014E+02  0.61623553270E+03  0.63218072914E+03  0.00000000000E+00 0. -1.
         22    1    3    3    0    0  0.61442518131E+02 -0.95515735739E+02 -0.20611127600E+03  0.23533018698E+03  0.00000000000E+00 0.  1.
         22    1    3    3    0    0  0.28740642584E+02 -0.90592520375E+01  0.13133683158E+02  0.32872301668E+02  0.00000000000E+00 0.  1.
</event>
<event>
 7    1  0.6188600E-006  0.6566399E+02  0.7818608E-02  0.1414200E+00
          2   -1    0    0  502    0  0.00000000000E+00  0.00000000000E+00  0.35534193820E+03  0.35534193820E+03  0.00000000000E+00 0. -1.
          1   -1    0    0  501    0 -0.00000000000E+00 -0.00000000000E+00 -0.94856666351E+02  0.94856666351E+02  0.00000000000E+00 0. -1.
         25    2    1    2    0    0  0.72805562893E+02  0.24236790934E+02  0.32977420990E+02  0.15033626535E+03  0.12500164143E+03 0.  0.
          2    1    1    2  501    0 -0.10847583761E+02 -0.46978988173E+02 -0.13428164756E+02  0.50050085034E+02  0.00000000000E+00 0. -1.
          1    1    1    2  502    0 -0.61957979132E+02  0.22742197239E+02  0.24093601561E+03  0.24981225417E+03  0.00000000000E+00 0. -1.
         22    1    3    3    0    0  0.20525994871E+02 -0.30770108089E+02  0.59404735656E+02  0.69978844201E+02  0.00000000000E+00 0.  1.
         22    1    3    3    0    0  0.52279568022E+02  0.55006899024E+02 -0.26427314666E+02  0.80357421146E+02  0.00000000000E+00 0.  1.
</event>
<event>
 7    1  0.7247727E-006  0.1159906E+03  0.7818608E-02  0.1286063E+00
          2   -1    0    0  502    0  0.00000000000E+00  0.00000000000E+00  0.24672027185E+04  0.24672027185E+04  0.00000000000E+00 0. -1.
          1   -1    0    0  501    0 -0.00000000000E+00 -0.00000000000E+00 -0.19530324263E+04  0.19530324263E+04  0.00000000000E+00 0. -1.
         25    2    1    2    0    0  0.15661006539E+03 -0.11974532089E+03 -0.18035922992E+03  0.29499216426E+03  0.12500108280E+03 0.  0.
          2    1    1    2  501    0 -0.64354765126E+02  0.50223272575E+02 -0.17129998374E+04  0.17149438346E+04  0.00000000000E+00 0. -1.
          1    1    1    2  502    0 -0.92255300265E+02  0.69522048311E+02  0.24075293595E+04  0.24102991459E+04  0.00000000000E+00 0. -1.
         22    1    3    3    0    0  0.13240171797E+03 -0.29132824052E+02 -0.79046594367E+02  0.15693087790E+03  0.00000000000E+00 0.  1.
         22    1    3    3    0    0  0.24208347420E+02 -0.90612496834E+02 -0.10131263555E+03  0.13806128635E+03  0.00000000000E+00 0.  1.
</event>
<event>
 7    1  0.6188600E-006  0.6839032E+02  0.7818608E-02  0.1496230E+00
          2   -1    0    0  502    0  0.00000000000E+00  0.00000000000E+00  0.17088777043E+04  0.17088777043E+04  0.00000000000E+00 0. -1.
          1   -1    0    0  501    0 -0.00000000000E+00 -0.00000000000E+00 -0.27281351697E+03  0.27281351697E+03  0.00000000000E+00 0. -1.
         25    2    1    2    0    0 -0.62852321935E+02  0.10279384126E+02 -0.19884368178E+03  0.24335078861E+03  0.12499886568E+03 0.  0.
          2    1    1    2  501    0  0.42526985522E+01  0.25037680267E+02 -0.47860792267E+02  0.54181420381E+02  0.00000000000E+00 0. -1.
          1    1    1    2  502    0  0.58599623383E+02 -0.35317064393E+02  0.16827686614E+04  0.16841590123E+04  0.00000000000E+00 0. -1.
         22    1    3    3    0    0 -0.51403647087E+02 -0.43983697635E+02 -0.16512610677E+03  0.17844756016E+03  0.00000000000E+00 0.  1.
         22    1    3    3    0    0 -0.11448674849E+02  0.54263081761E+02 -0.33717575013E+02  0.64903228446E+02  0.00000000000E+00 0.  1.
</event>
<event>
 7    1  0.6188600E-006  0.6015572E+02  0.7818608E-02  0.1535199E+00
          2   -1    0    0  502    0  0.00000000000E+00  0.00000000000E+00  0.83773274423E+03  0.83773274423E+03  0.00000000000E+00 0. -1.
          1   -1    0    0  501    0 -0.00000000000E+00 -0.00000000000E+00 -0.16699474894E+03  0.16699474894E+03  0.00000000000E+00 0. -1.
         25    2    1    2    0    0 -0.67294750141E+02 -0.15839780424E+02  0.24630477326E+03  0.28473013240E+03  0.12500289966E+03 0.  0.
          2    1    1    2  501    0  0.59810882493E+02 -0.50767354629E+01 -0.14145981080E+03  0.15366845148E+03  0.00000000000E+00 0. -1.
          1    1    1    2  502    0  0.74838676486E+01  0.20916515887E+02  0.56589303283E+03  0.56632890930E+03  0.00000000000E+00 0. -1.
         22    1    3    3    0    0 -0.45316209664E+02 -0.52898940751E+02  0.55333623065E+02  0.88958791766E+02  0.00000000000E+00 0.  1.
         22    1    3    3    0    0 -0.21978540478E+02  0.37059160328E+02  0.19097115020E+03  0.19577134063E+03  0.00000000000E+00 0.  1.
</event>
<event>
 7    1  0.6188600E-006  0.1382494E+03  0.7818608E-02  0.1307236E+00
          2   -1    0    0  502    0  0.00000000000E+00  0.00000000000E+00  0.11402960557E+04  0.11402960557E+04  0.00000000000E+00 0. -1.
          1   -1    0    0  501    0 -0.00000000000E+00 -0.00000000000E+00 -0.14929585468E+04  0.14929585468E+04  0.00000000000E+00 0. -1.
         25    2    1    2    0    0 -0.44046068781E+02 -0.16359421143E+03 -0.25398166155E+02  0.21206875338E+03  0.12499986851E+03 0.  0.
          2    1    1    2  501    0 -0.29772300478E+02  0.47768658430E+02 -0.13691396972E+04  0.13702962253E+04  0.00000000000E+00 0. -1.
          1    1    1    2  502    0  0.73818369258E+02  0.11582555300E+03  0.10418753723E+04  0.10508896239E+04  0.00000000000E+00 0. -1.
         22    1    3    3    0    0 -0.48042328789E+02 -0.14563702729E+02  0.23146182081E+02  0.55280308769E+02  0.00000000000E+00 0.  1.
         22    1    3    3    0    0  0.39962600083E+01 -0.14903050870E+03 -0.48544348235E+02  0.15678844461E+03  0.00000000000E+00 0.  1.
</event>
<event>
 7    1  0.6188600E-006  0.7713362E+02  0.7818608E-02  0.1409187E+00
          2   -1    0    0  502    0  0.00000000000E+00  0.00000000000E+00  0.48610800273E+03  0.48610800273E+03  0.00000000000E+00 0. -1.
          1   -1    0    0  501    0 -0.00000000000E+00 -0.00000000000E+00 -0.87420948528E+03  0.87420948528E+03  0.00000000000E+00 0. -1.
         25    2    1    2    0    0  0.11052076547E+02 -0.10096161763E+03 -0.14666612340E+03  0.21783462729E+03  0.12500230583E+03 0.  0.
          2    1    1    2  501    0 -0.32823266876E+02  0.27278298966E+02 -0.68801732310E+03  0.68933976334E+03  0.00000000000E+00 0. -1.
          1    1    1    2  502    0  0.21771190330E+02  0.73683318668E+02  0.44658196395E+03  0.45314309738E+03  0.00000000000E+00 0. -1.
         22    1    3    3    0    0  0.42094508342E+02 -0.98644972498E+02 -0.15222556838E+03  0.18621332363E+03  0.00000000000E+00 0. -1.
         22    1    3    3    0    0 -0.31042431796E+02 -0.23166451361E+01  0.55594449753E+01  0.31621303656E+02  0.00000000000E+00 0. -1.
</event>
<event>
 7    1  0.6188600E-006  0.1640771E+03  0.7818608E-02  0.1298536E+00
          2   -1    0    0  502    0  0.00000000000E+00  0.00000000000E+00  0.52361496945E+03  0.52361496945E+03  0.00000000000E+00 0. -1.
          1   -1    0    0  501    0 -0.00000000000E+00 -0.00000000000E+00 -0.90501088511E+03  0.90501088511E+03  0.00000000000E+00 0. -1.
         25    2    1    2    0    0  0.15775058524E+03 -0.13176773088E+03  0.30641461740E+03  0.38956030860E+03  0.12497733487E+03 0.  0.
          2    1    1    2  501    0 -0.10711089866E+03  0.12314528570E+03 -0.85176066196E+03  0.86725643916E+03  0.00000000000E+00 0. -1.
          1    1    1    2  502    0 -0.50639686578E+02  0.86224451739E+01  0.16395012889E+03  0.17180910681E+03  0.00000000000E+00 0. -1.
         22    1    3    3    0    0  0.45415829765E+02  0.11194538144E+02  0.12168174574E+03  0.13036242758E+03  0.00000000000E+00 0.  1.
         22    1    3    3    0    0  0.11233475548E+03 -0.14296226902E+03  0.18473287166E+03  0.25919788101E+03  0.00000000000E+00 0.  1.
</event>
<event>
 7    1  0.6188600E-006  0.1310219E+03  0.7818608E-02  0.1314250E+00
          2   -1    0    0  502    0  0.00000000000E+00  0.00000000000E+00  0.89655995140E+03  0.89655995140E+03  0.00000000000E+00 0. -1.
          1   -1    0    0  501    0 -0.00000000000E+00 -0.00000000000E+00 -0.69764006698E+03  0.69764006698E+03  0.00000000000E+00 0. -1.
         25    2    1    2    0    0  0.75741980393E+02  0.15339163030E+03  0.50828260197E+02  0.21788336171E+03  0.12499522964E+03 0.  0.
          2    1    1    2  501    0 -0.48415425839E+02 -0.27607837085E+02 -0.60739323003E+03  0.60994490080E+03  0.00000000000E+00 0. -1.
          1    1    1    2  502    0 -0.27326554554E+02 -0.12578379321E+03  0.75548485425E+03  0.76637175588E+03  0.00000000000E+00 0. -1.
         22    1    3    3    0    0  0.34106104248E+02  0.93792150960E+02 -0.34671770099E+02  0.10565190756E+03  0.00000000000E+00 0.  1.
         22    1    3    3    0    0  0.41635876145E+02  0.59599479340E+02  0.85500030296E+02  0.11223145415E+03  0.00000000000E+00 0.  1.
</event>
<event>
 7    1  0.6188600E-006  0.1496414E+03  0.7818608E-02  0.1399829E+00
          2   -1    0    0  502    0  0.00000000000E+00  0.00000000000E+00  0.37128467974E+03  0.37128467974E+03  0.00000000000E+00 0. -1.
          1   -1    0    0  501    0 -0.00000000000E+00 -0.00000000000E+00 -0.87611864393E+03  0.87611864393E+03  0.00000000000E+00 0. -1.
         25    2    1    2    0    0 -0.10147967416E+03  0.12474963386E+03 -0.60191638613E+03  0.63544337440E+03  0.12499740298E+03 0.  0.
          2    1    1    2  501    0  0.89348783069E+02 -0.10441358035E+03 -0.23865229684E+03  0.27539121189E+03  0.00000000000E+00 0. -1.
          1    1    1    2  502    0  0.12130891096E+02 -0.20336053511E+02  0.33573471878E+03  0.33656873739E+03  0.00000000000E+00 0. -1.
         22    1    3    3    0    0 -0.32963128626E+02 -0.10689164910E+02 -0.37871072236E+02  0.51332681671E+02  0.00000000000E+00 0.  1.
         22    1    3    3    0    0 -0.68516545539E+02  0.13543879877E+03 -0.56404531390E+03  0.58411069273E+03  0.00000000000E+00 0.  1.
</event>
<event>
 7    1  0.6188600E-006  0.1169662E+03  0.7818608E-02  0.1274128E+00
          2   -1    0    0  502    0  0.00000000000E+00  0.00000000000E+00  0.16949858812E+03  0.16949858812E+03  0.00000000000E+00 0. -1.
          1   -1    0    0  501    0 -0.00000000000E+00 -0.00000000000E+00 -0.15155087439E+04  0.15155087439E+04  0.00000000000E+00 0. -1.
         25    2    1    2    0    0 -0.44550321338E+02 -0.86390299761E+01 -0.57357273588E+02  0.14482637853E+03  0.12500183644E+03 0.  0.
          2    1    1    2  501    0  0.79685440966E+02  0.92242352823E+02 -0.13950583096E+04  0.14003735602E+04  0.00000000000E+00 0. -1.
          1    1    1    2  502    0 -0.35135119628E+02 -0.83603322847E+02  0.10640542739E+03  0.13980739322E+03  0.00000000000E+00 0. -1.
         22    1    3    3    0    0 -0.97485878840E+01  0.40592643488E+01  0.39625745581E+02  0.41008685734E+02  0.00000000000E+00 0. -1.
         22    1    3    3    0    0 -0.34801733454E+02 -0.12698294325E+02 -0.96983019169E+02  0.10381769279E+03  0.00000000000E+00 0. -1.
</event>
<event>
 7    1  0.6188600E-006  0.8097444E+02  0.7818608E-02  0.1343882E+00
          2   -1    0    0  502    0  0.00000000000E+00  0.00000000000E+00  0.30704064853E+03  0.30704064853E+03  0.00000000000E+00 0. -1.
          1   -1    0    0  501    0 -0.00000000000E+00 -0.00000000000E+00 -0.91124079279E+03  0.91124079279E+03  0.00000000000E+00 0. -1.
         25    2    1    2    0    0  0.17127661658E+02 -0.25839176508E+02 -0.35234988759E+01  0.12883635809E+03  0.12500148913E+03 0.  0.
          2    1    1    2  501    0 -0.82944356005E+02  0.36387156448E+01 -0.83803223400E+03  0.84213480611E+03  0.00000000000E+00 0. -1.
          1    1    1    2  502    0  0.65816694347E+02  0.22200460863E+02  0.23735558862E+03  0.24731027712E+03  0.00000000000E+00 0. -1.
         22    1    3    3    0    0  0.14473430427E+02 -0.52228885078E+02  0.47023538179E+02  0.71753395513E+02  0.00000000000E+00 0. -1.
         22    1    3    3    0    0  0.26542312317E+01  0.26389708570E+02 -0.50547037054E+02  0.57082962579E+02  0.00000000000E+00 0. -1.
</event>
<event>
 7    1  0.6188600E-006  0.3850460E+03  0.7818608E-02  0.1210621E+00
          2   -1    0    0  502    0  0.00000000000E+00  0.00000000000E+00  0.95978284554E+03  0.95978284554E+03  0.00000000000E+00 0. -1.
          1   -1    0    0  501    0 -0.00000000000E+00 -0.00000000000E+00 -0.63126199633E+03  0.63126199633E+03  0.00000000000E+00 0. -1.
         25    2    1    2    0    0  0.42406565443E+03  0.27180864204E+02  0.10571930513E+03  0.45538246745E+03  0.12500456608E+03 0.  0.
          2    1    1    2  501    0 -0.37242496432E+03 -0.36017096842E+02 -0.37841866186E+03  0.53216376141E+03  0.00000000000E+00 0. -1.
          1    1    1    2  502    0 -0.51640690108E+02  0.88362326377E+01  0.60122020594E+03  0.60349861301E+03  0.00000000000E+00 0. -1.
         22    1    3    3    0    0  0.16673852930E+03  0.72153121945E+02  0.40634837544E+02  0.18616927830E+03  0.00000000000E+00 0.  1.
         22    1    3    3    0    0  0.25732712513E+03 -0.44972257741E+02  0.65084467590E+02  0.26921318915E+03  0.00000000000E+00 0.  1.
</event>
<event>
 7    1  0.6188600E-006  0.3943864E+02  0.7818608E-02  0.1535754E+00
          2   -1    0    0  502    0  0.00000000000E+00  0.00000000000E+00  0.18195544478E+04  0.18195544478E+04  0.00000000000E+00 0. -1.
          1   -1    0    0  501    0 -0.00000000000E+00 -0.00000000000E+00 -0.35228707996E+02  0.35228707996E+02  0.00000000000E+00 0. -1.
         25    2    1    2    0    0  0.38856366608E+02 -0.29760174942E+02  0.37412258468E+03  0.39748108093E+03  0.12501206378E+03 0.  0.
          2    1    1    2  501    0 -0.32472485321E+02 -0.92409390543E+01 -0.11031299247E+02  0.35518260383E+02  0.00000000000E+00 0. -1.
          1    1    1    2  502    0 -0.63838812869E+01  0.39001113996E+02  0.14212344543E+04  0.14217838145E+04  0.00000000000E+00 0. -1.
         22    1    3    3    0    0  0.24564900235E+02  0.24155955553E+02  0.21798546232E+02  0.40769119810E+02  0.00000000000E+00 0.  1.
         22    1    3    3    0    0  0.14291466374E+02 -0.53916130495E+02  0.35232403845E+03  0.35671196112E+03  0.00000000000E+00 0.  1.
</event>
<event>
 7    1  0.6188600E-006  0.4811168E+02  0.7818608E-02  0.1485143E+00
          2   -1    0    0  502    0  0.00000000000E+00  0.00000000000E+00  0.10153804571E+03  0.10153804571E+03  0.00000000000E+00 0. -1.
          1   -1    0    0  501    0 -0.00000000000E+00 -0.00000000000E+00 -0.83157619266E+03  0.83157619266E+03  0.00000000000E+00 0. -1.
         25    2    1    2    0    0  0.58224642013E+01 -0.11185816526E+02 -0.12372509490E+03  0.17632569275E+03  0.12499530886E+03 0.  0.
          2    1    1    2  501    0  0.33491859584E+02 -0.19975874108E+02 -0.67256036051E+03  0.67368997226E+03  0.00000000000E+00 0. -1.
          1    1    1    2  502    0 -0.39314323785E+02  0.31161690634E+02  0.66247308445E+02  0.83098573358E+02  0.00000000000E+00 0. -1.
         22    1    3    3    0    0 -0.31065952513E+02  0.38892787916E+02 -0.16634251742E+02  0.52482765633E+02  0.00000000000E+00 0.  1.
         22    1    3    3    0    0  0.36888416714E+02 -0.50078604442E+02 -0.10709084315E+03  0.12384292712E+03  0.00000000000E+00 0.  1.
</event>
<event>
 7    1  0.6188600E-006  0.1183973E+03  0.7818608E-02  0.1365462E+00
          2   -1    0    0  502    0  0.00000000000E+00  0.00000000000E+00  0.20102853999E+04  0.20102853999E+04  0.00000000000E+00 0. -1.
          1   -1    0    0  501    0 -0.00000000000E+00 -0.00000000000E+00 -0.56437941328E+03  0.56437941328E+03  0.00000000000E+00 0. -1.
         25    2    1    2    0    0  0.91145813161E+02 -0.65966066432E+02  0.93715253392E+01  0.16842985699E+03  0.12498683955E+03 0.  0.
          2    1    1    2  501    0 -0.68037669306E+02  0.98085187405E+02 -0.47729511340E+03  0.49199639604E+03  0.00000000000E+00 0. -1.
          1    1    1    2  502    0 -0.23108143855E+02 -0.32119120973E+02  0.19138295747E+04  0.19142385602E+04  0.00000000000E+00 0. -1.
         22    1    3    3    0    0  0.10718010533E+03 -0.45905467556E+02 -0.30940511755E+02  0.12063250887E+03  0.00000000000E+00 0. -1.
         22    1    3    3    0    0 -0.16034292166E+02 -0.20060598876E+02  0.40312037094E+02  0.47797348119E+02  0.00000000000E+00 0. -1.
</event>
<event>
 7    1  0.6188600E-006  0.1182545E+03  0.7818608E-02  0.1315495E+00
          2   -1    0    0  502    0  0.00000000000E+00  0.00000000000E+00  0.12095180967E+04  0.12095180967E+04  0.00000000000E+00 0. -1.
          1   -1    0    0  501    0 -0.00000000000E+00 -0.00000000000E+00 -0.79685663482E+02  0.79685663482E+02  0.00000000000E+00 0. -1.
         25    2    1    2    0    0  0.18411052859E+02  0.68900295661E+02  0.52569569879E+03  0.54503875859E+03  0.12500025210E+03 0.  0.
          2    1    1    2  501    0  0.95934038081E+01 -0.12316265806E+03 -0.12815157413E+02  0.12419863927E+03  0.00000000000E+00 0. -1.
          1    1    1    2  502    0 -0.28004456667E+02  0.54262362402E+02  0.61695189181E+03  0.61996636230E+03  0.00000000000E+00 0. -1.
         22    1    3    3    0    0 -0.37747313826E+02  0.17043865410E+02  0.36216169621E+03  0.36452221777E+03  0.00000000000E+00 0.  1.
         22    1    3    3    0    0  0.56158366685E+02  0.51856430251E+02  0.16353400259E+03  0.18051654082E+03  0.00000000000E+00 0.  1.
</event>
<event>
 7    1  0.6188600E-006  0.2845609E+02  0.7818608E-02  0.1625669E+00
          2   -1    0    0  502    0  0.00000000000E+00  0.00000000000E+00  0.88676226030E+03  0.88676226030E+03  0.00000000000E+00 0. -1.
          1   -1    0    0  501    0 -0.00000000000E+00 -0.00000000000E+00 -0.12500537187E+03  0.12500537187E+03  0.00000000000E+00 0. -1.
         25    2    1    2    0    0 -0.52592372618E+02  0.90756287022E+01  0.13874275748E+02  0.13662813627E+03  0.12500570947E+03 0.  0.
          2    1    1    2  501    0  0.27499096367E+02  0.50173939197E+00 -0.60422780669E+02  0.66387984358E+02  0.00000000000E+00 0. -1.
          1    1    1    2  502    0  0.25093276251E+02 -0.95773680942E+01  0.80830539335E+03  0.80875151154E+03  0.00000000000E+00 0. -1.
         22    1    3    3    0    0  0.33737839630E+01 -0.51081415221E+02 -0.74731541253E+01  0.51735301601E+02  0.00000000000E+00 0. -1.
         22    1    3    3    0    0 -0.55966156581E+02  0.60157043923E+02  0.21347429873E+02  0.84892834669E+02  0.00000000000E+00 0. -1.
</event>
<event>
 7    1  0.6188600E-006  0.7143323E+02  0.7818608E-02  0.1476537E+00
          2   -1    0    0  502    0  0.00000000000E+00  0.00000000000E+00  0.82850072395E+03  0.82850072395E+03  0.00000000000E+00 0. -1.
          1   -1    0    0  501    0 -0.00000000000E+00 -0.00000000000E+00 -0.10845548157E+04  0.10845548157E+04  0.00000000000E+00 0. -1.
         25    2    1    2    0    0  0.21374251758E+02  0.43471750876E+02  0.11410480749E+03  0.17602322941E+03  0.12497047025E+03 0.  0.
          2    1    1    2  501    0  0.24609150942E+02  0.13164700747E+02 -0.10514630732E+04  0.10518334059E+04  0.00000000000E+00 0. -1.
          1    1    1    2  502    0 -0.45983402700E+02 -0.56636451623E+02  0.68130417394E+03  0.68519890427E+03  0.00000000000E+00 0. -1.
         22    1    3    3    0    0  0.54638195771E+01  0.79184151268E+02  0.32946075555E+02  0.85938507265E+02  0.00000000000E+00 0.  1.
         22    1    3    3    0    0  0.15910432181E+02 -0.35712400392E+02  0.81158731934E+02  0.90084722140E+02  0.00000000000E+00 0.  1.
</event>
<event>
 7    1  0.6188600E-006  0.1456516E+03  0.7818608E-02  0.1390074E+00
          2   -1    0    0  502    0  0.00000000000E+00  0.00000000000E+00  0.65456233384E+03  0.65456233384E+03  0.00000000000E+00 0. -1.
          1   -1    0    0  501    0 -0.00000000000E+00 -0.00000000000E+00 -0.63477469163E+03  0.63477469163E+03  0.00000000000E+00 0. -1.
         25    2    1    2    0    0 -0.99169234197E+02 -0.11616656932E+03  0.35375005584E+03  0.40508485925E+03  0.12500172939E+03 0.  0.
          2    1    1    2  501    0  0.25858949438E+02 -0.47789583255E+01 -0.59062111856E+03  0.59120624946E+03  0.00000000000E+00 0. -1.
          1    1    1    2  502    0  0.73310284759E+02  0.12094552765E+03  0.25665870493E+03  0.29304591675E+03  0.00000000000E+00 0. -1.
         22    1    3    3    0    0 -0.12763377810E+03 -0.10187290921E+03  0.27079853392E+03  0.31622826711E+03  0.00000000000E+00 0. -1.
         22    1    3    3    0    0  0.28464543907E+02 -0.14293660115E+02  0.82951521919E+02  0.88856592146E+02  0.00000000000E+00 0. -1.
</event>
<event>
 7    1  0.6188600E-006  0.1171352E+03  0.7818608E-02  0.1307211E+00
          2   -1    0    0  502    0  0.00000000000E+00  0.00000000000E+00  0.74185285391E+03  0.74185285391E+03  0.00000000000E+00 0. -1.
          1   -1    0    0  501    0 -0.00000000000E+00 -0.00000000000E+00 -0.73171158609E+03  0.73171158609E+03  0.00000000000E+00 0. -1.
         25    2    1    2    0    0  0.25619666848E+02 -0.58700166187E+02 -0.13049525282E+03  0.19171797216E+03  0.12499877200E+03 0.  0.
          2    1    1    2  501    0 -0.42087666943E+02  0.12307555265E+03 -0.56160342150E+03  0.57646974457E+03  0.00000000000E+00 0. -1.
          1    1    1    2  502    0  0.16468000094E+02 -0.64375386460E+02  0.70223994213E+03  0.70537672327E+03  0.00000000000E+00 0. -1.
         22    1    3    3    0    0  0.22086206213E+02 -0.79783764747E+02 -0.28571011252E+02  0.87575980188E+02  0.00000000000E+00 0.  1.
         22    1    3    3    0    0  0.35334606354E+01  0.21083598560E+02 -0.10192424157E+03  0.10414199197E+03  0.00000000000E+00 0.  1.
</event>
<event>
 7    1  0.6188600E-006  0.4474208E+02  0.7818608E-02  0.1528992E+00
          2   -1    0    0  502    0  0.00000000000E+00  0.00000000000E+00  0.83664962853E+03  0.83664962853E+03  0.00000000000E+00 0. -1.
          1   -1    0    0  501    0 -0.00000000000E+00 -0.00000000000E+00 -0.33691470372E+02  0.33691470372E+02  0.00000000000E+00 0. -1.
         25    2    1    2    0    0 -0.10910926669E+02  0.70656924164E+02  0.39258986378E+03  0.41816564937E+03  0.12499703966E+03 0.  0.
          2    1    1    2  501    0 -0.36610959427E+01 -0.43167489889E+02  0.27909077273E+01  0.43412267537E+02  0.00000000000E+00 0. -1.
          1    1    1    2  502    0  0.14572022612E+02 -0.27489434275E+02  0.40757738665E+03  0.40876318199E+03  0.00000000000E+00 0. -1.
         22    1    3    3    0    0 -0.35707410765E+02  0.85657557981E+02  0.36988736523E+03  0.38135141193E+03  0.00000000000E+00 0.  1.
         22    1    3    3    0    0  0.24796484095E+02 -0.15000633817E+02  0.22702498545E+02  0.36814237444E+02  0.00000000000E+00 0.  1.
</event>
<event>
 7    1  0.6188600E-006  0.6342154E+02  0.7818608E-02  0.1430727E+00
          2   -1    0    0  502    0  0.00000000000E+00  0.00000000000E+00  0.62655376287E+03  0.62655376287E+03  0.00000000000E+00 0. -1.
          1   -1    0    0  501    0 -0.00000000000E+00 -0.00000000000E+00 -0.17410881938E+03  0.17410881938E+03  0.00000000000E+00 0. -1.
         25    2    1    2    0    0 -0.93638277533E+02 -0.24909535157E+01  0.29792443805E+03  0.33639009075E+03  0.12499996200E+03 0.  0.
          2    1    1    2  501    0  0.37572474200E+02  0.22861633698E+02 -0.14878879076E+03  0.15515298697E+03  0.00000000000E+00 0. -1.
          1    1    1    2  502    0  0.56065803334E+02 -0.20370680182E+02  0.30330929620E+03  0.30911950452E+03  0.00000000000E+00 0. -1.
         22    1    3    3    0    0  0.24128088934E+02  0.87968733429E+01  0.15035661502E+02  0.29759381261E+02  0.00000000000E+00 0. -1.
         22    1    3    3    0    0 -0.11776636647E+03 -0.11287826859E+02  0.28288877654E+03  0.30663070949E+03  0.00000000000E+00 0. -1.
</event>
<event>
 7    1  0.6188600E-006  0.1072603E+03  0.7818608E-02  0.1370329E+00
          2   -1    0    0  502    0  0.00000000000E+00  0.00000000000E+00  0.88886061488E+03  0.88886061488E+03  0.00000000000E+00 0. -1.
          1   -1    0    0  501    0 -0.00000000000E+00 -0.00000000000E+00 -0.11511770973E+04  0.11511770973E+04  0.00000000000E+00 0. -1.
         25    2    1    2    0    0  0.51007847367E+02 -0.59571696510E+02  0.16124264037E+03  0.21857360989E+03  0.12499858537E+03 0.  0.
          2    1    1    2  501    0 -0.92689057667E+02  0.54863739667E+02 -0.11192947112E+04  0.11244651803E+04  0.00000000000E+00 0. -1.
          1    1    1    2  502    0  0.41681210300E+02  0.47079568426E+01  0.69573558842E+03  0.69699892191E+03  0.00000000000E+00 0. -1.
         22    1    3    3    0    0  0.23645389751E+02  0.22986427906E+02 -0.25976988400E+01  0.33079122776E+02  0.00000000000E+00 0.  1.
         22    1    3    3    0    0  0.27362457616E+02 -0.82558124416E+02  0.16384033921E+03  0.18549448711E+03  0.00000000000E+00 0.  1.
</event>
<event>
 7    1  0.7186728E-006  0.5322067E+02  0.7818608E-02  0.1525432E+00
          2   -1    0    0  502    0  0.00000000000E+00  0.00000000000E+00  0.16579800598E+04  0.16579800598E+04  0.00000000000E+00 0. -1.
          1   -1    0    0  501    0 -0.00000000000E+00 -0.00000000000E+00 -0.64225308125E+03  0.64225308125E+03  0.00000000000E+00 0. -1.
         25    2    1    2    0    0 -0.37574593758E+02  0.68291835239E+02 -0.24924987714E+03  0.28953062346E+03  0.12500742302E+03 0.  0.
          2    1    1    2  501    0  0.49037254219E+01 -0.26327528237E+02 -0.37194955690E+03  0.37291240009E+03  0.00000000000E+00 0. -1.
          1    1    1    2  502    0  0.32670868336E+02 -0.41964307002E+02  0.16369264126E+04  0.16377901175E+04  0.00000000000E+00 0. -1.
         22    1    3    3    0    0 -0.12159084782E+02 -0.19738669979E+02 -0.15982925403E+03  0.16150185411E+03  0.00000000000E+00 0.  1.
         22    1    3    3    0    0 -0.25415508976E+02  0.88030505218E+02 -0.89420623113E+02  0.12802876936E+03  0.00000000000E+00 0.  1.
</event>
<event>
 7    1  0.6188600E-006  0.7149376E+02  0.7818608E-02  0.1385971E+00
          2   -1    0    0  502    0  0.00000000000E+00  0.00000000000E+00  0.25969613479E+04  0.25969613479E+04  0.00000000000E+00 0. -1.
          1   -1    0    0  501    0 -0.00000000000E+00 -0.00000000000E+00 -0.94413575417E+03  0.94413575417E+03  0.00000000000E+00 0. -1.
         25    2    1    2    0    0 -0.82411316238E+02  0.87706962991E+02  0.12130744249E+04  0.12254226509E+04  0.12500790614E+03 0.  0.
          2    1    1    2  501    0  0.41379847334E+02 -0.36797190082E+02 -0.93636740677E+03  0.93800332911E+03  0.00000000000E+00 0. -1.
          1    1    1    2  502    0  0.41031468904E+02 -0.50909772909E+02  0.13761185756E+04  0.13776711220E+04  0.00000000000E+00 0. -1.
         22    1    3    3    0    0 -0.60261921102E+02 -0.22292733184E+00  0.21647034408E+03  0.22470193301E+03  0.00000000000E+00 0.  1.
         22    1    3    3    0    0 -0.22149395136E+02  0.87929890323E+02  0.99660408079E+03  0.10007207179E+04  0.00000000000E+00 0.  1.
</event>
<event>
 7    1  0.6188600E-006  0.2083106E+03  0.7818608E-02  0.1358775E+00
          2   -1    0    0  502    0  0.00000000000E+00  0.00000000000E+00  0.49717664208E+03  0.49717664208E+03  0.00000000000E+00 0. -1.
          1   -1    0    0  501    0 -0.00000000000E+00 -0.00000000000E+00 -0.12189207351E+04  0.12189207351E+04  0.00000000000E+00 0. -1.
         25    2    1    2    0    0 -0.58454918472E+02  0.19710729503E+03 -0.67778807766E+03  0.71922871257E+03  0.12499999809E+03 0.  0.
          2    1    1    2  501    0  0.82162837126E+02 -0.19519653815E+03 -0.49854197832E+03  0.54166089434E+03  0.00000000000E+00 0. -1.
          1    1    1    2  502    0 -0.23707918654E+02 -0.19107568803E+01  0.45458596295E+03  0.45520777027E+03  0.00000000000E+00 0. -1.
         22    1    3    3    0    0 -0.25283632038E+02 -0.87053148262E+01 -0.39020596808E+02  0.47303821521E+02  0.00000000000E+00 0.  1.
         22    1    3    3    0    0 -0.33171286434E+02  0.20581260986E+03 -0.63876748085E+03  0.67192489105E+03  0.00000000000E+00 0.  1.
</event>
<event>
 7    1  0.6188600E-006  0.7451282E+02  0.7818608E-02  0.1453563E+00
          2   -1    0    0  502    0  0.00000000000E+00  0.00000000000E+00  0.35886171655E+03  0.35886171655E+03  0.00000000000E+00 0. -1.
          1   -1    0    0  501    0 -0.00000000000E+00 -0.00000000000E+00 -0.95458667404E+03  0.95458667404E+03  0.00000000000E+00 0. -1.
         25    2    1    2    0    0  0.55164237068E+02 -0.46539399660E+02 -0.91816897781E+02  0.17106849848E+03  0.12500031873E+03 0.  0.
          2    1    1    2  501    0  0.16947027056E+02  0.26645196673E+02 -0.81845312321E+03  0.81906207525E+03  0.00000000000E+00 0. -1.
          1    1    1    2  502    0 -0.72111264124E+02  0.19894202987E+02  0.31454506350E+03  0.32331781686E+03  0.00000000000E+00 0. -1.
         22    1    3    3    0    0  0.70877177190E+01  0.40514703941E+02 -0.10094788406E+02  0.42350699296E+02  0.00000000000E+00 0. -1.
         22    1    3    3    0    0  0.48076519349E+02 -0.87054103601E+02 -0.81722109375E+02  0.12871779919E+03  0.00000000000E+00 0. -1.
</event>
<event>
 7    1  0.6188600E-006  0.2315293E+03  0.7818608E-02  0.1286298E+00
          2   -1    0    0  502    0  0.00000000000E+00  0.00000000000E+00  0.32462023932E+03  0.32462023932E+03  0.00000000000E+00 0. -1.
          1   -1    0    0  501    0 -0.00000000000E+00 -0.00000000000E+00 -0.75051088411E+03  0.75051088411E+03  0.00000000000E+00 0. -1.
         25    2    1    2    0    0  0.12428439807E+03  0.18791604470E+03 -0.16775431313E+03  0.30745144177E+03  0.12500331203E+03 0.  0.
          2    1    1    2  501    0 -0.31195037108E+02  0.26305695363E+02 -0.45827548129E+03  0.46008861831E+03  0.00000000000E+00 0. -1.
          1    1    1    2  502    0 -0.93089360964E+02 -0.21422174006E+03  0.20013914962E+03  0.30759106334E+03  0.00000000000E+00 0. -1.
         22    1    3    3    0    0  0.60999301709E+02  0.17318761966E+03 -0.85272671750E+02  0.20245072230E+03  0.00000000000E+00 0. -1.
         22    1    3    3    0    0  0.63285096363E+02  0.14728425036E+02 -0.82481641376E+02  0.10500071947E+03  0.00000000000E+00 0. -1.
</event>
<event>
 7    1  0.6188600E-006  0.1160202E+03  0.7818608E-02  0.1293710E+00
          2   -1    0    0  502    0  0.00000000000E+00  0.00000000000E+00  0.18066367628E+04  0.18066367628E+04  0.00000000000E+00 0. -1.
          1   -1    0    0  501    0 -0.00000000000E+00 -0.00000000000E+00 -0.25830006257E+03  0.25830006257E+03  0.00000000000E+00 0. -1.
         25    2    1    2    0    0 -0.17057822419E+03 -0.77861445184E+02  0.54786000137E+03  0.59239702356E+03  0.12499726884E+03 0.  0.
          2    1    1    2  501    0  0.96402584516E+02  0.61443018231E+02 -0.22093968583E+03  0.24876303496E+03  0.00000000000E+00 0. -1.
          1    1    1    2  502    0  0.74175639670E+02  0.16418426953E+02  0.12214163847E+04  0.12237767669E+04  0.00000000000E+00 0. -1.
         22    1    3    3    0    0  0.18655567746E+02 -0.53352183227E+01  0.83791460375E+02  0.86008741382E+02  0.00000000000E+00 0.  1.
         22    1    3    3    0    0 -0.18923379193E+03 -0.72526226861E+02  0.46406854099E+03  0.50638828218E+03  0.00000000000E+00 0.  1.
</event>
<event>
 7    1  0.6188600E-006  0.2339651E+03  0.7818608E-02  0.1160233E+00
          2   -1    0    0  502    0  0.00000000000E+00  0.00000000000E+00  0.58299665498E+03  0.58299665498E+03  0.00000000000E+00 0. -1.
          1   -1    0    0  501    0 -0.00000000000E+00 -0.00000000000E+00 -0.75876244412E+03  0.75876244412E+03  0.00000000000E+00 0. -1.
         25    2    1    2    0    0  0.44638191518E+02  0.63689140875E+02  0.78006807398E+02  0.16661296343E+03  0.12500377104E+03 0.  0.
          2    1    1    2  501    0 -0.19736403062E+03  0.12564673587E+03 -0.66078429236E+03  0.70098184274E+03  0.00000000000E+00 0. -1.
          1    1    1    2  502    0  0.15272583911E+03 -0.18933587674E+03  0.40701169583E+03  0.47416429293E+03  0.00000000000E+00 0. -1.
         22    1    3    3    0    0 -0.14721584857E+02  0.80773569464E+02  0.61769201532E+02  0.10274496991E+03  0.00000000000E+00 0. -1.
         22    1    3    3    0    0  0.59359776376E+02 -0.17084428589E+02  0.16237605866E+02  0.63867993516E+02  0.00000000000E+00 0. -1.
</event>
<event>
 7    1  0.6188600E-006  0.1457983E+03  0.7818608E-02  0.1319552E+00
          2   -1    0    0  502    0  0.00000000000E+00  0.00000000000E+00  0.11696980835E+04  0.11696980835E+04  0.00000000000E+00 0. -1.
          1   -1    0    0  501    0 -0.00000000000E+00 -0.00000000000E+00 -0.11624479728E+03  0.11624479728E+03  0.00000000000E+00 0. -1.
         25    2    1    2    0    0  0.18515721439E+03  0.23790134547E+02  0.24284404618E+03  0.33082878259E+03  0.12500115234E+03 0.  0.
          2    1    1    2  501    0 -0.47506348466E+02  0.48887842750E+01 -0.58037786750E+02  0.75160748048E+02  0.00000000000E+00 0. -1.
          1    1    1    2  502    0 -0.13765086592E+03 -0.28678918822E+02  0.86864702680E+03  0.87995335015E+03  0.00000000000E+00 0. -1.
         22    1    3    3    0    0  0.10991889343E+03  0.68278516857E+02  0.18592678134E+03  0.22652348005E+03  0.00000000000E+00 0. -1.
         22    1    3    3    0    0  0.75238320959E+02 -0.44488382310E+02  0.56917264837E+02  0.10430530254E+03  0.00000000000E+00 0. -1.
</event>
<event>
 7    1  0.6188600E-006  0.8184567E+02  0.7818608E-02  0.1448364E+00
          2   -1    0    0  502    0  0.00000000000E+00  0.00000000000E+00  0.13093368725E+04  0.13093368725E+04  0.00000000000E+00 0. -1.
          1   -1    0    0  501    0 -0.00000000000E+00 -0.00000000000E+00 -0.33277271551E+03  0.33277271551E+03  0.00000000000E+00 0. -1.
         25    2    1    2    0    0  0.37534088122E+02 -0.36203066653E+02  0.11904422791E+04  0.11981229479E+04  0.12500523429E+03 0.  0.
          2    1    1    2  501    0 -0.57559545497E+02  0.58365726330E+02 -0.32176421008E+03  0.33204196448E+03  0.00000000000E+00 0. -1.
          1    1    1    2  502    0  0.20025457374E+02 -0.22162659678E+02  0.10788608795E+03  0.11194467562E+03  0.00000000000E+00 0. -1.
         22    1    3    3    0    0 -0.20909535544E+02  0.88197669405E+01  0.45881594589E+02  0.51187085164E+02  0.00000000000E+00 0. -1.
         22    1    3    3    0    0  0.58443623666E+02 -0.45022833593E+02  0.11445606845E+04  0.11469358628E+04  0.00000000000E+00 0. -1.
</event>
<event>
 7    1  0.6188600E-006  0.1264095E+03  0.7818608E-02  0.1304797E+00
          2   -1    0    0  502    0  0.00000000000E+00  0.00000000000E+00  0.30402644478E+04  0.30402644478E+04  0.00000000000E+00 0. -1.
          1   -1    0    0  501    0 -0.00000000000E+00 -0.00000000000E+00 -0.29540292372E+02  0.29540292372E+02  0.00000000000E+00 0. -1.
         25    2    1    2    0    0  0.51767949211E+02  0.15163951990E+03  0.14882424047E+04  0.15020535715E+04  0.12500004759E+03 0.  0.
          2    1    1    2  501    0  0.45190459559E+01 -0.12346285717E+03  0.15223162681E+03  0.19605603046E+03  0.00000000000E+00 0. -1.
          1    1    1    2  502    0 -0.56286995167E+02 -0.28176662730E+02  0.13702501239E+04  0.13716951382E+04  0.00000000000E+00 0. -1.
         22    1    3    3    0    0  0.13327710737E+02 -0.43549606453E+01  0.16871226505E+02  0.21936997048E+02  0.00000000000E+00 0.  1.
         22    1    3    3    0    0  0.38440238475E+02  0.15599448055E+03  0.14713711782E+04  0.14801165745E+04  0.00000000000E+00 0.  1.
</event>
<event>
 7    1  0.6188600E-006  0.7469650E+02  0.7818608E-02  0.1345505E+00
          2   -1    0    0  502    0  0.00000000000E+00  0.00000000000E+00  0.27935304253E+04  0.27935304253E+04  0.00000000000E+00 0. -1.
          1   -1    0    0  501    0 -0.00000000000E+00 -0.00000000000E+00 -0.35116134260E+03  0.35116134260E+03  0.00000000000E+00 0. -1.
         25    2    1    2    0    0 -0.37275137882E+02 -0.13394195994E+03  0.43456881456E+02  0.19194481381E+03  0.12499770584E+03 0.  0.
          2    1    1    2  501    0 -0.65910845723E+01  0.73961013223E+02 -0.27141346897E+03  0.28138753528E+03  0.00000000000E+00 0. -1.
          1    1    1    2  502    0  0.43866222454E+02  0.59980946721E+02  0.26703256702E+04  0.26713594188E+04  0.00000000000E+00 0. -1.
         22    1    3    3    0    0  0.11044252153E+02 -0.13764997632E+03  0.37676575496E+02  0.14313984710E+03  0.00000000000E+00 0.  1.
         22    1    3    3    0    0 -0.48319390035E+02  0.37080163735E+01  0.57803059606E+01  0.48804966713E+02  0.00000000000E+00 0.  1.
</event>
<event>
 7    1  0.6188600E-006  0.1647382E+03  0.7818608E-02  0.1404387E+00
          2   -1    0    0  502    0  0.00000000000E+00  0.00000000000E+00  0.15491900470E+04  0.15491900470E+04  0.00000000000E+00 0. -1.
          1   -1    0    0  501    0 -0.00000000000E+00 -0.00000000000E+00 -0.82598461066E+03  0.82598461066E+03  0.00000000000E+00 0. -1.
         25    2    1    2    0    0 -0.35280333926E+02  0.16426900257E+03  0.35738478537E+03  0.41422035561E+03  0.12500244404E+03 0.  0.
          2    1    1    2  501    0  0.14532127646E+02 -0.16405104404E+03 -0.78897054682E+03  0.80597670658E+03  0.00000000000E+00 0. -1.
          1    1    1    2  502    0  0.20748206280E+02 -0.21795853005E+00  0.11547911978E+04  0.11549775955E+04  0.00000000000E+00 0. -1.
         22    1    3    3    0    0 -0.75157641496E+02  0.69235575881E+02  0.21907079306E+03  0.24173176956E+03  0.00000000000E+00 0.  1.
         22    1    3    3    0    0  0.39877307570E+02  0.95033426691E+02  0.13831399231E+03  0.17248858605E+03  0.00000000000E+00 0.  1.
</event>
<event>
 7    1  0.6188600E-006  0.6195211E+02  0.7818608E-02  0.1393309E+00
          2   -1    0    0  502    0  0.00000000000E+00  0.00000000000E+00  0.13703695915E+03  0.13703695915E+03  0.00000000000E+00 0. -1.
          1   -1    0    0  501    0 -0.00000000000E+00 -0.00000000000E+00 -0.62302894380E+03  0.62302894380E+03  0.00000000000E+00 0. -1.
         25    2    1    2    0    0 -0.41860975485E+02  0.58228616850E+02 -0.25509455359E+03  0.29298521456E+03  0.12499676633E+03 0.  0.
          2    1    1    2  501    0  0.60223267522E+02  0.15149727811E+01 -0.33786382537E+03  0.34319251389E+03  0.00000000000E+00 0. -1.
          1    1    1    2  502    0 -0.18362292037E+02 -0.59743589631E+02  0.10696639431E+03  0.12388817450E+03  0.00000000000E+00 0. -1.
         22    1    3    3    0    0 -0.78055591316E+02  0.37649178721E+02 -0.22639933096E+03  0.24241863182E+03  0.00000000000E+00 0. -1.
         22    1    3    3    0    0  0.36194615831E+02  0.20579438129E+02 -0.28695222630E+02  0.50566582746E+02  0.00000000000E+00 0. -1.
</event>
<event>
 7    1  0.6188600E-006  0.6439941E+02  0.7818608E-02  0.1394019E+00
          2   -1    0    0  502    0  0.00000000000E+00  0.00000000000E+00  0.63256504559E+03  0.63256504559E+03  0.00000000000E+00 0. -1.
          1   -1    0    0  501    0 -0.00000000000E+00 -0.00000000000E+00 -0.27680693684E+03  0.27680693684E+03  0.00000000000E+00 0. -1.
         25    2    1    2    0    0 -0.45709169685E+02 -0.25291276619E+02  0.19651126756E+03  0.23868534166E+03  0.12500014872E+03 0.  0.
          2    1    1    2  501    0  0.57133294213E+02 -0.31189756164E+02 -0.24952379736E+03  0.25787427100E+03  0.00000000000E+00 0. -1.
          1    1    1    2  502    0 -0.11424124528E+02  0.56481032783E+02  0.40877063855E+03  0.41281236976E+03  0.00000000000E+00 0. -1.
         22    1    3    3    0    0 -0.83012772671E+02 -0.36885471869E+02  0.10295061018E+03  0.13729707425E+03  0.00000000000E+00 0.  1.
         22    1    3    3    0    0  0.37303602986E+02  0.11594195251E+02  0.93560657374E+02  0.10138826741E+03  0.00000000000E+00 0.  1.
</event>
<event>
 7    1  0.6188600E-006  0.8787513E+02  0.7818608E-02  0.1316611E+00
          2   -1    0    0  502    0  0.00000000000E+00  0.00000000000E+00  0.39066243432E+03  0.39066243432E+03  0.00000000000E+00 0. -1.
          1   -1    0    0  501    0 -0.00000000000E+00 -0.00000000000E+00 -0.95937728979E+03  0.95937728979E+03  0.00000000000E+00 0. -1.
         25    2    1    2    0    0  0.12953538444E+03  0.32558017035E+02 -0.25231109528E+03  0.31164920512E+03  0.12499959183E+03 0.  0.
          2    1    1    2  501    0 -0.55192169683E+02 -0.65593179538E+02 -0.67004815086E+03  0.67550955972E+03  0.00000000000E+00 0. -1.
          1    1    1    2  502    0 -0.74343214754E+02  0.33035162504E+02  0.35364439067E+03  0.36288095926E+03  0.00000000000E+00 0. -1.
         22    1    3    3    0    0  0.21181623438E+01 -0.64276504890E+01  0.13056625856E+02  0.14706351732E+02  0.00000000000E+00 0.  1.
         22    1    3    3    0    0  0.12741722209E+03  0.38985667524E+02 -0.26536772114E+03  0.29694285339E+03  0.00000000000E+00 0.  1.
</event>
<event>
 7    1  0.6188600E-006  0.6595715E+02  0.7818608E-02  0.1507192E+00
          2   -1    0    0  502    0  0.00000000000E+00  0.00000000000E+00  0.78665450940E+03  0.78665450940E+03  0.00000000000E+00 0. -1.
          1   -1    0    0  501    0 -0.00000000000E+00 -0.00000000000E+00 -0.31985706826E+02  0.31985706826E+02  0.00000000000E+00 0. -1.
         25    2    1    2    0    0 -0.80338220243E+02  0.91197104874E+01  0.34483399013E+03  0.37559888681E+03  0.12500657691E+03 0.  0.
          2    1    1    2  501    0  0.63168083307E+02  0.82544135719E+01  0.46461783553E+02  0.78848204944E+02  0.00000000000E+00 0. -1.
          1    1    1    2  502    0  0.17170136937E+02 -0.17374124059E+02  0.36337302889E+03  0.36419312447E+03  0.00000000000E+00 0. -1.
         22    1    3    3    0    0  0.14028622057E+02 -0.39559913852E+02  0.11505024872E+03  0.12246774576E+03  0.00000000000E+00 0. -1.
         22    1    3    3    0    0 -0.94366842300E+02  0.48679624340E+02  0.22978374141E+03  0.25313114105E+03  0.00000000000E+00 0. -1.
</event>
<event>
 7    1  0.6188600E-006  0.3668575E+02  0.7818608E-02  0.1559007E+00
          2   -1    0    0  502    0  0.00000000000E+00  0.00000000000E+00  0.37624760508E+04  0.37624760508E+04  0.00000000000E+00 0. -1.
          1   -1    0    0  501    0 -0.00000000000E+00 -0.00000000000E+00 -0.25610247197E+02  0.25610247197E+02  0.00000000000E+00 0. -1.
         25    2    1    2    0    0  0.17033572608E+02 -0.85297990260E+01  0.11245644877E+04  0.11316507189E+04  0.12500064966E+03 0.  0.
          2    1    1    2  501    0  0.15840353767E+02  0.26929994181E+02 -0.10804900734E+02  0.33058845624E+02  0.00000000000E+00 0. -1.
          1    1    1    2  502    0 -0.32873926375E+02 -0.18400195155E+02  0.26231062166E+04  0.26233767335E+04  0.00000000000E+00 0. -1.
         22    1    3    3    0    0  0.26761678676E+02  0.72223065394E+01  0.11024975423E+04  0.11028459457E+04  0.00000000000E+00 0.  1.
         22    1    3    3    0    0 -0.97281060688E+01 -0.15752105565E+02  0.22066945403E+02  0.28804773161E+02  0.00000000000E+00 0.  1.
</event>
<event>
 7    1  0.6188600E-006  0.1209558E+03  0.7818608E-02  0.1324191E+00
          2   -1    0    0  502    0  0.00000000000E+00  0.00000000000E+00  0.11534077411E+04  0.11534077411E+04  0.00000000000E+00 0. -1.
          1   -1    0    0  501    0 -0.00000000000E+00 -0.00000000000E+00 -0.14476182363E+03  0.14476182363E+03  0.00000000000E+00 0. -1.
         25    2    1    2    0    0  0.12895837331E+03 -0.35478985747E+02  0.20360897382E+03  0.27380737665E+03  0.12499937923E+03 0.  0.
          2    1    1    2  501    0 -0.11913208432E+03 -0.18875274722E+02 -0.75366256818E+02  0.14222799365E+03  0.00000000000E+00 0. -1.
          1    1    1    2  502    0 -0.98262889920E+01  0.54354260470E+02  0.88040320048E+03  0.88213419444E+03  0.00000000000E+00 0. -1.
         22    1    3    3    0    0  0.19940195341E+02 -0.65738538072E+02  0.61873983928E+02  0.92452997059E+02  0.00000000000E+00 0. -1.
         22    1    3    3    0    0  0.10901817797E+03  0.30259552325E+02  0.14173498989E+03  0.18135437959E+03  0.00000000000E+00 0. -1.
</event>
<event>
 7    1  0.7342676E-006  0.8020891E+02  0.7818608E-02  0.1394621E+00
          2   -1    0    0  502    0  0.00000000000E+00  0.00000000000E+00  0.74987680243E+03  0.74987680243E+03  0.00000000000E+00 0. -1.
          1   -1    0    0  501    0 -0.00000000000E+00 -0.00000000000E+00 -0.14420604345E+04  0.14420604345E+04  0.00000000000E+00 0. -1.
         25    2    1    2    0    0 -0.39814793424E+02 -0.89684702531E+02 -0.50012626890E+03  0.52476648279E+03  0.12500005190E+03 0.  0.
          2    1    1    2  501    0  0.45017471103E+02  0.96735204682E+01 -0.92686175268E+03  0.92800477277E+03  0.00000000000E+00 0. -1.
          1    1    1    2  502    0 -0.52026776790E+01  0.80011182063E+02  0.73480438953E+03  0.73916598135E+03  0.00000000000E+00 0. -1.
         22    1    3    3    0    0 -0.69613253070E+02 -0.27125949676E+02 -0.36868364795E+03  0.37617742412E+03  0.00000000000E+00 0.  1.
         22    1    3    3    0    0  0.29798459646E+02 -0.62558752855E+02 -0.13144262095E+03  0.14858905868E+03  0.00000000000E+00 0.  1.
</event>
<event>
 7    1  0.6188600E-006  0.7280034E+02  0.7818608E-02  0.1449381E+00
          2   -1    0    0  502    0  0.00000000000E+00  0.00000000000E+00  0.52847248796E+03  0.52847248796E+03  0.00000000000E+00 0. -1.
          1   -1    0    0  501    0 -0.00000000000E+00 -0.00000000000E+00 -0.12631850994E+03  0.12631850994E+03  0.00000000000E+00 0. -1.
         25    2    1    2    0    0 -0.54199006656E+02  0.42077041361E+02  0.24405107742E+03  0.28265099866E+03  0.12499059534E+03 0.  0.
          2    1    1    2  501    0  0.21053886132E+02  0.25838247295E+02 -0.98843001464E+02  0.10431116950E+03  0.00000000000E+00 0. -1.
          1    1    1    2  502    0  0.33145120524E+02 -0.67915288656E+02  0.25694590206E+03  0.26782882973E+03  0.00000000000E+00 0. -1.
         22    1    3    3    0    0 -0.85682797599E+02 -0.37461066635E+01  0.12955994114E+03  0.15537488043E+03  0.00000000000E+00 0. -1.
         22    1    3    3    0    0  0.31483790942E+02  0.45823148024E+02  0.11449113628E+03  0.12727611823E+03  0.00000000000E+00 0. -1.
</event>
<event>
 7    1  0.6188600E-006  0.6402845E+02  0.7818608E-02  0.1529176E+00
          2   -1    0    0  502    0  0.00000000000E+00  0.00000000000E+00  0.50444713484E+02  0.50444713484E+02  0.00000000000E+00 0. -1.
          1   -1    0    0  501    0 -0.00000000000E+00 -0.00000000000E+00 -0.18032664955E+04  0.18032664955E+04  0.00000000000E+00 0. -1.
         25    2    1    2    0    0 -0.33680324065E+02 -0.43778596575E+02 -0.31088873390E+03  0.33959880621E+03  0.12499845825E+03 0.  0.
          2    1    1    2  501    0 -0.20362103261E+02  0.75444681525E+01 -0.14485488495E+04  0.14487116013E+04  0.00000000000E+00 0. -1.
          1    1    1    2  502    0  0.54042427326E+02  0.36234128423E+02  0.66158013631E+01  0.65400801536E+02  0.00000000000E+00 0. -1.
         22    1    3    3    0    0  0.17949606050E+02  0.51690375559E+01 -0.23438104147E+03  0.23512417975E+03  0.00000000000E+00 0. -1.
         22    1    3    3    0    0 -0.51629930115E+02 -0.48947634131E+02 -0.76507692435E+02  0.10447462645E+03  0.00000000000E+00 0. -1.
</event>
<event>
 7    1  0.6188600E-006  0.1407436E+03  0.7818608E-02  0.1217538E+00
          2   -1    0    0  502    0  0.00000000000E+00  0.00000000000E+00  0.12143192221E+03  0.12143192221E+03  0.00000000000E+00 0. -1.
          1   -1    0    0  501    0 -0.00000000000E+00 -0.00000000000E+00 -0.12779223122E+04  0.12779223122E+04  0.00000000000E+00 0. -1.
         25    2    1    2    0    0 -0.85346376527E+02 -0.15640817492E+03 -0.49055001764E+03  0.53666551943E+03  0.12499215482E+03 0.  0.
          2    1    1    2  501    0  0.13834504605E+03  0.34210457418E+02 -0.70863058110E+03  0.72281879308E+03  0.00000000000E+00 0. -1.
          1    1    1    2  502    0 -0.52998669526E+02  0.12219771750E+03  0.42690208730E+02  0.13986992191E+03  0.00000000000E+00 0. -1.
         22    1    3    3    0    0  0.30405128484E+02 -0.35585626179E+02 -0.71634406021E+02  0.85570419857E+02  0.00000000000E+00 0.  1.
         22    1    3    3    0    0 -0.11575150501E+03 -0.12082254874E+03 -0.41891561162E+03  0.45109509957E+03  0.00000000000E+00 0.  1.
</event>
<event>
 7    1  0.6188600E-006  0.6409204E+02  0.7818608E-02  0.1391412E+00
          2   -1    0    0  502    0  0.00000000000E+00  0.00000000000E+00  0.87529856611E+03  0.87529856611E+03  0.00000000000E+00 0. -1.
          1   -1    0    0  501    0 -0.00000000000E+00 -0.00000000000E+00 -0.12470488979E+04  0.12470488979E+04  0.00000000000E+00 0. -1.
         25    2    1    2    0    0  0.27784283371E+02  0.23292980708E+02  0.26178686269E+03  0.29235481876E+03  0.12499779689E+03 0.  0.
          2    1    1    2  501    0  0.38875999025E+02 -0.44542790348E+02 -0.12290061881E+04  0.12304274110E+04  0.00000000000E+00 0. -1.
          1    1    1    2  502    0 -0.66660282396E+02  0.21249809640E+02  0.59546899364E+03  0.59956523418E+03  0.00000000000E+00 0. -1.
         22    1    3    3    0    0 -0.22673349612E+02  0.60798829371E+02  0.16077186247E+03  0.17337292233E+03  0.00000000000E+00 0.  1.
         22    1    3    3    0    0  0.50457632983E+02 -0.37505848663E+02  0.10101500022E+03  0.11898189644E+03  0.00000000000E+00 0.  1.
</event>
<event>
 7    1  0.6188600E-006  0.9188000E+02  0.7818608E-02  0.1316213E+00
          2   -1    0    0  502    0  0.00000000000E+00  0.00000000000E+00  0.20493745682E+04  0.20493745682E+04  0.00000000000E+00 0. -1.
          1   -1    0    0  501    0 -0.00000000000E+00 -0.00000000000E+00 -0.51830923478E+02  0.51830923478E+02  0.00000000000E+00 0. -1.
         25    2    1    2    0    0 -0.11168013078E+03 -0.11509455387E+03  0.49834646461E+03  0.53823131846E+03  0.12499818173E+03 0.  0.
          2    1    1    2  501    0  0.67503606291E+02  0.50707261415E+02  0.26901911054E+02  0.88609683674E+02  0.00000000000E+00 0. -1.
          1    1    1    2  502    0  0.44176524486E+02  0.64387292459E+02  0.14722952690E+04  0.14743644895E+04  0.00000000000E+00 0. -1.
         22    1    3    3    0    0 -0.42976644618E+02 -0.10535330045E+03  0.41218901960E+03  0.42760507221E+03  0.00000000000E+00 0.  1.
         22    1    3    3    0    0 -0.68703486159E+02 -0.97412534287E+01  0.86157445006E+02  0.11062624625E+03  0.00000000000E+00 0.  1.
</event>
<event>
 7    1  0.6188600E-006  0.1908873E+03  0.7818608E-02  0.1261128E+00
          2   -1    0    0  502    0  0.00000000000E+00  0.00000000000E+00  0.10717766988E+03  0.10717766988E+03  0.00000000000E+00 0. -1.
          1   -1    0    0  501    0 -0.00000000000E+00 -0.00000000000E+00 -0.16469229121E+04  0.16469229121E+04  0.00000000000E+00 0. -1.
         25    2    1    2    0    0  0.14305312220E+03 -0.11236258003E+03 -0.51616366780E+02  0.22666922348E+03  0.12500056957E+03 0.  0.
          2    1    1    2  501    0  0.40214411947E+02 -0.48549588280E+02 -0.68995010797E+03  0.69282422947E+03  0.00000000000E+00 0. -1.
          1    1    1    2  502    0 -0.18326753415E+03  0.16091216831E+03 -0.79817876745E+03  0.83460712901E+03  0.00000000000E+00 0. -1.
         22    1    3    3    0    0  0.10784313334E+03 -0.10478711787E+03  0.14822261214E+02  0.15109659463E+03  0.00000000000E+00 0. -1.
         22    1    3    3    0    0  0.35209988865E+02 -0.75754621547E+01 -0.66438627994E+02  0.75572628858E+02  0.00000000000E+00 0. -1.
</event>
<event>
 7    1  0.6188600E-006  0.5316355E+02  0.7818608E-02  0.1446322E+00
          2   -1    0    0  502    0  0.00000000000E+00  0.00000000000E+00  0.82526557588E+03  0.82526557588E+03  0.00000000000E+00 0. -1.
          1   -1    0    0  501    0 -0.00000000000E+00 -0.00000000000E+00 -0.17013465214E+03  0.17013465214E+03  0.00000000000E+00 0. -1.
         25    2    1    2    0    0 -0.84855783202E+02  0.34821146504E+02 -0.54375387203E+02  0.16434099272E+03  0.12505304062E+03 0.  0.
          2    1    1    2  501    0  0.31969675741E+02 -0.34019765733E+02 -0.50755180802E+02  0.68960082699E+02  0.00000000000E+00 0. -1.
          1    1    1    2  502    0  0.52886107461E+02 -0.80138077054E+00  0.76026149174E+03  0.76209915260E+03  0.00000000000E+00 0. -1.
         22    1    3    3    0    0 -0.93363505432E+02  0.97559948609E+01  0.10322581139E+02  0.94437700436E+02  0.00000000000E+00 0.  1.
         22    1    3    3    0    0  0.85077222307E+01  0.25065151643E+02 -0.64697968342E+02  0.69903292283E+02  0.00000000000E+00 0.  1.
</event>
<event>
 7    1  0.6188600E-006  0.8957942E+02  0.7818608E-02  0.1389388E+00
          2   -1    0    0  502    0  0.00000000000E+00  0.00000000000E+00  0.76142924366E+03  0.76142924366E+03  0.00000000000E+00 0. -1.
          1   -1    0    0  501    0 -0.00000000000E+00 -0.00000000000E+00 -0.60612368987E+03  0.60612368987E+03  0.00000000000E+00 0. -1.
         25    2    1    2    0    0 -0.46247796307E+02 -0.22874249677E+02  0.34223696479E+03  0.36798568334E+03  0.12500093244E+03 0.  0.
          2    1    1    2  501    0  0.66132693120E+02  0.60993128947E+02 -0.58868500686E+03  0.59551971603E+03  0.00000000000E+00 0. -1.
          1    1    1    2  502    0 -0.19884896813E+02 -0.38118879270E+02  0.40175359586E+03  0.40404753416E+03  0.00000000000E+00 0. -1.
         22    1    3    3    0    0 -0.52160690317E+02 -0.42339955974E+02  0.34105344975E+03  0.34760734324E+03  0.00000000000E+00 0.  1.
         22    1    3    3    0    0  0.59128940100E+01  0.19465706297E+02  0.11835150375E+01  0.20378340096E+02  0.00000000000E+00 0.  1.
</event>
<event>
 7    1  0.6188600E-006  0.1022602E+03  0.7818608E-02  0.1393103E+00
          2   -1    0    0  502    0  0.00000000000E+00  0.00000000000E+00  0.22119822610E+03  0.22119822610E+03  0.00000000000E+00 0. -1.
          1   -1    0    0  501    0 -0.00000000000E+00 -0.00000000000E+00 -0.25100988572E+04  0.25100988572E+04  0.00000000000E+00 0. -1.
         25    2    1    2    0    0 -0.13239680260E+03  0.19471731231E+01 -0.34769421666E+03  0.39249415515E+03  0.12501075436E+03 0.  0.
          2    1    1    2  501    0  0.99707994746E+02  0.14417998202E+02 -0.21371273789E+04  0.21395006419E+04  0.00000000000E+00 0. -1.
          1    1    1    2  502    0  0.32688807850E+02 -0.16365171325E+02  0.19592096448E+03  0.19930228627E+03  0.00000000000E+00 0. -1.
         22    1    3    3    0    0 -0.77651180780E+02  0.10445767219E+02 -0.32205304823E+03  0.33144680690E+03  0.00000000000E+00 0. -1.
         22    1    3    3    0    0 -0.54745621816E+02 -0.84985940962E+01 -0.25641168430E+02  0.61047348248E+02  0.00000000000E+00 0. -1.
</event>
<event>
 7    1  0.6188600E-006  0.3943452E+02  0.7818608E-02  0.1596130E+00
          2   -1    0    0  502    0  0.00000000000E+00  0.00000000000E+00  0.17672152850E+02  0.17672152850E+02  0.00000000000E+00 0. -1.
          1   -1    0    0  501    0 -0.00000000000E+00 -0.00000000000E+00 -0.11237458746E+04  0.11237458746E+04  0.00000000000E+00 0. -1.
         25    2    1    2    0    0  0.17652529522E+02  0.55240879637E+01 -0.70523943338E+03  0.71647127257E+03  0.12500519462E+03 0.  0.
          2    1    1    2  501    0  0.22800739621E+02 -0.36703340529E+01 -0.37750704181E+03  0.37821278627E+03  0.00000000000E+00 0. -1.
          1    1    1    2  502    0 -0.40453269143E+02 -0.18537539108E+01 -0.23327246514E+02  0.46733968565E+02  0.00000000000E+00 0. -1.
         22    1    3    3    0    0 -0.90405282063E+01 -0.29081995912E+02 -0.61938146703E+03  0.62012974073E+03  0.00000000000E+00 0.  1.
         22    1    3    3    0    0  0.26693057728E+02  0.34606083875E+02 -0.85857966343E+02  0.96341531837E+02  0.00000000000E+00 0.  1.
</event>
<event>
 7    1  0.6188600E-006  0.2939016E+02  0.7818608E-02  0.1649942E+00
          2   -1    0    0  502    0  0.00000000000E+00  0.00000000000E+00  0.33014243734E+03  0.33014243734E+03  0.00000000000E+00 0. -1.
          1   -1    0    0  501    0 -0.00000000000E+00 -0.00000000000E+00 -0.34522674479E+03  0.34522674479E+03  0.00000000000E+00 0. -1.
         25    2    1    2    0    0  0.22652820419E+02  0.46396913294E+02  0.14327406215E+03  0.19702434208E+03  0.12500124260E+03 0.  0.
          2    1    1    2  501    0 -0.15272365651E+02 -0.25008058913E+02 -0.31687225005E+03  0.31822424643E+03  0.00000000000E+00 0. -1.
          1    1    1    2  502    0 -0.73804547681E+01 -0.21388854381E+02  0.15851388045E+03  0.16012059361E+03  0.00000000000E+00 0. -1.
         22    1    3    3    0    0 -0.16246819694E+01 -0.19184256668E+02  0.12259891382E+03  0.12410144626E+03  0.00000000000E+00 0.  1.
         22    1    3    3    0    0  0.24277502388E+02  0.65581169962E+02  0.20675148335E+02  0.72922895818E+02  0.00000000000E+00 0.  1.
</event>
<event>
 7    1  0.6188600E-006  0.7225431E+02  0.7818608E-02  0.1418908E+00
          2   -1    0    0  502    0  0.00000000000E+00  0.00000000000E+00  0.12837452558E+03  0.12837452558E+03  0.00000000000E+00 0. -1.
          1   -1    0    0  501    0 -0.00000000000E+00 -0.00000000000E+00 -0.38094314351E+03  0.38094314351E+03  0.00000000000E+00 0. -1.
         25    2    1    2    0    0  0.64132633893E+02  0.42659459916E+02 -0.14454660465E+01  0.14683190908E+03  0.12499878360E+03 0.  0.
          2    1    1    2  501    0 -0.29257613764E+02 -0.66511630638E+02 -0.29366884184E+03  0.30252469922E+03  0.00000000000E+00 0. -1.
          1    1    1    2  502    0 -0.34875020130E+02  0.23852170722E+02  0.42545689951E+02  0.59961060786E+02  0.00000000000E+00 0. -1.
         22    1    3    3    0    0 -0.20721280379E+01  0.38479453902E+02  0.49827514445E+02  0.62990025266E+02  0.00000000000E+00 0. -1.
         22    1    3    3    0    0  0.66204761931E+02  0.41800060146E+01 -0.51272980492E+02  0.83841883812E+02  0.00000000000E+00 0. -1.
</event>
<event>
 7    1  0.6188600E-006  0.4221677E+02  0.7818608E-02  0.1572728E+00
          2   -1    0    0  502    0  0.00000000000E+00  0.00000000000E+00  0.19447428753E+04  0.19447428753E+04  0.00000000000E+00 0. -1.
          1   -1    0    0  501    0 -0.00000000000E+00 -0.00000000000E+00 -0.15036476705E+04  0.15036476705E+04  0.00000000000E+00 0. -1.
         25    2    1    2    0    0 -0.60464622478E+02 -0.29058025361E+02  0.27959761976E+03  0.31352906005E+03  0.12500121244E+03 0.  0.
          2    1    1    2  501    0  0.37756806046E+02  0.18829785974E+02 -0.14862884841E+04  0.14868872167E+04  0.00000000000E+00 0. -1.
          1    1    1    2  502    0  0.22707816431E+02  0.10228239388E+02  0.16477860691E+04  0.16479742690E+04  0.00000000000E+00 0. -1.
         22    1    3    3    0    0  0.17650212218E+02 -0.47007350400E+02  0.52245532516E+02  0.72462518938E+02  0.00000000000E+00 0.  1.
         22    1    3    3    0    0 -0.78114834696E+02  0.17949325039E+02  0.22735208724E+03  0.24106654111E+03  0.00000000000E+00 0.  1.
</event>
<event>
 7    1  0.6188600E-006  0.5721399E+02  0.7818608E-02  0.1409974E+00
          2   -1    0    0  502    0  0.00000000000E+00  0.00000000000E+00  0.87472501078E+02  0.87472501078E+02  0.00000000000E+00 0. -1.
          1   -1    0    0  501    0 -0.00000000000E+00 -0.00000000000E+00 -0.18995274681E+04  0.18995274681E+04  0.00000000000E+00 0. -1.
         25    2    1    2    0    0  0.63457885285E+02 -0.23407929490E+02 -0.26428490956E+03  0.30007145613E+03  0.12498612322E+03 0.  0.
          2    1    1    2  501    0 -0.15048225891E+02  0.55169619850E+02 -0.16047062689E+04  0.16057248661E+04  0.00000000000E+00 0. -1.
          1    1    1    2  502    0 -0.48409659394E+02 -0.31761690360E+02  0.56936211481E+02  0.81203646932E+02  0.00000000000E+00 0. -1.
         22    1    3    3    0    0  0.19082964338E+02  0.53342123213E+01 -0.24181360274E+03  0.24262405450E+03  0.00000000000E+00 0. -1.
         22    1    3    3    0    0  0.44374920946E+02 -0.28742141811E+02 -0.22471306815E+02  0.57447401637E+02  0.00000000000E+00 0. -1.
</event>
<event>
 7    1  0.6485694E-006  0.9226248E+02  0.7818608E-02  0.1363578E+00
          2   -1    0    0  502    0  0.00000000000E+00  0.00000000000E+00  0.22800057409E+04  0.22800057409E+04  0.00000000000E+00 0. -1.
          1   -1    0    0  501    0 -0.00000000000E+00 -0.00000000000E+00 -0.11131589069E+04  0.11131589069E+04  0.00000000000E+00 0. -1.
         25    2    1    2    0    0 -0.53707066609E+02 -0.11511121826E+02 -0.35884447711E+02  0.14117182749E+03  0.12499934544E+03 0.  0.
          2    1    1    2  501    0  0.90843905843E+02 -0.24285874630E+02 -0.10221737620E+04  0.10264899506E+04  0.00000000000E+00 0. -1.
          1    1    1    2  502    0 -0.37136839234E+02  0.35796996456E+02  0.22249050437E+04  0.22255028698E+04  0.00000000000E+00 0. -1.
         22    1    3    3    0    0 -0.54927728884E+01 -0.24802038188E+02 -0.74033297996E+02  0.78270306403E+02  0.00000000000E+00 0.  1.
         22    1    3    3    0    0 -0.48214293721E+02  0.13290916362E+02  0.38148850285E+02  0.62901521085E+02  0.00000000000E+00 0.  1.
</event>
<event>
 7    1  0.6188600E-006  0.1537192E+03  0.7818608E-02  0.1362678E+00
          2   -1    0    0  502    0  0.00000000000E+00  0.00000000000E+00  0.15822155634E+04  0.15822155634E+04  0.00000000000E+00 0. -1.
          1   -1    0    0  501    0 -0.00000000000E+00 -0.00000000000E+00 -0.29020684745E+03  0.29020684745E+03  0.00000000000E+00 0. -1.
         25    2    1    2    0    0  0.14070563935E+03  0.27348857188E+02  0.56183195833E+03  0.59314865231E+03  0.12499654957E+03 0.  0.
          2    1    1    2  501    0 -0.14269135690E+03 -0.58478277823E+02 -0.25262730906E+03  0.29597481244E+03  0.00000000000E+00 0. -1.
          1    1    1    2  502    0  0.19857175553E+01  0.31129420635E+02  0.98280406667E+03  0.98329894608E+03  0.00000000000E+00 0. -1.
         22    1    3    3    0    0  0.58652333613E+01  0.51413579765E+02  0.18886735081E+03  0.19582807089E+03  0.00000000000E+00 0. -1.
         22    1    3    3    0    0  0.13484040599E+03 -0.24064722576E+02  0.37296460752E+03  0.39732058142E+03  0.00000000000E+00 0. -1.
</event>
<event>
 7    1  0.6188600E-006  0.2143979E+03  0.7818608E-02  0.1162493E+00
          2   -1    0    0  502    0  0.00000000000E+00  0.00000000000E+00  0.48388357695E+03  0.48388357695E+03  0.00000000000E+00 0. -1.
          1   -1    0    0  501    0 -0.00000000000E+00 -0.00000000000E+00 -0.60493334875E+03  0.60493334875E+03  0.00000000000E+00 0. -1.
         25    2    1    2    0    0 -0.12294203494E+03  0.23907869979E+03  0.35066846575E+02  0.29854277035E+03  0.12499893340E+03 0.  0.
          2    1    1    2  501    0  0.15753981227E+03 -0.31540116515E+02 -0.42180313511E+03  0.45136621073E+03  0.00000000000E+00 0. -1.
          1    1    1    2  502    0 -0.34597777330E+02 -0.20753858328E+03  0.26568651674E+03  0.33890794461E+03  0.00000000000E+00 0. -1.
         22    1    3    3    0    0 -0.60336532715E+00  0.13164585470E+03 -0.15721931173E+01  0.13165662498E+03  0.00000000000E+00 0. -1.
         22    1    3    3    0    0 -0.12233866962E+03  0.10743284509E+03  0.36639039693E+02  0.16688614537E+03  0.00000000000E+00 0. -1.
</event>
<event>
 7    1  0.6188600E-006  0.9169859E+02  0.7818608E-02  0.1325236E+00
          2   -1    0    0  502    0  0.00000000000E+00  0.00000000000E+00  0.27512688817E+04  0.27512688817E+04  0.00000000000E+00 0. -1.
          1   -1    0    0  501    0 -0.00000000000E+00 -0.00000000000E+00 -0.42968854773E+03  0.42968854773E+03  0.00000000000E+00 0. -1.
         25    2    1    2    0    0 -0.68140259158E+02 -0.14682053500E+03 -0.27213923856E+01  0.20453131037E+03  0.12500514600E+03 0.  0.
          2    1    1    2  501    0  0.39984561601E+02  0.60101125161E+02 -0.32127189139E+03  0.32928185284E+03  0.00000000000E+00 0. -1.
          1    1    1    2  502    0  0.28155697557E+02  0.86719409841E+02  0.26455736178E+04  0.26471442663E+04  0.00000000000E+00 0. -1.
         22    1    3    3    0    0  0.28312430118E+02 -0.85860255632E+02 -0.62421994949E+00  0.90409993070E+02  0.00000000000E+00 0. -1.
         22    1    3    3    0    0 -0.96452689276E+02 -0.60960279370E+02 -0.20971724361E+01  0.11412131730E+03  0.00000000000E+00 0. -1.
</event>
<event>
 7    1  0.6188600E-006  0.2105779E+03  0.7818608E-02  0.1314519E+00
          2   -1    0    0  502    0  0.00000000000E+00  0.00000000000E+00  0.54091940703E+03  0.54091940703E+03  0.00000000000E+00 0. -1.
          1   -1    0    0  501    0 -0.00000000000E+00 -0.00000000000E+00 -0.12069830538E+03  0.12069830538E+03  0.00000000000E+00 0. -1.
         25    2    1    2    0    0 -0.18795545662E+03 -0.31243373823E+02  0.22084674546E+03  0.31733477885E+03  0.12499869920E+03 0.  0.
          2    1    1    2  501    0  0.21954092275E+03  0.45352790384E+02  0.11259800266E+03  0.25086530761E+03  0.00000000000E+00 0. -1.
          1    1    1    2  502    0 -0.31585466131E+02 -0.14109416561E+02  0.86776353535E+02  0.93417625955E+02  0.00000000000E+00 0. -1.
         22    1    3    3    0    0 -0.19133820008E+03 -0.33979451995E+02  0.23359704406E+03  0.30386261527E+03  0.00000000000E+00 0.  1.
         22    1    3    3    0    0  0.33827434552E+01  0.27360781724E+01 -0.12750298597E+02  0.13472163573E+02  0.00000000000E+00 0.  1.
</event>
<event>
 7    1  0.6188600E-006  0.9512222E+02  0.7818608E-02  0.1296132E+00
          2   -1    0    0  502    0  0.00000000000E+00  0.00000000000E+00  0.14375833881E+04  0.14375833881E+04  0.00000000000E+00 0. -1.
          1   -1    0    0  501    0 -0.00000000000E+00 -0.00000000000E+00 -0.23056447511E+03  0.23056447511E+03  0.00000000000E+00 0. -1.
         25    2    1    2    0    0  0.19644578883E+02  0.47254748039E+02  0.73218773216E+02  0.15364342887E+03  0.12500557505E+03 0.  0.
          2    1    1    2  501    0  0.78830581889E+02 -0.44654938425E+02 -0.17761872952E+03  0.19939091565E+03  0.00000000000E+00 0. -1.
          1    1    1    2  502    0 -0.98475160773E+02 -0.25998096137E+01  0.13114188693E+04  0.13151135187E+04  0.00000000000E+00 0. -1.
         22    1    3    3    0    0 -0.34581407987E+02  0.23418899205E+02  0.83651617903E+02  0.93498191405E+02  0.00000000000E+00 0.  1.
         22    1    3    3    0    0  0.54225986871E+02  0.23835848834E+02 -0.10432844687E+02  0.60145237467E+02  0.00000000000E+00 0.  1.
</event>
<event>
 7    1  0.6188600E-006  0.2019317E+03  0.7818608E-02  0.1329642E+00
          2   -1    0    0  502    0  0.00000000000E+00  0.00000000000E+00  0.25267433035E+04  0.25267433035E+04  0.00000000000E+00 0. -1.
          1   -1    0    0  501    0 -0.00000000000E+00 -0.00000000000E+00 -0.63423223769E+02  0.63423223769E+02  0.00000000000E+00 0. -1.
         25    2    1    2    0    0 -0.19911617131E+03  0.63634726930E+02  0.90499183525E+03  0.93719345814E+03  0.12499891185E+03 0.  0.
          2    1    1    2  501    0  0.18003452216E+03 -0.88734680847E+02  0.16649084741E+03  0.26077859389E+03  0.00000000000E+00 0. -1.
          1    1    1    2  502    0  0.19081649148E+02  0.25099953916E+02  0.13918373971E+04  0.13921944753E+04  0.00000000000E+00 0. -1.
         22    1    3    3    0    0 -0.99899185134E+02  0.96270286090E+02  0.54189431391E+03  0.55937220401E+03  0.00000000000E+00 0. -1.
         22    1    3    3    0    0 -0.99216986178E+02 -0.32635559160E+02  0.36309752134E+03  0.37782125413E+03  0.00000000000E+00 0. -1.
</event>
<event>
 7    1  0.6188600E-006  0.6692902E+02  0.7818608E-02  0.1462580E+00
          2   -1    0    0  502    0  0.00000000000E+00  0.00000000000E+00  0.51022208807E+03  0.51022208807E+03  0.00000000000E+00 0. -1.
          1   -1    0    0  501    0 -0.00000000000E+00 -0.00000000000E+00 -0.64865016244E+02  0.64865016244E+02  0.00000000000E+00 0. -1.
         25    2    1    2    0    0 -0.64801891336E+02 -0.57821650819E+02  0.25593776461E+03  0.29777893882E+03  0.12500211448E+03 0.  0.
          2    1    1    2  501    0  0.31885900284E+02  0.57225092679E+02 -0.17484064480E+02  0.67802023420E+02  0.00000000000E+00 0. -1.
          1    1    1    2  502    0  0.32915991052E+02  0.59655813955E+00  0.20690337170E+03  0.20950614208E+03  0.00000000000E+00 0. -1.
         22    1    3    3    0    0 -0.38112981098E+02 -0.43426410524E+02  0.21908777057E+02  0.61793583577E+02  0.00000000000E+00 0.  1.
         22    1    3    3    0    0 -0.26688910237E+02 -0.14395240295E+02  0.23402898755E+03  0.23598535524E+03  0.00000000000E+00 0.  1.
</event>
<event>
 7    1  0.6188600E-006  0.7129691E+02  0.7818608E-02  0.1470609E+00
          2   -1    0    0  502    0  0.00000000000E+00  0.00000000000E+00  0.46589319385E+03  0.46589319385E+03  0.00000000000E+00 0. -1.
          1   -1    0    0  501    0 -0.00000000000E+00 -0.00000000000E+00 -0.35136103017E+03  0.35136103017E+03  0.00000000000E+00 0. -1.
         25    2    1    2    0    0 -0.48534732404E+02 -0.46200763810E+02  0.44755939666E+02  0.14872071316E+03  0.12499850224E+03 0.  0.
          2    1    1    2  501    0  0.67566921781E+02  0.24095930885E+02 -0.29449009305E+03  0.30310116745E+03  0.00000000000E+00 0. -1.
          1    1    1    2  502    0 -0.19032189377E+02  0.22104832925E+02  0.36426631705E+03  0.36543234341E+03  0.00000000000E+00 0. -1.
         22    1    3    3    0    0 -0.67831051981E+02 -0.69334020721E+02  0.60913026752E+02  0.11453669661E+03  0.00000000000E+00 0. -1.
         22    1    3    3    0    0  0.19296319577E+02  0.23133256911E+02 -0.16157087085E+02  0.34184016552E+02  0.00000000000E+00 0. -1.
</event>
<event>
 7    1  0.6188600E-006  0.3790106E+02  0.7818608E-02  0.1545787E+00
          2   -1    0    0  502    0  0.00000000000E+00  0.00000000000E+00  0.15689457299E+04  0.15689457299E+04  0.00000000000E+00 0. -1.
          1   -1    0    0  501    0 -0.00000000000E+00 -0.00000000000E+00 -0.46432943191E+02  0.46432943191E+02  0.00000000000E+00 0. -1.
         25    2    1    2    0    0 -0.33110344116E+02  0.27949636554E+01  0.22430759221E+03  0.25893188964E+03  0.12501088289E+03 0.  0.
          2    1    1    2  501    0  0.13533685131E+02  0.30001389210E+02 -0.19455271052E+02  0.38232859682E+02  0.00000000000E+00 0. -1.
          1    1    1    2  502    0  0.19576658985E+02 -0.32796352866E+02  0.13176604656E+04  0.13182139238E+04  0.00000000000E+00 0. -1.
         22    1    3    3    0    0  0.15075804262E+02 -0.53221774860E+02  0.89992705269E+02  0.10563391593E+03  0.00000000000E+00 0. -1.
         22    1    3    3    0    0 -0.48186148378E+02  0.56016738515E+02  0.13431488694E+03  0.15329797371E+03  0.00000000000E+00 0. -1.
</event>
<event>
 7    1  0.6188600E-006  0.1622439E+03  0.7818608E-02  0.1187535E+00
          2   -1    0    0  502    0  0.00000000000E+00  0.00000000000E+00  0.28582739721E+03  0.28582739721E+03  0.00000000000E+00 0. -1.
          1   -1    0    0  501    0 -0.00000000000E+00 -0.00000000000E+00 -0.33403212753E+03  0.33403212753E+03  0.00000000000E+00 0. -1.
         25    2    1    2    0    0  0.41529923060E+02  0.48018758441E+02 -0.84961350139E+02  0.16393446743E+03  0.12500217167E+03 0.  0.
          2    1    1    2  501    0  0.15973660742E+03  0.54964345228E+01 -0.11613523661E+03  0.19756869116E+03  0.00000000000E+00 0. -1.
          1    1    1    2  502    0 -0.20126653048E+03 -0.53515192964E+02  0.15289185643E+03  0.25835636615E+03  0.00000000000E+00 0. -1.
         22    1    3    3    0    0  0.33885686851E+02 -0.38069500597E+02 -0.16161246349E+02  0.53466929336E+02  0.00000000000E+00 0.  1.
         22    1    3    3    0    0  0.76442362087E+01  0.86088259038E+02 -0.68800103789E+02  0.11046753810E+03  0.00000000000E+00 0.  1.
</event>
<event>
 7    1  0.6188600E-006  0.5594026E+02  0.7818608E-02  0.1461761E+00
          2   -1    0    0  502    0  0.00000000000E+00  0.00000000000E+00  0.34210814199E+03  0.34210814199E+03  0.00000000000E+00 0. -1.
          1   -1    0    0  501    0 -0.00000000000E+00 -0.00000000000E+00 -0.15316705835E+04  0.15316705835E+04  0.00000000000E+00 0. -1.
         25    2    1    2    0    0 -0.17065006346E+02 -0.87852729223E+02  0.14059535332E+02  0.15437696776E+03  0.12500104466E+03 0.  0.
          2    1    1    2  501    0  0.21401488390E+02  0.33345460566E+02 -0.14583413820E+04  0.14588795460E+04  0.00000000000E+00 0. -1.
          1    1    1    2  502    0 -0.43364820438E+01  0.54507268656E+02  0.25471940516E+03  0.26052221167E+03  0.00000000000E+00 0. -1.
         22    1    3    3    0    0 -0.11098509637E+02 -0.75835389398E+02  0.65745174512E+02  0.10097827080E+03  0.00000000000E+00 0.  1.
         22    1    3    3    0    0 -0.59664967095E+01 -0.12017339824E+02 -0.51685639180E+02  0.53398696959E+02  0.00000000000E+00 0.  1.
</event>
<event>
 7    1  0.6188600E-006  0.9703994E+02  0.7818608E-02  0.1306865E+00
          2   -1    0    0  502    0  0.00000000000E+00  0.00000000000E+00  0.17930299634E+03  0.17930299634E+03  0.00000000000E+00 0. -1.
          1   -1    0    0  501    0 -0.00000000000E+00 -0.00000000000E+00 -0.92257092345E+03  0.92257092345E+03  0.00000000000E+00 0. -1.
         25    2    1    2    0    0 -0.10167782233E+03  0.13000469180E+03 -0.20145467099E+03  0.28887502950E+03  0.12500079505E+03 0.  0.
          2    1    1    2  501    0  0.34438192327E+02 -0.85812940376E+02 -0.66196634630E+03  0.66839306809E+03  0.00000000000E+00 0. -1.
          1    1    1    2  502    0  0.67239630001E+02 -0.44191751421E+02  0.12015309018E+03  0.14460582221E+03  0.00000000000E+00 0. -1.
         22    1    3    3    0    0 -0.81902413861E+02  0.12627526318E+03 -0.21655022205E+03  0.26371849795E+03  0.00000000000E+00 0. -1.
         22    1    3    3    0    0 -0.19775408467E+02  0.37294286174E+01  0.15095551064E+02  0.25156531553E+02  0.00000000000E+00 0. -1.
</event>
<event>
 7    1  0.6188600E-006  0.6812810E+02  0.7818608E-02  0.1368083E+00
          2   -1    0    0  502    0  0.00000000000E+00  0.00000000000E+00  0.55468860056E+02  0.55468860056E+02  0.00000000000E+00 0. -1.
          1   -1    0    0  501    0 -0.00000000000E+00 -0.00000000000E+00 -0.85566287041E+03  0.85566287041E+03  0.00000000000E+00 0. -1.
         25    2    1    2    0    0 -0.69141765732E+02  0.52859490409E+02 -0.40031517005E+03  0.42831505908E+03  0.12500737965E+03 0.  0.
          2    1    1    2  501    0  0.18450545653E+01 -0.67255479960E+02 -0.40800875001E+03  0.41351885555E+03  0.00000000000E+00 0. -1.
          1    1    1    2  502    0  0.67296711167E+02  0.14395989552E+02  0.81299096966E+01  0.69297815844E+02  0.00000000000E+00 0. -1.
         22    1    3    3    0    0  0.23922630743E+02  0.37264458339E+02 -0.56498823690E+02  0.71784742079E+02  0.00000000000E+00 0. -1.
         22    1    3    3    0    0 -0.93064396475E+02  0.15595032069E+02 -0.34381634636E+03  0.35653031700E+03  0.00000000000E+00 0. -1.
</event>
<event>
 7    1  0.6188600E-006  0.5537552E+02  0.7818608E-02  0.1556087E+00
          2   -1    0    0  502    0  0.00000000000E+00  0.00000000000E+00  0.10154617762E+04  0.10154617762E+04  0.00000000000E+00 0. -1.
          1   -1    0    0  501    0 -0.00000000000E+00 -0.00000000000E+00 -0.12789034780E+04  0.12789034780E+04  0.00000000000E+00 0. -1.
         25    2    1    2    0    0  0.70749499795E+02 -0.27981553020E+02 -0.17579450712E+01  0.14634473335E+03  0.12500092630E+03 0.  0.
          2    1    1    2  501    0 -0.52181532560E+02  0.17988528638E+02 -0.12041020111E+04  0.12053663977E+04  0.00000000000E+00 0. -1.
          1    1    1    2  502    0 -0.18567967235E+02  0.99930243821E+01  0.94241825433E+03  0.94265412323E+03  0.00000000000E+00 0. -1.
         22    1    3    3    0    0  0.19335385338E+02  0.44486899473E+02  0.23599046105E+02  0.53943084154E+02  0.00000000000E+00 0.  1.
         22    1    3    3    0    0  0.51414114457E+02 -0.72468452494E+02 -0.25356991176E+02  0.92401649194E+02  0.00000000000E+00 0.  1.
</event>
<event>
 7    1  0.6188600E-006  0.8662583E+02  0.7818608E-02  0.1395687E+00
          2   -1    0    0  502    0  0.00000000000E+00  0.00000000000E+00  0.31485424589E+04  0.31485424589E+04  0.00000000000E+00 0. -1.
          1   -1    0    0  501    0 -0.00000000000E+00 -0.00000000000E+00 -0.17887706632E+02  0.17887706632E+02  0.00000000000E+00 0. -1.
         25    2    1    2    0    0 -0.64499424901E+01 -0.95555096944E+02  0.18508146257E+04  0.18575014806E+04  0.12499837289E+03 0.  0.
          2    1    1    2  501    0 -0.36398833537E+02  0.21497528845E+02  0.21031923741E+02  0.47216105785E+02  0.00000000000E+00 0. -1.
          1    1    1    2  502    0  0.42848776027E+02  0.74057568099E+02  0.12588082028E+04  0.12617125792E+04  0.00000000000E+00 0. -1.
         22    1    3    3    0    0  0.37592794571E+02 -0.28437555872E+02  0.23429045500E+03  0.23898520894E+03  0.00000000000E+00 0.  1.
         22    1    3    3    0    0 -0.44042737061E+02 -0.67117541072E+02  0.16165241707E+04  0.16185162716E+04  0.00000000000E+00 0.  1.
</event>
<event>
 7    1  0.6188600E-006  0.3001124E+02  0.7818608E-02  0.1603845E+00
          2   -1    0    0  502    0  0.00000000000E+00  0.00000000000E+00  0.11682580156E+04  0.11682580156E+04  0.00000000000E+00 0. -1.
          1   -1    0    0  501    0 -0.00000000000E+00 -0.00000000000E+00 -0.67857624867E+03  0.67857624867E+03  0.00000000000E+00 0. -1.
         25    2    1    2    0    0 -0.33328501760E+01 -0.22878687296E+01  0.23574381191E+03  0.26686525962E+03  0.12500231878E+03 0.  0.
          2    1    1    2  501    0 -0.78839917492E+01  0.28997441549E+02 -0.66244602280E+03  0.66312724425E+03  0.00000000000E+00 0. -1.
          1    1    1    2  502    0  0.11216841925E+02 -0.26709572819E+02  0.91638397779E+03  0.91684176038E+03  0.00000000000E+00 0. -1.
         22    1    3    3    0    0  0.56636467424E+02 -0.23558773033E+02  0.12096484303E+03  0.13562889986E+03  0.00000000000E+00 0. -1.
         22    1    3    3    0    0 -0.59969317600E+02  0.21270904303E+02  0.11477896888E+03  0.13123635975E+03  0.00000000000E+00 0. -1.
</event>
<event>
 7    1  0.6188600E-006  0.1556551E+03  0.7818608E-02  0.1328935E+00
          2   -1    0    0  502    0  0.00000000000E+00  0.00000000000E+00  0.11829597063E+04  0.11829597063E+04  0.00000000000E+00 0. -1.
          1   -1    0    0  501    0 -0.00000000000E+00 -0.00000000000E+00 -0.75873299765E+03  0.75873299765E+03  0.00000000000E+00 0. -1.
         25    2    1    2    0    0  0.14203160105E+03 -0.18577376300E+02 -0.54687144510E+02  0.19778449585E+03  0.12493969913E+03 0.  0.
          2    1    1    2  501    0 -0.15668449584E+03 -0.19884648635E+02 -0.62224681464E+03  0.64197860464E+03  0.00000000000E+00 0. -1.
          1    1    1    2  502    0  0.14652894793E+02  0.38462024936E+02  0.11011606678E+04  0.11019296034E+04  0.00000000000E+00 0. -1.
         22    1    3    3    0    0  0.61280816280E+02  0.22689561804E+02 -0.80322481160E+02  0.10354639365E+03  0.00000000000E+00 0.  1.
         22    1    3    3    0    0  0.80750784765E+02 -0.41266938104E+02  0.25635336650E+02  0.94238102198E+02  0.00000000000E+00 0.  1.
</event>
<event>
 7    1  0.6188600E-006  0.3843440E+02  0.7818608E-02  0.1531976E+00
          2   -1    0    0  502    0  0.00000000000E+00  0.00000000000E+00  0.27878944419E+04  0.27878944419E+04  0.00000000000E+00 0. -1.
          1   -1    0    0  501    0 -0.00000000000E+00 -0.00000000000E+00 -0.11955578526E+04  0.11955578526E+04  0.00000000000E+00 0. -1.
         25    2    1    2    0    0  0.23046537427E+02 -0.77352783070E+01  0.13005326982E+03  0.18197682451E+03  0.12494292397E+03 0.  0.
          2    1    1    2  501    0 -0.18131633880E+02 -0.30536237150E+02 -0.11691850180E+04  0.11697242514E+04  0.00000000000E+00 0. -1.
          1    1    1    2  502    0 -0.49149035474E+01  0.38271515457E+02  0.26314683375E+04  0.26317512186E+04  0.00000000000E+00 0. -1.
         22    1    3    3    0    0  0.43110659880E+02 -0.58235550199E+02  0.66354412093E+02  0.98248747099E+02  0.00000000000E+00 0. -1.
         22    1    3    3    0    0 -0.20064122452E+02  0.50500271892E+02  0.63698857728E+02  0.83728077410E+02  0.00000000000E+00 0. -1.
</event>
<event>
 7    1  0.6188600E-006  0.9298006E+02  0.7818608E-02  0.1425551E+00
          2   -1    0    0  502    0  0.00000000000E+00  0.00000000000E+00  0.11161770499E+04  0.11161770499E+04  0.00000000000E+00 0. -1.
          1   -1    0    0  501    0 -0.00000000000E+00 -0.00000000000E+00 -0.44867974466E+03  0.44867974466E+03  0.00000000000E+00 0. -1.
         25    2    1    2    0    0  0.76874580653E+02 -0.25245940558E+02  0.28930743455E+03  0.32537804404E+03  0.12500008479E+03 0.  0.
          2    1    1    2  501    0 -0.74303224845E+02  0.56343167515E+02 -0.42529008362E+03  0.43539312922E+03  0.00000000000E+00 0. -1.
          1    1    1    2  502    0 -0.25713558072E+01 -0.31097226957E+02  0.80347995434E+03  0.80408562132E+03  0.00000000000E+00 0. -1.
         22    1    3    3    0    0  0.63201883729E+02 -0.63268348411E+02  0.26139289278E+03  0.27626727352E+03  0.00000000000E+00 0. -1.
         22    1    3    3    0    0  0.13672696923E+02  0.38022407853E+02  0.27914541762E+02  0.49110770529E+02  0.00000000000E+00 0. -1.
</event>
<event>
 7    1  0.6188600E-006  0.6375325E+02  0.7818608E-02  0.1384455E+00
          2   -1    0    0  502    0  0.00000000000E+00  0.00000000000E+00  0.99228514846E+03  0.99228514846E+03  0.00000000000E+00 0. -1.
          1   -1    0    0  501    0 -0.00000000000E+00 -0.00000000000E+00 -0.21156996208E+03  0.21156996208E+03  0.00000000000E+00 0. -1.
         25    2    1    2    0    0 -0.54959605300E+01  0.21403590680E+02  0.16466213142E+01  0.12693843947E+03  0.12498934665E+03 0.  0.
          2    1    1    2  501    0 -0.58249792086E+02 -0.25912142649E+02 -0.14094142560E+03  0.15468989258E+03  0.00000000000E+00 0. -1.
          1    1    1    2  502    0  0.63745752616E+02  0.45085519686E+01  0.92000999067E+03  0.92222677849E+03  0.00000000000E+00 0. -1.
         22    1    3    3    0    0 -0.62230335712E+02 -0.31184948464E+01  0.14112683654E+02  0.63886677272E+02  0.00000000000E+00 0. -1.
         22    1    3    3    0    0  0.56734375182E+02  0.24522085526E+02 -0.12466062339E+02  0.63051762196E+02  0.00000000000E+00 0. -1.
</event>
<event>
 7    1  0.6188600E-006  0.1230027E+03  0.7818608E-02  0.1350354E+00
          2   -1    0    0  502    0  0.00000000000E+00  0.00000000000E+00  0.32999028234E+03  0.32999028234E+03  0.00000000000E+00 0. -1.
          1   -1    0    0  501    0 -0.00000000000E+00 -0.00000000000E+00 -0.17645783799E+03  0.17645783799E+03  0.00000000000E+00 0. -1.
         25    2    1    2    0    0 -0.68450475426E+02 -0.88215732584E+02  0.35224799580E+02  0.17124517980E+03  0.12496656367E+03 0.  0.
          2    1    1    2  501    0  0.28274877717E+02 -0.32740278403E+02 -0.84926859136E+02  0.95309841793E+02  0.00000000000E+00 0. -1.
          1    1    1    2  502    0  0.40175597709E+02  0.12095601099E+03  0.20323450390E+03  0.23989309874E+03  0.00000000000E+00 0. -1.
         22    1    3    3    0    0 -0.23155702818E+02 -0.34811325447E+02  0.78490539823E+02  0.88931320659E+02  0.00000000000E+00 0. -1.
         22    1    3    3    0    0 -0.45294772608E+02 -0.53404407136E+02 -0.43265740243E+02  0.82313859137E+02  0.00000000000E+00 0. -1.
</event>
<event>
 7    1  0.6188600E-006  0.6907942E+02  0.7818608E-02  0.1451765E+00
          2   -1    0    0  502    0  0.00000000000E+00  0.00000000000E+00  0.59623039356E+03  0.59623039356E+03  0.00000000000E+00 0. -1.
          1   -1    0    0  501    0 -0.00000000000E+00 -0.00000000000E+00 -0.60345028029E+03  0.60345028029E+03  0.00000000000E+00 0. -1.
         25    2    1    2    0    0  0.11479855230E+02 -0.88146362437E+02 -0.86697748806E+02  0.17618875848E+03  0.12499764270E+03 0.  0.
          2    1    1    2  501    0 -0.31934024663E+02  0.60346184395E+02 -0.46899279935E+03  0.47393637732E+03  0.00000000000E+00 0. -1.
          1    1    1    2  502    0  0.20454169433E+02  0.27800178042E+02  0.54847066143E+03  0.54955553804E+03  0.00000000000E+00 0. -1.
         22    1    3    3    0    0 -0.49665511247E+02 -0.11844507739E+02 -0.50809566458E+02  0.72031711174E+02  0.00000000000E+00 0. -1.
         22    1    3    3    0    0  0.61145366477E+02 -0.76301854698E+02 -0.35888182347E+02  0.10415704731E+03  0.00000000000E+00 0. -1.
</event>
<event>
 7    1  0.6188600E-006  0.5994815E+02  0.7818608E-02  0.1423900E+00
          2   -1    0    0  502    0  0.00000000000E+00  0.00000000000E+00  0.30787169623E+04  0.30787169623E+04  0.00000000000E+00 0. -1.
          1   -1    0    0  501    0 -0.00000000000E+00 -0.00000000000E+00 -0.34171658526E+02  0.34171658526E+02  0.00000000000E+00 0. -1.
         25    2    1    2    0    0 -0.66144010080E+02  0.29588640044E+02  0.72796548116E+03  0.74216477241E+03  0.12499715980E+03 0.  0.
          2    1    1    2  501    0  0.88604421883E+01 -0.48203046872E+02 -0.41744555051E+01  0.49188080287E+02  0.00000000000E+00 0. -1.
          1    1    1    2  502    0  0.57283567891E+02  0.18614406828E+02  0.23207542781E+04  0.23215357681E+04  0.00000000000E+00 0. -1.
         22    1    3    3    0    0  0.33785818144E+02 -0.11690427183E+02  0.15295622152E+03  0.15707881238E+03  0.00000000000E+00 0.  1.
         22    1    3    3    0    0 -0.99929828224E+02  0.41279067227E+02  0.57500925964E+03  0.58508596003E+03  0.00000000000E+00 0.  1.
</event>
<event>
 7    1  0.6188600E-006  0.4702828E+02  0.7818608E-02  0.1502071E+00
          2   -1    0    0  502    0  0.00000000000E+00  0.00000000000E+00  0.26718931297E+04  0.26718931297E+04  0.00000000000E+00 0. -1.
          1   -1    0    0  501    0 -0.00000000000E+00 -0.00000000000E+00 -0.12372547382E+02  0.12372547382E+02  0.00000000000E+00 0. -1.
         25    2    1    2    0    0 -0.13740043489E+02 -0.45108095837E+02  0.69780621449E+03  0.71048121779E+03  0.12500607487E+03 0.  0.
          2    1    1    2  501    0 -0.21703432209E+02  0.43550817765E+02  0.95033377692E+02  0.10676635974E+03  0.00000000000E+00 0. -1.
          1    1    1    2  502    0  0.35443475698E+02  0.15572780719E+01  0.18666809901E+04  0.18670180995E+04  0.00000000000E+00 0. -1.
         22    1    3    3    0    0 -0.75724345141E+01  0.34166905504E+02  0.42180909096E+03  0.42325834712E+03  0.00000000000E+00 0.  1.
         22    1    3    3    0    0 -0.61676089750E+01 -0.79275001341E+02  0.27599712353E+03  0.28722287067E+03  0.00000000000E+00 0.  1.
</event>
<event>
 7    1  0.6188600E-006  0.1175654E+03  0.7818608E-02  0.1416142E+00
          2   -1    0    0  502    0  0.00000000000E+00  0.00000000000E+00  0.15989423535E+04  0.15989423535E+04  0.00000000000E+00 0. -1.
          1   -1    0    0  501    0 -0.00000000000E+00 -0.00000000000E+00 -0.59764167232E+02  0.59764167232E+02  0.00000000000E+00 0. -1.
         25    2    1    2    0    0  0.12345437906E+03  0.38454088764E+02  0.40623518259E+03  0.44426639300E+03  0.12500361483E+03 0.  0.
          2    1    1    2  501    0 -0.21028384882E+02  0.16171534765E+02 -0.33220978234E+02  0.42512879251E+02  0.00000000000E+00 0. -1.
          1    1    1    2  502    0 -0.10242599418E+03 -0.54625623529E+02  0.11661639819E+04  0.11719272485E+04  0.00000000000E+00 0. -1.
         22    1    3    3    0    0  0.11552532442E+03 -0.21221513485E+02  0.29976128031E+03  0.32195229210E+03  0.00000000000E+00 0. -1.
         22    1    3    3    0    0  0.79290546434E+01  0.59675602250E+02  0.10647390228E+03  0.12231410090E+03  0.00000000000E+00 0. -1.
</event>
<event>
 7    1  0.6188600E-006  0.2502791E+03  0.7818608E-02  0.1242611E+00
          2   -1    0    0  502    0  0.00000000000E+00  0.00000000000E+00  0.23848208588E+04  0.23848208588E+04  0.00000000000E+00 0. -1.
          1   -1    0    0  501    0 -0.00000000000E+00 -0.00000000000E+00 -0.49212598597E+03  0.49212598597E+03  0.00000000000E+00 0. -1.
         25    2    1    2    0    0  0.44932651446E+02 -0.25317790000E+03  0.12663879698E+04  0.12982609946E+04  0.12500051100E+03 0.  0.
          2    1    1    2  501    0 -0.57487413098E+02  0.61824081423E+01 -0.46048933730E+03  0.46410500385E+03  0.00000000000E+00 0. -1.
          1    1    1    2  502    0  0.12554761652E+02  0.24699549186E+03  0.10867962403E+04  0.11145808464E+04  0.00000000000E+00 0. -1.
         22    1    3    3    0    0 -0.20522869540E+02 -0.20137184309E+03  0.90289294248E+03  0.92530398948E+03  0.00000000000E+00 0. -1.
         22    1    3    3    0    0  0.65455520986E+02 -0.51806056910E+02  0.36349502732E+03  0.37295700509E+03  0.00000000000E+00 0. -1.
</event>
<event>
 7    1  0.6188600E-006  0.2032460E+03  0.7818608E-02  0.1232118E+00
          2   -1    0    0  502    0  0.00000000000E+00  0.00000000000E+00  0.15432745908E+04  0.15432745908E+04  0.00000000000E+00 0. -1.
          1   -1    0    0  501    0 -0.00000000000E+00 -0.00000000000E+00 -0.46326748321E+03  0.46326748321E+03  0.00000000000E+00 0. -1.
         25    2    1    2    0    0  0.40982791314E+02 -0.13539977777E+03 -0.40052689486E+02  0.19298099951E+03  0.12499903692E+03 0.  0.
          2    1    1    2  501    0  0.67608055706E+02 -0.41332921906E+02 -0.33476876608E+03  0.34401945639E+03  0.00000000000E+00 0. -1.
          1    1    1    2  502    0 -0.10859084702E+03  0.17673269968E+03  0.14548285632E+04  0.14695416181E+04  0.00000000000E+00 0. -1.
         22    1    3    3    0    0 -0.37957001535E+02 -0.86254114583E+01 -0.25872629784E+01  0.39010583411E+02  0.00000000000E+00 0. -1.
         22    1    3    3    0    0  0.78939792849E+02 -0.12677436632E+03 -0.37465426508E+02  0.15397041610E+03  0.00000000000E+00 0. -1.
</event>
<event>
 7    1  0.6188600E-006  0.6495348E+02  0.7818608E-02  0.1468803E+00
          2   -1    0    0  502    0  0.00000000000E+00  0.00000000000E+00  0.27869439726E+04  0.27869439726E+04  0.00000000000E+00 0. -1.
          1   -1    0    0  501    0 -0.00000000000E+00 -0.00000000000E+00 -0.60149753883E+02  0.60149753883E+02  0.00000000000E+00 0. -1.
         25    2    1    2    0    0  0.32975690158E+02 -0.77801122509E+02  0.15341201114E+03  0.21517787146E+03  0.12500344154E+03 0.  0.
          2    1    1    2  501    0 -0.29661835518E+02  0.13122518275E+02 -0.19750140576E+02  0.37974899934E+02  0.00000000000E+00 0. -1.
          1    1    1    2  502    0 -0.33138546394E+01  0.64678604233E+02  0.25931323481E+04  0.25939409551E+04  0.00000000000E+00 0. -1.
         22    1    3    3    0    0 -0.25771141734E+02 -0.28610204855E+02 -0.53668018546E+01  0.38877990307E+02  0.00000000000E+00 0.  1.
         22    1    3    3    0    0  0.58746831892E+02 -0.49190917653E+02  0.15877881300E+03  0.17629988115E+03  0.00000000000E+00 0.  1.
</event>
<event>
 7    1  0.6188600E-006  0.9663350E+02  0.7818608E-02  0.1367270E+00
          2   -1    0    0  502    0  0.00000000000E+00  0.00000000000E+00  0.24283777666E+03  0.24283777666E+03  0.00000000000E+00 0. -1.
          1   -1    0    0  501    0 -0.00000000000E+00 -0.00000000000E+00 -0.12712483360E+04  0.12712483360E+04  0.00000000000E+00 0. -1.
         25    2    1    2    0    0  0.82708944352E+02 -0.80327428543E+02  0.13236310478E+03  0.21549567911E+03  0.12500052382E+03 0.  0.
          2    1    1    2  501    0 -0.35867813306E+02  0.89626401761E+02 -0.12192646740E+04  0.12230804296E+04  0.00000000000E+00 0. -1.
          1    1    1    2  502    0 -0.46841131046E+02 -0.92989732180E+01  0.58491009898E+02  0.75510003969E+02  0.00000000000E+00 0. -1.
         22    1    3    3    0    0  0.17906648337E+02  0.23839439547E+02 -0.61740363223E+01  0.30448081337E+02  0.00000000000E+00 0. -1.
         22    1    3    3    0    0  0.64802296014E+02 -0.10416686809E+03  0.13853714110E+03  0.18504759777E+03  0.00000000000E+00 0. -1.
</event>
<event>
 7    1  0.6188600E-006  0.5743979E+02  0.7818608E-02  0.1427948E+00
          2   -1    0    0  502    0  0.00000000000E+00  0.00000000000E+00  0.86114961235E+03  0.86114961235E+03  0.00000000000E+00 0. -1.
          1   -1    0    0  501    0 -0.00000000000E+00 -0.00000000000E+00 -0.10816939200E+03  0.10816939200E+03  0.00000000000E+00 0. -1.
         25    2    1    2    0    0 -0.68049055717E+02 -0.53184678676E+02  0.82365403732E+02  0.17282565407E+03  0.12500145177E+03 0.  0.
          2    1    1    2  501    0  0.11199643597E+02  0.48315321099E+02 -0.51866171590E+02  0.71762817845E+02  0.00000000000E+00 0. -1.
          1    1    1    2  502    0  0.56849412121E+02  0.48693575770E+01  0.72248098821E+03  0.72473053243E+03  0.00000000000E+00 0. -1.
         22    1    3    3    0    0  0.46283705879E+01  0.59197496360E+01  0.78720129761E+02  0.79077962035E+02  0.00000000000E+00 0. -1.
         22    1    3    3    0    0 -0.72677426305E+02 -0.59104428312E+02  0.36452739708E+01  0.93747692039E+02  0.00000000000E+00 0. -1.
</event>
<event>
 7    1  0.6188600E-006  0.2038501E+03  0.7818608E-02  0.1326309E+00
          2   -1    0    0  502    0  0.00000000000E+00  0.00000000000E+00  0.55847175163E+03  0.55847175163E+03  0.00000000000E+00 0. -1.
          1   -1    0    0  501    0 -0.00000000000E+00 -0.00000000000E+00 -0.43188834706E+03  0.43188834706E+03  0.00000000000E+00 0. -1.
         25    2    1    2    0    0 -0.22749983615E+03 -0.11638004741E+02 -0.48721239091E+02  0.26436925645E+03  0.12500290403E+03 0.  0.
          2    1    1    2  501    0  0.19551714988E+03  0.15056820121E+02 -0.23972744017E+03  0.30971423812E+03  0.00000000000E+00 0. -1.
          1    1    1    2  502    0  0.31982686274E+02 -0.34188153804E+01  0.41503208383E+03  0.41627660411E+03  0.00000000000E+00 0. -1.
         22    1    3    3    0    0 -0.88361701409E+02 -0.63417045219E+02 -0.21827823266E+01  0.10878546060E+03  0.00000000000E+00 0. -1.
         22    1    3    3    0    0 -0.13913813474E+03  0.51779040478E+02 -0.46538456765E+02  0.15558379585E+03  0.00000000000E+00 0. -1.
</event>
<event>
 7    1  0.6188600E-006  0.1155789E+03  0.7818608E-02  0.1280503E+00
          2   -1    0    0  502    0  0.00000000000E+00  0.00000000000E+00  0.32343828936E+02  0.32343828936E+02  0.00000000000E+00 0. -1.
          1   -1    0    0  501    0 -0.00000000000E+00 -0.00000000000E+00 -0.29335044409E+04  0.29335044409E+04  0.00000000000E+00 0. -1.
         25    2    1    2    0    0 -0.38600082485E+02 -0.35829462239E+02 -0.19150091531E+04  0.19198070667E+04  0.12500160015E+03 0.  0.
          2    1    1    2  501    0 -0.81775942510E+02  0.27732825822E+02 -0.88327764188E+03  0.88748848277E+03  0.00000000000E+00 0. -1.
          1    1    1    2  502    0  0.12037602500E+03  0.80966364163E+01 -0.10287381689E+03  0.15855272031E+03  0.00000000000E+00 0. -1.
         22    1    3    3    0    0 -0.33009277114E+02  0.20928835826E+02 -0.19637189907E+03  0.20022375306E+03  0.00000000000E+00 0.  1.
         22    1    3    3    0    0 -0.55908053707E+01 -0.56758298064E+02 -0.17186372541E+04  0.17195833137E+04  0.00000000000E+00 0.  1.
</event>
<event>
 7    1  0.6188600E-006  0.2597215E+03  0.7818608E-02  0.1232561E+00
          2   -1    0    0  502    0  0.00000000000E+00  0.00000000000E+00  0.86826493648E+03  0.86826493648E+03  0.00000000000E+00 0. -1.
          1   -1    0    0  501    0 -0.00000000000E+00 -0.00000000000E+00 -0.11825354908E+04  0.11825354908E+04  0.00000000000E+00 0. -1.
         25    2    1    2    0    0 -0.29347176350E+03 -0.77001954770E+02 -0.18054314184E+03  0.37453305212E+03  0.12499681618E+03 0.  0.
          2    1    1    2  501    0  0.57233836892E+02 -0.23124070253E+02 -0.88255011626E+03  0.88470624641E+03  0.00000000000E+00 0. -1.
          1    1    1    2  502    0  0.23623792660E+03  0.10012602502E+03  0.74882270379E+03  0.79156112876E+03  0.00000000000E+00 0. -1.
         22    1    3    3    0    0 -0.74709799030E+02  0.34796520114E+02 -0.48351487761E+02  0.95552175547E+02  0.00000000000E+00 0.  1.
         22    1    3    3    0    0 -0.21876196447E+03 -0.11179847488E+03 -0.13219165408E+03  0.27898087657E+03  0.00000000000E+00 0.  1.
</event>
<event>
 7    1  0.6188600E-006  0.1217934E+03  0.7818608E-02  0.1439592E+00
          2   -1    0    0  502    0  0.00000000000E+00  0.00000000000E+00  0.50689181602E+03  0.50689181602E+03  0.00000000000E+00 0. -1.
          1   -1    0    0  501    0 -0.00000000000E+00 -0.00000000000E+00 -0.38134011626E+03  0.38134011626E+03  0.00000000000E+00 0. -1.
         25    2    1    2    0    0  0.87905622997E+02 -0.53260412668E+02  0.64023038692E+01  0.16195657793E+03  0.12499949411E+03 0.  0.
          2    1    1    2  501    0  0.19727368588E+02 -0.83570851836E+01 -0.29406792473E+03  0.29484734067E+03  0.00000000000E+00 0. -1.
          1    1    1    2  502    0 -0.10763299158E+03  0.61617497852E+02  0.41321732062E+03  0.43142801367E+03  0.00000000000E+00 0. -1.
         22    1    3    3    0    0  0.73051265366E+01 -0.48151719442E+02  0.50317199145E+02  0.70026948303E+02  0.00000000000E+00 0. -1.
         22    1    3    3    0    0  0.80600496460E+02 -0.51086932265E+01 -0.43914895276E+02  0.91929629626E+02  0.00000000000E+00 0. -1.
</event>
<event>
 7    1  0.6188600E-006  0.5793410E+02  0.7818608E-02  0.1444015E+00
          2   -1    0    0  502    0  0.00000000000E+00  0.00000000000E+00  0.22096925255E+03  0.22096925255E+03  0.00000000000E+00 0. -1.
          1   -1    0    0  501    0 -0.00000000000E+00 -0.00000000000E+00 -0.44528603826E+03  0.44528603826E+03  0.00000000000E+00 0. -1.
         25    2    1    2    0    0 -0.12536548542E+02  0.91932795669E+02 -0.11411202287E+03  0.19301489969E+03  0.12499757506E+03 0.  0.
          2    1    1    2  501    0 -0.10389372720E+02 -0.54871201362E+02 -0.28637017356E+03  0.29176474103E+03  0.00000000000E+00 0. -1.
          1    1    1    2  502    0  0.22925921261E+02 -0.37061594307E+02  0.17616541072E+03  0.18147565008E+03  0.00000000000E+00 0. -1.
         22    1    3    3    0    0  0.56278693599E+02  0.35407077861E+02 -0.44959467017E+02  0.80263978162E+02  0.00000000000E+00 0.  1.
         22    1    3    3    0    0 -0.68815242140E+02  0.56525717808E+02 -0.69152555850E+02  0.11275092153E+03  0.00000000000E+00 0.  1.
</event>
<event>
 7    1  0.6188600E-006  0.1329721E+03  0.7818608E-02  0.1424390E+00
          2   -1    0    0  502    0  0.00000000000E+00  0.00000000000E+00  0.50573414888E+03  0.50573414888E+03  0.00000000000E+00 0. -1.
          1   -1    0    0  501    0 -0.00000000000E+00 -0.00000000000E+00 -0.68825507663E+03  0.68825507663E+03  0.00000000000E+00 0. -1.
         25    2    1    2    0    0  0.10142566130E+03  0.11459190041E+03 -0.36531539288E+03  0.41532048507E+03  0.12496919875E+03 0.  0.
          2    1    1    2  501    0 -0.81944515216E+01 -0.20430973407E+02 -0.28837863798E+03  0.28921758686E+03  0.00000000000E+00 0. -1.
          1    1    1    2  502    0 -0.93231209776E+02 -0.94160927005E+02  0.47117310310E+03  0.48945115358E+03  0.00000000000E+00 0. -1.
         22    1    3    3    0    0  0.81585481660E+02  0.98579515097E+02 -0.14440120350E+03  0.19293993674E+03  0.00000000000E+00 0. -1.
         22    1    3    3    0    0  0.19840179638E+02  0.16012385315E+02 -0.22091418937E+03  0.22238054834E+03  0.00000000000E+00 0. -1.
</event>
<event>
 7    1  0.6188600E-006  0.1335473E+03  0.7818608E-02  0.1267553E+00
          2   -1    0    0  502    0  0.00000000000E+00  0.00000000000E+00  0.96569377491E+03  0.96569377491E+03  0.00000000000E+00 0. -1.
          1   -1    0    0  501    0 -0.00000000000E+00 -0.00000000000E+00 -0.41811961842E+03  0.41811961842E+03  0.00000000000E+00 0. -1.
         25    2    1    2    0    0 -0.65086052700E+02 -0.12761545981E+03 -0.52890312087E+02  0.19734328017E+03  0.12500034110E+03 0.  0.
          2    1    1    2  501    0 -0.53776708768E+02  0.65352367882E+02 -0.28171024949E+03  0.29414882469E+03  0.00000000000E+00 0. -1.
          1    1    1    2  502    0  0.11886276147E+03  0.62263091924E+02  0.88217471807E+03  0.89232128848E+03  0.00000000000E+00 0. -1.
         22    1    3    3    0    0 -0.98428762499E+02 -0.12109557922E+03 -0.45832838002E+02  0.16264381216E+03  0.00000000000E+00 0.  1.
         22    1    3    3    0    0  0.33342709799E+02 -0.65198805873E+01 -0.70574740852E+01  0.34699468009E+02  0.00000000000E+00 0.  1.
</event>
<event>
 7    1  0.6188600E-006  0.1386175E+03  0.7818608E-02  0.1259456E+00
          2   -1    0    0  502    0  0.00000000000E+00  0.00000000000E+00  0.28903219742E+04  0.28903219742E+04  0.00000000000E+00 0. -1.
          1   -1    0    0  501    0 -0.00000000000E+00 -0.00000000000E+00 -0.55432263119E+02  0.55432263119E+02  0.00000000000E+00 0. -1.
         25    2    1    2    0    0  0.10457356177E+03 -0.14997022705E+03  0.47445338850E+03  0.52360122318E+03  0.12500209692E+03 0.  0.
          2    1    1    2  501    0 -0.11419630471E+03  0.62244744025E+02  0.11099942620E+03  0.17098560403E+03  0.00000000000E+00 0. -1.
          1    1    1    2  502    0  0.96227429359E+01  0.87725483024E+02  0.22494368964E+04  0.22511674101E+04  0.00000000000E+00 0. -1.
         22    1    3    3    0    0  0.84847690063E+02 -0.50162270410E+02  0.12246162922E+03  0.15720125481E+03  0.00000000000E+00 0.  1.
         22    1    3    3    0    0  0.19725871707E+02 -0.99807956639E+02  0.35199175928E+03  0.36639996837E+03  0.00000000000E+00 0.  1.
</event>
<event>
 7    1  0.6188600E-006  0.1166263E+03  0.7818608E-02  0.1332770E+00
          2   -1    0    0  502    0  0.00000000000E+00  0.00000000000E+00  0.16587468464E+03  0.16587468464E+03  0.00000000000E+00 0. -1.
          1   -1    0    0  501    0 -0.00000000000E+00 -0.00000000000E+00 -0.21518891455E+03  0.21518891455E+03  0.00000000000E+00 0. -1.
         25    2    1    2    0    0  0.10416505378E+03  0.15300735365E+02 -0.35284689579E+02  0.16719747556E+03  0.12500206231E+03 0.  0.
          2    1    1    2  501    0  0.15207844590E+02 -0.50888629173E+02 -0.60871294759E+02  0.80785182069E+02  0.00000000000E+00 0. -1.
          1    1    1    2  502    0 -0.11937289837E+03  0.35587893808E+02  0.46841754429E+02  0.13308094157E+03  0.00000000000E+00 0. -1.
         22    1    3    3    0    0  0.31354283519E+02  0.36699116674E+02 -0.68957237914E+02  0.84172542555E+02  0.00000000000E+00 0. -1.
         22    1    3    3    0    0  0.72810770259E+02 -0.21398381308E+02  0.33672548335E+02  0.83024933000E+02  0.00000000000E+00 0. -1.
</event>
<event>
 7    1  0.6188600E-006  0.1084454E+03  0.7818608E-02  0.1318651E+00
          2   -1    0    0  502    0  0.00000000000E+00  0.00000000000E+00  0.35622596477E+04  0.35622596477E+04  0.00000000000E+00 0. -1.
          1   -1    0    0  501    0 -0.00000000000E+00 -0.00000000000E+00 -0.11132722272E+03  0.11132722272E+03  0.00000000000E+00 0. -1.
         25    2    1    2    0    0  0.15573402369E+02  0.80699378267E+02  0.21218871012E+03  0.25962250601E+03  0.12499950565E+03 0.  0.
          2    1    1    2  501    0 -0.80290576273E+02 -0.81781326038E+02 -0.49674476267E+02  0.12490922912E+03  0.00000000000E+00 0. -1.
          1    1    1    2  502    0  0.64717173903E+02  0.10819477707E+01  0.32884181912E+04  0.32890551353E+04  0.00000000000E+00 0. -1.
         22    1    3    3    0    0 -0.20555662934E+02  0.10435370051E+03  0.14765969482E+03  0.18197696437E+03  0.00000000000E+00 0. -1.
         22    1    3    3    0    0  0.36129065303E+02 -0.23654322244E+02  0.64529015302E+02  0.77645541638E+02  0.00000000000E+00 0. -1.
</event>
<event>
 7    1  0.6188600E-006  0.4445261E+02  0.7818608E-02  0.1582224E+00
          2   -1    0    0  502    0  0.00000000000E+00  0.00000000000E+00  0.12343032635E+04  0.12343032635E+04  0.00000000000E+00 0. -1.
          1   -1    0    0  501    0 -0.00000000000E+00 -0.00000000000E+00 -0.17813062958E+03  0.17813062958E+03  0.00000000000E+00 0. -1.
         25    2    1    2    0    0  0.55867275527E+02  0.92674049275E+01  0.11069800446E+03  0.17631378607E+03  0.12500186278E+03 0.  0.
          2    1    1    2  501    0 -0.43298108538E+02  0.91543191958E+01 -0.14183647325E+03  0.14858032477E+03  0.00000000000E+00 0. -1.
          1    1    1    2  502    0 -0.12569166989E+02 -0.18421724123E+02  0.10873111027E+04  0.10875397822E+04  0.00000000000E+00 0. -1.
         22    1    3    3    0    0 -0.37141404523E+02  0.15757597964E+02  0.53223879881E+02  0.66787477967E+02  0.00000000000E+00 0. -1.
         22    1    3    3    0    0  0.93008680051E+02 -0.64901930364E+01  0.57474124583E+02  0.10952630810E+03  0.00000000000E+00 0. -1.
</event>
<event>
 7    1  0.6188600E-006  0.1557551E+03  0.7818608E-02  0.1267555E+00
          2   -1    0    0  502    0  0.00000000000E+00  0.00000000000E+00  0.75397612671E+03  0.75397612671E+03  0.00000000000E+00 0. -1.
          1   -1    0    0  501    0 -0.00000000000E+00 -0.00000000000E+00 -0.11932142437E+04  0.11932142437E+04  0.00000000000E+00 0. -1.
         25    2    1    2    0    0  0.75860990756E+02 -0.54754589724E+02 -0.44061317015E+02  0.16223436538E+03  0.12500253852E+03 0.  0.
          2    1    1    2  501    0  0.71709850217E+02 -0.11106713666E+02 -0.10794364099E+04  0.10818727396E+04  0.00000000000E+00 0. -1.
          1    1    1    2  502    0 -0.14757084097E+03  0.65861303390E+02  0.68425960991E+03  0.70308326544E+03  0.00000000000E+00 0. -1.
         22    1    3    3    0    0  0.32246947675E+02  0.40879629120E+01 -0.75749983783E+02  0.82429588852E+02  0.00000000000E+00 0.  1.
         22    1    3    3    0    0  0.43614043081E+02 -0.58842552636E+02  0.31688666768E+02  0.79804776525E+02  0.00000000000E+00 0.  1.
</event>
<event>
 7    1  0.6188600E-006  0.9189448E+02  0.7818608E-02  0.1384367E+00
          2   -1    0    0  502    0  0.00000000000E+00  0.00000000000E+00  0.20576168376E+04  0.20576168376E+04  0.00000000000E+00 0. -1.
          1   -1    0    0  501    0 -0.00000000000E+00 -0.00000000000E+00 -0.21629303919E+03  0.21629303919E+03  0.00000000000E+00 0. -1.
         25    2    1    2    0    0 -0.93671791025E+02  0.90123896020E+02  0.12509217250E+03  0.21947561728E+03  0.12499909557E+03 0.  0.
          2    1    1    2  501    0  0.54540770547E+02 -0.70796169789E+02 -0.15702166242E+03  0.18067262044E+03  0.00000000000E+00 0. -1.
          1    1    1    2  502    0  0.39131020479E+02 -0.19327726231E+02  0.18732532883E+04  0.18737616390E+04  0.00000000000E+00 0. -1.
         22    1    3    3    0    0 -0.51483064142E+02 -0.20430217673E+02  0.69120761555E+02  0.88575275137E+02  0.00000000000E+00 0. -1.
         22    1    3    3    0    0 -0.42188726883E+02  0.11055411369E+03  0.55971410943E+02  0.13090034214E+03  0.00000000000E+00 0. -1.
</event>
<event>
 7    1  0.6188600E-006  0.1101665E+03  0.7818608E-02  0.1343721E+00
          2   -1    0    0  502    0  0.00000000000E+00  0.00000000000E+00  0.15391483772E+03  0.15391483772E+03  0.00000000000E+00 0. -1.
          1   -1    0    0  501    0 -0.00000000000E+00 -0.00000000000E+00 -0.77910906449E+03  0.77910906449E+03  0.00000000000E+00 0. -1.
         25    2    1    2    0    0 -0.13876636275E+03 -0.47716447567E+02 -0.43126414620E+03  0.47237977981E+03  0.12498371805E+03 0.  0.
          2    1    1    2  501    0  0.88027155334E+02  0.41446253051E+02 -0.31475390776E+03  0.32944892536E+03  0.00000000000E+00 0. -1.
          1    1    1    2  502    0  0.50739207418E+02  0.62701945155E+01  0.12082382719E+03  0.13119519704E+03  0.00000000000E+00 0. -1.
         22    1    3    3    0    0 -0.12842666899E+03 -0.66178488588E+02 -0.42701976775E+03  0.45079805203E+03  0.00000000000E+00 0. -1.
         22    1    3    3    0    0 -0.10339693764E+02  0.18462041021E+02 -0.42443784471E+01  0.21581727786E+02  0.00000000000E+00 0. -1.
</event>
<event>
 7    1  0.6188600E-006  0.1030522E+03  0.7818608E-02  0.1419820E+00
          2   -1    0    0  502    0  0.00000000000E+00  0.00000000000E+00  0.92101840993E+03  0.92101840993E+03  0.00000000000E+00 0. -1.
          1   -1    0    0  501    0 -0.00000000000E+00 -0.00000000000E+00 -0.26809592532E+03  0.26809592532E+03  0.00000000000E+00 0. -1.
         25    2    1    2    0    0  0.11288838118E+03  0.21502340326E+02  0.48720385073E+03  0.51594425023E+03  0.12499895972E+03 0.  0.
          2    1    1    2  501    0 -0.10269578601E+03  0.60924209606E+01 -0.24274685169E+03  0.26364668795E+03  0.00000000000E+00 0. -1.
          1    1    1    2  502    0 -0.10192595173E+02 -0.27594761286E+02  0.40846548557E+03  0.40952339707E+03  0.00000000000E+00 0. -1.
         22    1    3    3    0    0  0.11856558013E+03  0.58602768314E+02  0.38139234927E+03  0.40367338942E+03  0.00000000000E+00 0. -1.
         22    1    3    3    0    0 -0.56771989475E+01 -0.37100427988E+02  0.10581150147E+03  0.11227086081E+03  0.00000000000E+00 0. -1.
</event>
<event>
 7    1  0.6188600E-006  0.8033512E+02  0.7818608E-02  0.1422147E+00
          2   -1    0    0  502    0  0.00000000000E+00  0.00000000000E+00  0.12359891523E+03  0.12359891523E+03  0.00000000000E+00 0. -1.
          1   -1    0    0  501    0 -0.00000000000E+00 -0.00000000000E+00 -0.85459756392E+03  0.85459756392E+03  0.00000000000E+00 0. -1.
         25    2    1    2    0    0  0.10240663113E+03 -0.40856420274E+02 -0.62118985377E+03  0.64316259910E+03  0.12499971710E+03 0.  0.
          2    1    1    2  501    0 -0.36801394486E+02 -0.44310609787E+01 -0.20645276489E+03  0.20975395364E+03  0.00000000000E+00 0. -1.
          1    1    1    2  502    0 -0.65605236643E+02  0.45287481253E+02  0.96643969968E+02  0.12527992642E+03  0.00000000000E+00 0. -1.
         22    1    3    3    0    0  0.99322249717E+02 -0.76363406211E+02 -0.54248395346E+03  0.55676307246E+03  0.00000000000E+00 0.  1.
         22    1    3    3    0    0  0.30843814121E+01  0.35506985937E+02 -0.78705900312E+02  0.86399526636E+02  0.00000000000E+00 0.  1.
</event>
<event>
 7    1  0.6188600E-006  0.1917128E+03  0.7818608E-02  0.1283891E+00
          2   -1    0    0  502    0  0.00000000000E+00  0.00000000000E+00  0.14913944666E+04  0.14913944666E+04  0.00000000000E+00 0. -1.
          1   -1    0    0  501    0 -0.00000000000E+00 -0.00000000000E+00 -0.34430012346E+03  0.34430012346E+03  0.00000000000E+00 0. -1.
         25    2    1    2    0    0 -0.11165010414E+02 -0.19695665968E+03  0.30240737150E+03  0.38209036717E+03  0.12500498829E+03 0.  0.
          2    1    1    2  501    0  0.59405990076E+02  0.18231827921E+03 -0.27364221842E+03  0.33413932767E+03  0.00000000000E+00 0. -1.
          1    1    1    2  502    0 -0.48240979662E+02  0.14638380463E+02  0.11183291900E+04  0.11194648952E+04  0.00000000000E+00 0. -1.
         22    1    3    3    0    0  0.30997403334E+02 -0.17808572361E+02  0.10948968758E+02  0.37388021877E+02  0.00000000000E+00 0. -1.
         22    1    3    3    0    0 -0.42162413748E+02 -0.17914808732E+03  0.29145840274E+03  0.34470234529E+03  0.00000000000E+00 0. -1.
</event>
<event>
 7    1  0.6188600E-006  0.8618390E+02  0.7818608E-02  0.1372796E+00
          2   -1    0    0  502    0  0.00000000000E+00  0.00000000000E+00  0.19545474058E+04  0.19545474058E+04  0.00000000000E+00 0. -1.
          1   -1    0    0  501    0 -0.00000000000E+00 -0.00000000000E+00 -0.87236430378E+02  0.87236430378E+02  0.00000000000E+00 0. -1.
         25    2    1    2    0    0  0.35736598905E+02 -0.48607052117E+02  0.22743222861E+03  0.26643880829E+03  0.12499787973E+03 0.  0.
          2    1    1    2  501    0 -0.32349064232E+02 -0.39623295675E+02 -0.56761403245E+02  0.76408928897E+02  0.00000000000E+00 0. -1.
          1    1    1    2  502    0 -0.33875346726E+01  0.88230347792E+02  0.16966401501E+04  0.16989360990E+04  0.00000000000E+00 0. -1.
         22    1    3    3    0    0  0.15069652594E+01 -0.23335197587E+02  0.22236382618E+03  0.22358996754E+03  0.00000000000E+00 0.  1.
         22    1    3    3    0    0  0.34229633646E+02 -0.25271854530E+02  0.50684024346E+01  0.42848840756E+02  0.00000000000E+00 0.  1.
</event>
<event>
 7    1  0.6188600E-006  0.1125881E+03  0.7818608E-02  0.1294315E+00
          2   -1    0    0  502    0  0.00000000000E+00  0.00000000000E+00  0.32572388757E+03  0.32572388757E+03  0.00000000000E+00 0. -1.
          1   -1    0    0  501    0 -0.00000000000E+00 -0.00000000000E+00 -0.27576401576E+03  0.27576401576E+03  0.00000000000E+00 0. -1.
         25    2    1    2    0    0 -0.44912663451E+02  0.35273044722E+02 -0.27220214634E+01  0.13745389032E+03  0.12499931016E+03 0.  0.
          2    1    1    2  501    0 -0.77676059158E+02 -0.51638794601E+01 -0.18178145561E+03  0.19774916794E+03  0.00000000000E+00 0. -1.
          1    1    1    2  502    0  0.12258872261E+03 -0.30109165262E+02  0.23446334888E+03  0.26628484507E+03  0.00000000000E+00 0. -1.
         22    1    3    3    0    0  0.30363228042E+02  0.39062269685E+02 -0.29339942826E+02  0.57520594356E+02  0.00000000000E+00 0. -1.
         22    1    3    3    0    0 -0.75275891492E+02 -0.37892249623E+01  0.26617921362E+02  0.79933295962E+02  0.00000000000E+00 0. -1.
</event>
<event>
 7    1  0.6188600E-006  0.3634438E+03  0.7818608E-02  0.1266116E+00
          2   -1    0    0  502    0  0.00000000000E+00  0.00000000000E+00  0.14485638270E+04  0.14485638270E+04  0.00000000000E+00 0. -1.
          1   -1    0    0  501    0 -0.00000000000E+00 -0.00000000000E+00 -0.19580432711E+04  0.19580432711E+04  0.00000000000E+00 0. -1.
         25    2    1    2    0    0  0.19119253929E+03 -0.34434978931E+03 -0.61490443409E+03  0.74085435750E+03  0.12500540585E+03 0.  0.
          2    1    1    2  501    0 -0.13811566762E+02  0.28350444948E+02 -0.12562687893E+04  0.12566645448E+04  0.00000000000E+00 0. -1.
          1    1    1    2  502    0 -0.17738097253E+03  0.31599934436E+03  0.13616937793E+04  0.14090881959E+04  0.00000000000E+00 0. -1.
         22    1    3    3    0    0  0.12099099644E+02 -0.10523071465E+03 -0.23326604765E+03  0.25618926695E+03  0.00000000000E+00 0. -1.
         22    1    3    3    0    0  0.17909343965E+03 -0.23911907466E+03 -0.38163838644E+03  0.48466509055E+03  0.00000000000E+00 0. -1.
</event>
<event>
 7    1  0.6188600E-006  0.1066092E+03  0.7818608E-02  0.1276487E+00
          2   -1    0    0  502    0  0.00000000000E+00  0.00000000000E+00  0.67139223694E+03  0.67139223694E+03  0.00000000000E+00 0. -1.
          1   -1    0    0  501    0 -0.00000000000E+00 -0.00000000000E+00 -0.98022781141E+03  0.98022781141E+03  0.00000000000E+00 0. -1.
         25    2    1    2    0    0  0.13998029591E+03 -0.78482297246E+02 -0.66340158063E+02  0.21396159818E+03  0.12499837879E+03 0.  0.
          2    1    1    2  501    0 -0.95671629822E+02 -0.17572907884E+02 -0.83254170559E+03  0.83820496264E+03  0.00000000000E+00 0. -1.
          1    1    1    2  502    0 -0.44308666089E+02  0.96055205130E+02  0.59004628919E+03  0.59945348752E+03  0.00000000000E+00 0. -1.
         22    1    3    3    0    0  0.11144306507E+03 -0.61210690994E+02 -0.10355776566E+03  0.16398328046E+03  0.00000000000E+00 0.  1.
         22    1    3    3    0    0  0.28537230842E+02 -0.17271606253E+02  0.37217607594E+02  0.49978317715E+02  0.00000000000E+00 0.  1.
</event>
<event>
 7    1  0.6188600E-006  0.6509037E+02  0.7818608E-02  0.1439069E+00
          2   -1    0    0  502    0  0.00000000000E+00  0.00000000000E+00  0.19869173924E+03  0.19869173924E+03  0.00000000000E+00 0. -1.
          1   -1    0    0  501    0 -0.00000000000E+00 -0.00000000000E+00 -0.30356932886E+03  0.30356932886E+03  0.00000000000E+00 0. -1.
         25    2    1    2    0    0 -0.44437952799E+01  0.26802556523E+02  0.82950534928E+02  0.15246652278E+03  0.12500849960E+03 0.  0.
          2    1    1    2  501    0  0.24009110025E+02 -0.61972035287E+02 -0.25934836063E+03  0.26772848688E+03  0.00000000000E+00 0. -1.
          1    1    1    2  502    0 -0.19565314745E+02  0.35169478764E+02  0.71520236085E+02  0.82066058436E+02  0.00000000000E+00 0. -1.
         22    1    3    3    0    0 -0.61808721800E+02  0.29883719518E+02  0.32274240532E+02  0.75861593608E+02  0.00000000000E+00 0.  1.
         22    1    3    3    0    0  0.57364926520E+02 -0.30811629953E+01  0.50676294396E+02  0.76604929174E+02  0.00000000000E+00 0.  1.
</event>
<event>
 7    1  0.6188600E-006  0.1106728E+03  0.7818608E-02  0.1326476E+00
          2   -1    0    0  502    0  0.00000000000E+00  0.00000000000E+00  0.77023174086E+03  0.77023174086E+03  0.00000000000E+00 0. -1.
          1   -1    0    0  501    0 -0.00000000000E+00 -0.00000000000E+00 -0.14193222212E+04  0.14193222212E+04  0.00000000000E+00 0. -1.
         25    2    1    2    0    0 -0.54639698814E+01 -0.10652137838E+03  0.37160925034E+03  0.40631815895E+03  0.12499740931E+03 0.  0.
          2    1    1    2  501    0 -0.52970458921E+02  0.97299175317E+02 -0.13974676253E+04  0.14018519048E+04  0.00000000000E+00 0. -1.
          1    1    1    2  502    0  0.58434428802E+02  0.92222030678E+01  0.37676789464E+03  0.38138389836E+03  0.00000000000E+00 0. -1.
         22    1    3    3    0    0 -0.40076775362E+02 -0.28068811021E+01  0.19109803611E+03  0.19527541041E+03  0.00000000000E+00 0. -1.
         22    1    3    3    0    0  0.34612805481E+02 -0.10371449728E+03  0.18051121423E+03  0.21104274855E+03  0.00000000000E+00 0. -1.
</event>
<event>
 7    1  0.6188600E-006  0.1367845E+03  0.7818608E-02  0.1320492E+00
          2   -1    0    0  502    0  0.00000000000E+00  0.00000000000E+00  0.19144545112E+04  0.19144545112E+04  0.00000000000E+00 0. -1.
          1   -1    0    0  501    0 -0.00000000000E+00 -0.00000000000E+00 -0.12824680214E+04  0.12824680214E+04  0.00000000000E+00 0. -1.
         25    2    1    2    0    0 -0.13984847768E+03 -0.93913240439E+01  0.27318977501E+03  0.33151710410E+03  0.12500057385E+03 0.  0.
          2    1    1    2  501    0  0.15193869254E+02 -0.48137737831E+02 -0.12498710187E+04  0.12508899467E+04  0.00000000000E+00 0. -1.
          1    1    1    2  502    0  0.12465460842E+03  0.57529061875E+02  0.16086677335E+04  0.16145154818E+04  0.00000000000E+00 0. -1.
         22    1    3    3    0    0  0.96199359540E+01 -0.26628291797E+02  0.13447720289E+02  0.31344062799E+02  0.00000000000E+00 0. -1.
         22    1    3    3    0    0 -0.14946841363E+03  0.17236967753E+02  0.25974205472E+03  0.30017304130E+03  0.00000000000E+00 0. -1.
</event>
<event>
 7    1  0.6188600E-006  0.1100047E+03  0.7818608E-02  0.1380570E+00
          2   -1    0    0  502    0  0.00000000000E+00  0.00000000000E+00  0.14727264076E+03  0.14727264076E+03  0.00000000000E+00 0. -1.
          1   -1    0    0  501    0 -0.00000000000E+00 -0.00000000000E+00 -0.51696369750E+03  0.51696369750E+03  0.00000000000E+00 0. -1.
         25    2    1    2    0    0  0.29777819515E+02 -0.81938106164E+02 -0.48303857235E+02  0.15986842902E+03  0.12499632074E+03 0.  0.
          2    1    1    2  501    0  0.31880076923E+02 -0.19937714584E+02 -0.37277873423E+03  0.37467030368E+03  0.00000000000E+00 0. -1.
          1    1    1    2  502    0 -0.61657896438E+02  0.10187582075E+03  0.51391534715E+02  0.12969760555E+03  0.00000000000E+00 0. -1.
         22    1    3    3    0    0  0.66846213050E+02 -0.90765808698E+02 -0.45824153519E+02  0.12168278955E+03  0.00000000000E+00 0. -1.
         22    1    3    3    0    0 -0.37068393536E+02  0.88277025340E+01 -0.24797037163E+01  0.38185639472E+02  0.00000000000E+00 0. -1.
</event>
<event>
 7    1  0.6188600E-006  0.1385121E+03  0.7818608E-02  0.1303041E+00
          2   -1    0    0  502    0  0.00000000000E+00  0.00000000000E+00  0.55842452740E+03  0.55842452740E+03  0.00000000000E+00 0. -1.
          1   -1    0    0  501    0 -0.00000000000E+00 -0.00000000000E+00 -0.75604835113E+03  0.75604835113E+03  0.00000000000E+00 0. -1.
         25    2    1    2    0    0  0.78194833823E+02 -0.45351902086E+02 -0.23909770578E+03  0.28454103061E+03  0.12499863253E+03 0.  0.
          2    1    1    2  501    0  0.57547389703E+02  0.98078235887E+01 -0.48325359249E+03  0.48676681287E+03  0.00000000000E+00 0. -1.
          1    1    1    2  502    0 -0.13574222353E+03  0.35544078498E+02  0.52472747454E+03  0.54316503505E+03  0.00000000000E+00 0. -1.
         22    1    3    3    0    0  0.29949018001E+02  0.42836102332E+02 -0.63901820720E+02  0.82554939486E+02  0.00000000000E+00 0.  1.
         22    1    3    3    0    0  0.48245815822E+02 -0.88188004418E+02 -0.17519588506E+03  0.20198609113E+03  0.00000000000E+00 0.  1.
</event>
<event>
 7    1  0.6188600E-006  0.8209388E+02  0.7818608E-02  0.1350962E+00
          2   -1    0    0  502    0  0.00000000000E+00  0.00000000000E+00  0.17400817235E+04  0.17400817235E+04  0.00000000000E+00 0. -1.
          1   -1    0    0  501    0 -0.00000000000E+00 -0.00000000000E+00 -0.10618151726E+04  0.10618151726E+04  0.00000000000E+00 0. -1.
         25    2    1    2    0    0 -0.41459952671E+02 -0.13941481166E+03  0.28787175040E+03  0.34590616034E+03  0.12500203876E+03 0.  0.
          2    1    1    2  501    0  0.15913585013E+02  0.80209856411E+02 -0.10304469880E+04  0.10336865378E+04  0.00000000000E+00 0. -1.
          1    1    1    2  502    0  0.25546367657E+02  0.59204955250E+02  0.14208417885E+04  0.14223041980E+04  0.00000000000E+00 0. -1.
         22    1    3    3    0    0 -0.14491621486E+01 -0.13464876869E+03  0.27022615496E+03  0.30191814422E+03  0.00000000000E+00 0. -1.
         22    1    3    3    0    0 -0.40010790522E+02 -0.47660429747E+01  0.17645595436E+02  0.43988016119E+02  0.00000000000E+00 0. -1.
</event>
<event>
 7    1  0.6188600E-006  0.1173419E+03  0.7818608E-02  0.1297800E+00
          2   -1    0    0  502    0  0.00000000000E+00  0.00000000000E+00  0.92430982552E+03  0.92430982552E+03  0.00000000000E+00 0. -1.
          1   -1    0    0  501    0 -0.00000000000E+00 -0.00000000000E+00 -0.27838627556E+04  0.27838627556E+04  0.00000000000E+00 0. -1.
         25    2    1    2    0    0 -0.78706325866E+02  0.10468403474E+03  0.10966227193E+03  0.21166974362E+03  0.12499933448E+03 0.  0.
          2    1    1    2  501    0 -0.32203582786E+02 -0.64751716228E+02 -0.27278278319E+04  0.27287862752E+04  0.00000000000E+00 0. -1.
          1    1    1    2  502    0  0.11090990865E+03 -0.39932318507E+02  0.75861262983E+03  0.76771656231E+03  0.00000000000E+00 0. -1.
         22    1    3    3    0    0  0.24197072099E+02  0.15523522108E+02  0.60368720566E+02  0.66864493264E+02  0.00000000000E+00 0. -1.
         22    1    3    3    0    0 -0.10290339796E+03  0.89160512628E+02  0.49293551369E+02  0.14480525036E+03  0.00000000000E+00 0. -1.
</event>
<event>
 7    1  0.6188600E-006  0.8753242E+02  0.7818608E-02  0.1375971E+00
          2   -1    0    0  502    0  0.00000000000E+00  0.00000000000E+00  0.16756041499E+04  0.16756041499E+04  0.00000000000E+00 0. -1.
          1   -1    0    0  501    0 -0.00000000000E+00 -0.00000000000E+00 -0.43193930441E+03  0.43193930441E+03  0.00000000000E+00 0. -1.
         25    2    1    2    0    0  0.53344381166E+02  0.32233374745E+02 -0.81859909339E+02  0.16187183234E+03  0.12496732332E+03 0.  0.
          2    1    1    2  501    0 -0.93114623896E+02 -0.34979042389E+01 -0.30269511439E+03  0.31671264704E+03  0.00000000000E+00 0. -1.
          1    1    1    2  502    0  0.39770242730E+02 -0.28735470506E+02  0.16282198692E+04  0.16289589749E+04  0.00000000000E+00 0. -1.
         22    1    3    3    0    0  0.73668059458E+01  0.69949409266E+02 -0.14133053774E+02  0.71742127759E+02  0.00000000000E+00 0. -1.
         22    1    3    3    0    0  0.45977575220E+02 -0.37716034520E+02 -0.67726855566E+02  0.90129704581E+02  0.00000000000E+00 0. -1.
</event>
<event>
 7    1  0.6188600E-006  0.1630732E+03  0.7818608E-02  0.1385162E+00
          2   -1    0    0  502    0  0.00000000000E+00  0.00000000000E+00  0.15201089129E+04  0.15201089129E+04  0.00000000000E+00 0. -1.
          1   -1    0    0  501    0 -0.00000000000E+00 -0.00000000000E+00 -0.11420013278E+04  0.11420013278E+04  0.00000000000E+00 0. -1.
         25    2    1    2    0    0 -0.16120115033E+03 -0.94592561185E+02  0.59246101917E+03  0.63369450081E+03  0.12500039046E+03 0.  0.
          2    1    1    2  501    0  0.13839268286E+03  0.85823061196E+02 -0.11153061324E+04  0.11271317143E+04  0.00000000000E+00 0. -1.
          1    1    1    2  502    0  0.22808467471E+02  0.87694999898E+01  0.90095269828E+03  0.90128402563E+03  0.00000000000E+00 0. -1.
         22    1    3    3    0    0 -0.75083970578E+02  0.21491078214E+02  0.25193717283E+03  0.26376468326E+03  0.00000000000E+00 0. -1.
         22    1    3    3    0    0 -0.86117179756E+02 -0.11608363940E+03  0.34052384634E+03  0.36992981755E+03  0.00000000000E+00 0. -1.
</event>
<event>
 7    1  0.6188600E-006  0.7328939E+02  0.7818608E-02  0.1353420E+00
          2   -1    0    0  502    0  0.00000000000E+00  0.00000000000E+00  0.12343625120E+04  0.12343625120E+04  0.00000000000E+00 0. -1.
          1   -1    0    0  501    0 -0.00000000000E+00 -0.00000000000E+00 -0.12769175636E+04  0.12769175636E+04  0.00000000000E+00 0. -1.
         25    2    1    2    0    0 -0.23928149840E+02 -0.29839151549E+02 -0.18560466136E+02  0.13203584121E+03  0.12500416449E+03 0.  0.
          2    1    1    2  501    0 -0.46480686805E+02  0.53318258825E+02 -0.11994069662E+04  0.12014908911E+04  0.00000000000E+00 0. -1.
          1    1    1    2  502    0  0.70408836646E+02 -0.23479107276E+02  0.11754123808E+04  0.11777533433E+04  0.00000000000E+00 0. -1.
         22    1    3    3    0    0 -0.43075148812E+01  0.48018059493E+02  0.47094865708E+01  0.48440354929E+02  0.00000000000E+00 0.  1.
         22    1    3    3    0    0 -0.19620634959E+02 -0.77857211042E+02 -0.23269952707E+02  0.83595486280E+02  0.00000000000E+00 0.  1.
</event>
<event>
 7    1  0.6188600E-006  0.8102889E+02  0.7818608E-02  0.1329950E+00
          2   -1    0    0  502    0  0.00000000000E+00  0.00000000000E+00  0.64608885711E+03  0.64608885711E+03  0.00000000000E+00 0. -1.
          1   -1    0    0  501    0 -0.00000000000E+00 -0.00000000000E+00 -0.10548976723E+04  0.10548976723E+04  0.00000000000E+00 0. -1.
         25    2    1    2    0    0 -0.80366425607E+02  0.11685972393E+03  0.16780236244E+03  0.25277953959E+03  0.12499962141E+03 0.  0.
          2    1    1    2  501    0  0.70559006897E+02 -0.39114305577E+02 -0.10072606023E+04  0.10104862312E+04  0.00000000000E+00 0. -1.
          1    1    1    2  502    0  0.98074187103E+01 -0.77745418353E+02  0.43064942472E+03  0.43772075864E+03  0.00000000000E+00 0. -1.
         22    1    3    3    0    0 -0.68265395258E+02  0.18266783595E+02  0.17808749830E+02  0.72876547278E+02  0.00000000000E+00 0.  1.
         22    1    3    3    0    0 -0.12101030349E+02  0.98592940335E+02  0.14999361261E+03  0.17990299231E+03  0.00000000000E+00 0.  1.
</event>
<event>
 7    1  0.6188600E-006  0.1509356E+03  0.7818608E-02  0.1201665E+00
          2   -1    0    0  502    0  0.00000000000E+00  0.00000000000E+00  0.28598484074E+04  0.28598484074E+04  0.00000000000E+00 0. -1.
          1   -1    0    0  501    0 -0.00000000000E+00 -0.00000000000E+00 -0.12550938451E+04  0.12550938451E+04  0.00000000000E+00 0. -1.
         25    2    1    2    0    0  0.53827436952E+02  0.12177104064E+03 -0.77519586208E+02  0.19839050492E+03  0.12499570748E+03 0.  0.
          2    1    1    2  501    0 -0.15747061269E+03 -0.17304529616E+02 -0.11095750129E+04  0.11208269937E+04  0.00000000000E+00 0. -1.
          1    1    1    2  502    0  0.10364317574E+03 -0.10446651102E+03  0.27918491614E+04  0.27957247539E+04  0.00000000000E+00 0. -1.
         22    1    3    3    0    0 -0.20755817237E+02  0.84931092572E+00  0.17756809573E+02  0.27328182604E+02  0.00000000000E+00 0. -1.
         22    1    3    3    0    0  0.74583254190E+02  0.12092172971E+03 -0.95276395780E+02  0.17106232231E+03  0.00000000000E+00 0. -1.
</event>
<event>
 7    1  0.6188600E-006  0.1009736E+03  0.7818608E-02  0.1290741E+00
          2   -1    0    0  502    0  0.00000000000E+00  0.00000000000E+00  0.19419964680E+04  0.19419964680E+04  0.00000000000E+00 0. -1.
          1   -1    0    0  501    0 -0.00000000000E+00 -0.00000000000E+00 -0.63118209955E+02  0.63118209955E+02  0.00000000000E+00 0. -1.
         25    2    1    2    0    0 -0.53388359325E+01 -0.36809677787E+02  0.21479264438E+03  0.25128472199E+03  0.12499870351E+03 0.  0.
          2    1    1    2  501    0  0.39736739885E+02  0.11970000702E+03  0.47525196065E+02  0.13478035628E+03  0.00000000000E+00 0. -1.
          1    1    1    2  502    0 -0.34397903953E+02 -0.82890329233E+02  0.16165604176E+04  0.16190495997E+04  0.00000000000E+00 0. -1.
         22    1    3    3    0    0  0.22840879696E+01 -0.83125365714E+02  0.14559443641E+03  0.16766867149E+03  0.00000000000E+00 0. -1.
         22    1    3    3    0    0 -0.76229239021E+01  0.46315687927E+02  0.69198207961E+02  0.83616050505E+02  0.00000000000E+00 0. -1.
</event>
<event>
 7    1  0.6188600E-006  0.7597635E+02  0.7818608E-02  0.1424258E+00
          2   -1    0    0  502    0  0.00000000000E+00  0.00000000000E+00  0.39089636740E+03  0.39089636740E+03  0.00000000000E+00 0. -1.
          1   -1    0    0  501    0 -0.00000000000E+00 -0.00000000000E+00 -0.44088331883E+03  0.44088331883E+03  0.00000000000E+00 0. -1.
         25    2    1    2    0    0 -0.71259520512E+02  0.61592327943E+01  0.32966235394E+03  0.35974706944E+03  0.12499932383E+03 0.  0.
          2    1    1    2  501    0 -0.14570002579E+02  0.35707321732E+02 -0.37441201906E+03  0.37639295666E+03  0.00000000000E+00 0. -1.
          1    1    1    2  502    0  0.85829523090E+02 -0.41866554527E+02 -0.52372862994E+01  0.95639660129E+02  0.00000000000E+00 0. -1.
         22    1    3    3    0    0 -0.69062785087E+02 -0.31941228409E+02  0.30490552555E+03  0.31425672605E+03  0.00000000000E+00 0.  1.
         22    1    3    3    0    0 -0.21967354246E+01  0.38100461203E+02  0.24756828385E+02  0.45490343394E+02  0.00000000000E+00 0.  1.
</event>
<event>
 7    1  0.6188600E-006  0.2863937E+02  0.7818608E-02  0.1660854E+00
          2   -1    0    0  502    0  0.00000000000E+00  0.00000000000E+00  0.22953135041E+04  0.22953135041E+04  0.00000000000E+00 0. -1.
          1   -1    0    0  501    0 -0.00000000000E+00 -0.00000000000E+00 -0.43042118669E+02  0.43042118669E+02  0.00000000000E+00 0. -1.
         25    2    1    2    0    0  0.28225984738E+02 -0.66835010293E+01  0.13293096989E+04  0.13354866754E+04  0.12497603469E+03 0.  0.
          2    1    1    2  501    0 -0.24529049964E+02 -0.14842416333E+02 -0.34669747729E+02  0.44988476550E+02  0.00000000000E+00 0. -1.
          1    1    1    2  502    0 -0.36969347746E+01  0.21525917362E+02  0.95763143420E+03  0.95788047074E+03  0.00000000000E+00 0. -1.
         22    1    3    3    0    0 -0.13416970633E+02 -0.28436858560E+02  0.11400191723E+04  0.11404527098E+04  0.00000000000E+00 0. -1.
         22    1    3    3    0    0  0.41642955371E+02  0.21753357531E+02  0.18929052662E+03  0.19503396567E+03  0.00000000000E+00 0. -1.
</event>
<event>
 7    1  0.1729033E-005  0.7624302E+02  0.7818608E-02  0.1372616E+00
          2   -1    0    0  502    0  0.00000000000E+00  0.00000000000E+00  0.21056853884E+04  0.21056853884E+04  0.00000000000E+00 0. -1.
          1   -1    0    0  501    0 -0.00000000000E+00 -0.00000000000E+00 -0.14729339551E+04  0.14729339551E+04  0.00000000000E+00 0. -1.
         25    2    1    2    0    0  0.72793437094E+02 -0.82256963721E+02 -0.20934546644E+03  0.26742419856E+03  0.12500034037E+03 0.  0.
          2    1    1    2  501    0 -0.60358498404E+00  0.57903433996E+02 -0.12331707023E+04  0.12345295270E+04  0.00000000000E+00 0. -1.
          1    1    1    2  502    0 -0.72189852110E+02  0.24353529725E+02  0.20752676020E+04  0.20766656180E+04  0.00000000000E+00 0. -1.
         22    1    3    3    0    0  0.87409075310E+02 -0.36188680671E+02 -0.19543895119E+03  0.21713210425E+03  0.00000000000E+00 0. -1.
         22    1    3    3    0    0 -0.14615638217E+02 -0.46068283050E+02 -0.13906515251E+02  0.50292094310E+02  0.00000000000E+00 0. -1.
</event>
<event>
 7    1  0.6188600E-006  0.7084960E+02  0.7818608E-02  0.1363116E+00
          2   -1    0    0  502    0  0.00000000000E+00  0.00000000000E+00  0.59458358680E+02  0.59458358680E+02  0.00000000000E+00 0. -1.
          1   -1    0    0  501    0 -0.00000000000E+00 -0.00000000000E+00 -0.17660053530E+04  0.17660053530E+04  0.00000000000E+00 0. -1.
         25    2    1    2    0    0  0.80530973385E+02 -0.33432646641E+02 -0.10277548246E+04  0.10389937951E+04  0.12500058906E+03 0.  0.
          2    1    1    2  501    0 -0.58162362502E+02 -0.34116695324E+02 -0.70679296916E+03  0.71000219053E+03  0.00000000000E+00 0. -1.
          1    1    1    2  502    0 -0.22368610884E+02  0.67549341965E+02  0.28000799449E+02  0.76467726019E+02  0.00000000000E+00 0. -1.
         22    1    3    3    0    0  0.25254950755E+02  0.41610362552E+02 -0.19264818454E+03  0.19870218372E+03  0.00000000000E+00 0. -1.
         22    1    3    3    0    0  0.55276022630E+02 -0.75043009194E+02 -0.83510664008E+03  0.84029161141E+03  0.00000000000E+00 0. -1.
</event>
<event>
 7    1  0.6188600E-006  0.4069979E+02  0.7818608E-02  0.1540712E+00
          2   -1    0    0  502    0  0.00000000000E+00  0.00000000000E+00  0.18408399126E+04  0.18408399126E+04  0.00000000000E+00 0. -1.
          1   -1    0    0  501    0 -0.00000000000E+00 -0.00000000000E+00 -0.69033710388E+03  0.69033710388E+03  0.00000000000E+00 0. -1.
         25    2    1    2    0    0 -0.30526827484E+01 -0.91512624913E+01  0.18968770469E+03  0.22737613743E+03  0.12500167232E+03 0.  0.
          2    1    1    2  501    0 -0.29603495982E+01 -0.31535648961E+02 -0.67086008706E+03  0.67160741303E+03  0.00000000000E+00 0. -1.
          1    1    1    2  502    0  0.60130323465E+01  0.40686911452E+02  0.16316751911E+04  0.16321934660E+04  0.00000000000E+00 0. -1.
         22    1    3    3    0    0  0.33611453280E+02 -0.40782773875E+02  0.30569506899E+02  0.61052921213E+02  0.00000000000E+00 0.  1.
         22    1    3    3    0    0 -0.36664136029E+02  0.31631511384E+02  0.15911819779E+03  0.16632321622E+03  0.00000000000E+00 0.  1.
</event>
<event>
 7    1  0.6188600E-006  0.1028989E+03  0.7818608E-02  0.1370389E+00
          2   -1    0    0  502    0  0.00000000000E+00  0.00000000000E+00  0.11146242098E+03  0.11146242098E+03  0.00000000000E+00 0. -1.
          1   -1    0    0  501    0 -0.00000000000E+00 -0.00000000000E+00 -0.28129623688E+04  0.28129623688E+04  0.00000000000E+00 0. -1.
         25    2    1    2    0    0  0.72725925450E+02  0.75777202797E+02 -0.52095204215E+03  0.54593323398E+03  0.12498328309E+03 0.  0.
          2    1    1    2  501    0 -0.38066480168E+02  0.21467012120E+02 -0.22523288968E+04  0.22527528379E+04  0.00000000000E+00 0. -1.
          1    1    1    2  502    0 -0.34659445282E+02 -0.97244214917E+02  0.71780991115E+02  0.12573871785E+03  0.00000000000E+00 0. -1.
         22    1    3    3    0    0  0.33570940895E+02  0.10681684083E+03 -0.39065789835E+03  0.40638705578E+03  0.00000000000E+00 0.  1.
         22    1    3    3    0    0  0.39154984555E+02 -0.31039638030E+02 -0.13029414379E+03  0.13954617820E+03  0.00000000000E+00 0.  1.
</event>
<event>
 7    1  0.6188600E-006  0.6538866E+02  0.7818608E-02  0.1429234E+00
          2   -1    0    0  502    0  0.00000000000E+00  0.00000000000E+00  0.21081553922E+04  0.21081553922E+04  0.00000000000E+00 0. -1.
          1   -1    0    0  501    0 -0.00000000000E+00 -0.00000000000E+00 -0.15584651444E+03  0.15584651444E+03  0.00000000000E+00 0. -1.
         25    2    1    2    0    0 -0.44095342887E+02 -0.41945891683E+02 -0.26284114456E+02  0.14149154368E+03  0.12500058067E+03 0.  0.
          2    1    1    2  501    0  0.10470229006E+02  0.68977772954E+02 -0.54764958676E+02  0.88694754952E+02  0.00000000000E+00 0. -1.
          1    1    1    2  502    0  0.33625113880E+02 -0.27031881271E+02  0.20333579509E+04  0.20338156080E+04  0.00000000000E+00 0. -1.
         22    1    3    3    0    0 -0.68449279243E+02  0.12440229802E+02 -0.40128999525E+02  0.80314380713E+02  0.00000000000E+00 0.  1.
         22    1    3    3    0    0  0.24353936356E+02 -0.54386121485E+02  0.13844885070E+02  0.61177162968E+02  0.00000000000E+00 0.  1.
</event>
<event>
 7    1  0.6188600E-006  0.1597103E+03  0.7818608E-02  0.1277957E+00
          2   -1    0    0  502    0  0.00000000000E+00  0.00000000000E+00  0.73530287926E+03  0.73530287926E+03  0.00000000000E+00 0. -1.
          1   -1    0    0  501    0 -0.00000000000E+00 -0.00000000000E+00 -0.11243342730E+04  0.11243342730E+04  0.00000000000E+00 0. -1.
         25    2    1    2    0    0  0.17989837585E+03  0.98989215795E+02  0.12540000352E+02  0.24071300830E+03  0.12499284091E+03 0.  0.
          2    1    1    2  501    0 -0.29589550432E+02 -0.56776915092E+02 -0.99919500171E+03  0.10012441316E+04  0.00000000000E+00 0. -1.
          1    1    1    2  502    0 -0.15030882541E+03 -0.42212300704E+02  0.59762360761E+03  0.61768001239E+03  0.00000000000E+00 0. -1.
         22    1    3    3    0    0  0.63289081546E+02 -0.14077192249E+02  0.39712419454E+02  0.76031253070E+02  0.00000000000E+00 0. -1.
         22    1    3    3    0    0  0.11660929430E+03  0.11306640804E+03 -0.27172419102E+02  0.16468175523E+03  0.00000000000E+00 0. -1.
</event>
<event>
 7    1  0.6188600E-006  0.5067465E+02  0.7818608E-02  0.1554771E+00
          2   -1    0    0  502    0  0.00000000000E+00  0.00000000000E+00  0.41396036196E+02  0.41396036196E+02  0.00000000000E+00 0. -1.
          1   -1    0    0  501    0 -0.00000000000E+00 -0.00000000000E+00 -0.31542213419E+03  0.31542213419E+03  0.00000000000E+00 0. -1.
         25    2    1    2    0    0 -0.38602084903E+02  0.23510505999E+01 -0.18633214338E+03  0.22768538775E+03  0.12500127896E+03 0.  0.
          2    1    1    2  501    0 -0.92167197390E+01  0.21330551489E+02 -0.68648100863E+02  0.72474147816E+02  0.00000000000E+00 0. -1.
          1    1    1    2  502    0  0.47818804642E+02 -0.23681602089E+02 -0.19045853757E+02  0.56658634825E+02  0.00000000000E+00 0. -1.
         22    1    3    3    0    0 -0.56617221822E+02  0.40401367276E+02 -0.51810975148E+02  0.86730372018E+02  0.00000000000E+00 0.  1.
         22    1    3    3    0    0  0.18015136920E+02 -0.38050316676E+02 -0.13452116823E+03  0.14095501573E+03  0.00000000000E+00 0.  1.
</event>
<event>
 7    1  0.6188600E-006  0.2598746E+02  0.7818608E-02  0.1673284E+00
          2   -1    0    0  502    0  0.00000000000E+00  0.00000000000E+00  0.89293696508E+03  0.89293696508E+03  0.00000000000E+00 0. -1.
          1   -1    0    0  501    0 -0.00000000000E+00 -0.00000000000E+00 -0.12030799324E+03  0.12030799324E+03  0.00000000000E+00 0. -1.
         25    2    1    2    0    0 -0.26624176501E+02 -0.44323482781E+00  0.87233503301E+02  0.15473698886E+03  0.12499923357E+03 0.  0.
          2    1    1    2  501    0  0.16988194643E+02 -0.19857349814E+02 -0.84416097356E+02  0.88368493207E+02  0.00000000000E+00 0. -1.
          1    1    1    2  502    0  0.96359818584E+01  0.20300584642E+02  0.76981156590E+03  0.77013947624E+03  0.00000000000E+00 0. -1.
         22    1    3    3    0    0  0.50319148459E+02 -0.56269909107E+01  0.36769954922E+02  0.62575628749E+02  0.00000000000E+00 0.  1.
         22    1    3    3    0    0 -0.76943324961E+02  0.51837560829E+01  0.50463548379E+02  0.92161360114E+02  0.00000000000E+00 0.  1.
</event>
<event>
 7    1  0.6188600E-006  0.6658006E+02  0.7818608E-02  0.1479587E+00
          2   -1    0    0  502    0  0.00000000000E+00  0.00000000000E+00  0.70739218683E+03  0.70739218683E+03  0.00000000000E+00 0. -1.
          1   -1    0    0  501    0 -0.00000000000E+00 -0.00000000000E+00 -0.31887205815E+03  0.31887205815E+03  0.00000000000E+00 0. -1.
         25    2    1    2    0    0 -0.36149142213E+02 -0.42962888760E+02 -0.11381130093E+03  0.17813133305E+03  0.12500075721E+03 0.  0.
          2    1    1    2  501    0  0.19412380929E+02  0.67016740313E+02 -0.16552750946E+03  0.17963140149E+03  0.00000000000E+00 0. -1.
          1    1    1    2  502    0  0.16736761284E+02 -0.24053851553E+02  0.66785893907E+03  0.66850151043E+03  0.00000000000E+00 0. -1.
         22    1    3    3    0    0  0.25126515652E+02 -0.66732881959E+02 -0.59542781093E+02  0.92897589331E+02  0.00000000000E+00 0.  1.
         22    1    3    3    0    0 -0.61275657865E+02  0.23769993199E+02 -0.54268519837E+02  0.85233743722E+02  0.00000000000E+00 0.  1.
</event>
<event>
 7    1  0.6188600E-006  0.7203131E+02  0.7818608E-02  0.1520605E+00
          2   -1    0    0  502    0  0.00000000000E+00  0.00000000000E+00  0.79487249555E+03  0.79487249555E+03  0.00000000000E+00 0. -1.
          1   -1    0    0  501    0 -0.00000000000E+00 -0.00000000000E+00 -0.39527664483E+03  0.39527664483E+03  0.00000000000E+00 0. -1.
         25    2    1    2    0    0  0.45320560885E+02  0.31123303209E+02  0.18929575216E+03  0.23340836601E+03  0.12499588112E+03 0.  0.
          2    1    1    2  501    0 -0.51765252678E+02 -0.50513437788E+02 -0.36953456126E+03  0.37654620002E+03  0.00000000000E+00 0. -1.
          1    1    1    2  502    0  0.64446917927E+01  0.19390134578E+02  0.57983465982E+03  0.58019457435E+03  0.00000000000E+00 0. -1.
         22    1    3    3    0    0  0.35666772642E+02 -0.33467008620E+02  0.14863954025E+03  0.15647962251E+03  0.00000000000E+00 0. -1.
         22    1    3    3    0    0  0.96537882435E+01  0.64590311830E+02  0.40656211912E+02  0.76928743501E+02  0.00000000000E+00 0. -1.
</event>
<event>
 7    1  0.6188600E-006  0.2013793E+03  0.7818608E-02  0.1234753E+00
          2   -1    0    0  502    0  0.00000000000E+00  0.00000000000E+00  0.41903092717E+03  0.41903092717E+03  0.00000000000E+00 0. -1.
          1   -1    0    0  501    0 -0.00000000000E+00 -0.00000000000E+00 -0.95578666020E+03  0.95578666020E+03  0.00000000000E+00 0. -1.
         25    2    1    2    0    0  0.14737619599E+03 -0.45755044235E+02  0.51588641191E+02  0.20518255203E+03  0.12500089815E+03 0.  0.
          2    1    1    2  501    0 -0.20651557483E+03 -0.48599120972E+01 -0.86133679615E+03  0.88576146778E+03  0.00000000000E+00 0. -1.
          1    1    1    2  502    0  0.59139378837E+02  0.50614956332E+02  0.27299242193E+03  0.28387356757E+03  0.00000000000E+00 0. -1.
         22    1    3    3    0    0  0.10003189221E+03  0.19034415624E+02  0.69088097894E+02  0.12305223975E+03  0.00000000000E+00 0.  1.
         22    1    3    3    0    0  0.47344303785E+02 -0.64789459858E+02 -0.17499456703E+02  0.82130312276E+02  0.00000000000E+00 0.  1.
</event>
<event>
 7    1  0.6188600E-006  0.1589934E+03  0.7818608E-02  0.1280453E+00
          2   -1    0    0  502    0  0.00000000000E+00  0.00000000000E+00  0.79181134944E+03  0.79181134944E+03  0.00000000000E+00 0. -1.
          1   -1    0    0  501    0 -0.00000000000E+00 -0.00000000000E+00 -0.12499496584E+04  0.12499496584E+04  0.00000000000E+00 0. -1.
         25    2    1    2    0    0  0.18343409227E+03 -0.11057137187E+03  0.11545297791E+03  0.27355364130E+03  0.12501243969E+03 0.  0.
          2    1    1    2  501    0 -0.57783966120E+02  0.24597908004E+02 -0.11603347656E+04  0.11620330512E+04  0.00000000000E+00 0. -1.
          1    1    1    2  502    0 -0.12565012615E+03  0.85973463869E+02  0.58674347875E+03  0.60617431531E+03  0.00000000000E+00 0. -1.
         22    1    3    3    0    0  0.76825724834E+02 -0.82831887373E+02  0.11800470201E+03  0.16336591829E+03  0.00000000000E+00 0. -1.
         22    1    3    3    0    0  0.10660836743E+03 -0.27739484500E+02 -0.25517240988E+01  0.11018772301E+03  0.00000000000E+00 0. -1.
</event>
<event>
 7    1  0.6188600E-006  0.2828528E+02  0.7818608E-02  0.1662239E+00
          2   -1    0    0  502    0  0.00000000000E+00  0.00000000000E+00  0.35860320195E+03  0.35860320195E+03  0.00000000000E+00 0. -1.
          1   -1    0    0  501    0 -0.00000000000E+00 -0.00000000000E+00 -0.18051614316E+03  0.18051614316E+03  0.00000000000E+00 0. -1.
         25    2    1    2    0    0  0.23140489020E+02 -0.30203391940E+02  0.24890689279E+03  0.28111837149E+03  0.12500068157E+03 0.  0.
          2    1    1    2  501    0 -0.12835735603E+01  0.28242370858E+02 -0.16188188263E+03  0.16433205103E+03  0.00000000000E+00 0. -1.
          1    1    1    2  502    0 -0.21856915460E+02  0.19610210822E+01  0.91062048632E+02  0.93668922585E+02  0.00000000000E+00 0. -1.
         22    1    3    3    0    0  0.43573172130E+02  0.11027224636E+02  0.22464665743E+03  0.22909897797E+03  0.00000000000E+00 0.  1.
         22    1    3    3    0    0 -0.20432683110E+02 -0.41230616576E+02  0.24260235362E+02  0.52019393519E+02  0.00000000000E+00 0.  1.
</event>
<event>
 7    1  0.6188600E-006  0.6287767E+02  0.7818608E-02  0.1440652E+00
          2   -1    0    0  502    0  0.00000000000E+00  0.00000000000E+00  0.10845925936E+04  0.10845925936E+04  0.00000000000E+00 0. -1.
          1   -1    0    0  501    0 -0.00000000000E+00 -0.00000000000E+00 -0.33109108527E+03  0.33109108527E+03  0.00000000000E+00 0. -1.
         25    2    1    2    0    0  0.92710685856E+01 -0.95657996470E+02  0.22441060177E+03  0.27426554313E+03  0.12500025984E+03 0.  0.
          2    1    1    2  501    0 -0.21207426778E+02  0.35289468700E+02 -0.30363898985E+03  0.30641758714E+03  0.00000000000E+00 0. -1.
          1    1    1    2  502    0  0.11936358192E+02  0.60368527771E+02  0.83272989637E+03  0.83500054856E+03  0.00000000000E+00 0. -1.
         22    1    3    3    0    0 -0.36361902593E+02 -0.62765439686E+02  0.42980172134E+02  0.84314788595E+02  0.00000000000E+00 0. -1.
         22    1    3    3    0    0  0.45632971178E+02 -0.32892556785E+02  0.18143042964E+03  0.18995075454E+03  0.00000000000E+00 0. -1.
</event>
<event>
 7    1  0.6188600E-006  0.1244701E+03  0.7818608E-02  0.1241272E+00
          2   -1    0    0  502    0  0.00000000000E+00  0.00000000000E+00  0.10886241885E+04  0.10886241885E+04  0.00000000000E+00 0. -1.
          1   -1    0    0  501    0 -0.00000000000E+00 -0.00000000000E+00 -0.49393707213E+03  0.49393707213E+03  0.00000000000E+00 0. -1.
         25    2    1    2    0    0  0.72705739221E+01 -0.63788682216E+02  0.32146620855E+03  0.35083986093E+03  0.12500491011E+03 0.  0.
          2    1    1    2  501    0  0.12085655634E+03 -0.29774311846E+02 -0.46256821847E+03  0.47902210136E+03  0.00000000000E+00 0. -1.
          1    1    1    2  502    0 -0.12812713026E+03  0.93562994062E+02  0.73578912631E+03  0.75269929837E+03  0.00000000000E+00 0. -1.
         22    1    3    3    0    0  0.40984509951E+02 -0.78283980404E+01  0.28143453029E+02  0.50329591894E+02  0.00000000000E+00 0. -1.
         22    1    3    3    0    0 -0.33713936029E+02 -0.55960284175E+02  0.29332275552E+03  0.30051026904E+03  0.00000000000E+00 0. -1.
</event>
<event>
 7    1  0.6188600E-006  0.1714097E+03  0.7818608E-02  0.1326098E+00
          2   -1    0    0  502    0  0.00000000000E+00  0.00000000000E+00  0.68129365404E+03  0.68129365404E+03  0.00000000000E+00 0. -1.
          1   -1    0    0  501    0 -0.00000000000E+00 -0.00000000000E+00 -0.18494401930E+03  0.18494401930E+03  0.00000000000E+00 0. -1.
         25    2    1    2    0    0 -0.12339924164E+03 -0.14200954715E+03  0.32427671026E+02  0.22818973871E+03  0.12499967474E+03 0.  0.
          2    1    1    2  501    0  0.85255294459E+02  0.13830136035E+03 -0.98145560873E+01  0.16276380746E+03  0.00000000000E+00 0. -1.
          1    1    1    2  502    0  0.38143947177E+02  0.37081868049E+01  0.47373651980E+03  0.47528412718E+03  0.00000000000E+00 0. -1.
         22    1    3    3    0    0 -0.13474403928E+03 -0.78076592306E+02  0.26842654729E+00  0.15573048013E+03  0.00000000000E+00 0. -1.
         22    1    3    3    0    0  0.11344797643E+02 -0.63932954845E+02  0.32159244478E+02  0.72459258582E+02  0.00000000000E+00 0. -1.
</event>
<event>
 7    1  0.6188600E-006  0.1574683E+03  0.7818608E-02  0.1208259E+00
          2   -1    0    0  502    0  0.00000000000E+00  0.00000000000E+00  0.14856382879E+04  0.14856382879E+04  0.00000000000E+00 0. -1.
          1   -1    0    0  501    0 -0.00000000000E+00 -0.00000000000E+00 -0.31315453159E+03  0.31315453159E+03  0.00000000000E+00 0. -1.
         25    2    1    2    0    0  0.10657127370E+03 -0.85427730692E+01  0.30799607468E+03  0.34916742551E+03  0.12500357464E+03 0.  0.
          2    1    1    2  501    0  0.36342457566E+02  0.12625742236E+03 -0.26992523663E+03  0.30020217237E+03  0.00000000000E+00 0. -1.
          1    1    1    2  502    0 -0.14291373126E+03 -0.11771464929E+03  0.11344129182E+04  0.11494232216E+04  0.00000000000E+00 0. -1.
         22    1    3    3    0    0  0.35320547781E+02 -0.58517825083E+02  0.80563583128E+02  0.10565210776E+03  0.00000000000E+00 0. -1.
         22    1    3    3    0    0  0.71250725916E+02  0.49975052014E+02  0.22743249155E+03  0.24351531775E+03  0.00000000000E+00 0. -1.
</event>
<event>
 7    1  0.6188600E-006  0.7899786E+02  0.7818608E-02  0.1430554E+00
          2   -1    0    0  502    0  0.00000000000E+00  0.00000000000E+00  0.16697419115E+04  0.16697419115E+04  0.00000000000E+00 0. -1.
          1   -1    0    0  501    0 -0.00000000000E+00 -0.00000000000E+00 -0.25941389295E+03  0.25941389295E+03  0.00000000000E+00 0. -1.
         25    2    1    2    0    0  0.23844494177E+02 -0.68565938193E+02  0.12106456780E+04  0.12192446704E+04  0.12499904296E+03 0.  0.
          2    1    1    2  501    0  0.10110241361E+02  0.78419653464E+02 -0.24827455887E+03  0.26056115523E+03  0.00000000000E+00 0. -1.
          1    1    1    2  502    0 -0.33954735537E+02 -0.98537152710E+01  0.44795689939E+03  0.44934997884E+03  0.00000000000E+00 0. -1.
         22    1    3    3    0    0  0.20240647446E+02 -0.51221208429E+02  0.17531554856E+03  0.18376299293E+03  0.00000000000E+00 0.  1.
         22    1    3    3    0    0  0.36038467309E+01 -0.17344729764E+02  0.10353301295E+04  0.10354816775E+04  0.00000000000E+00 0.  1.
</event>
<event>
 7    1  0.6188600E-006  0.3938716E+02  0.7818608E-02  0.1590455E+00
          2   -1    0    0  502    0  0.00000000000E+00  0.00000000000E+00  0.15756735588E+04  0.15756735588E+04  0.00000000000E+00 0. -1.
          1   -1    0    0  501    0 -0.00000000000E+00 -0.00000000000E+00 -0.73842757740E+02  0.73842757740E+02  0.00000000000E+00 0. -1.
         25    2    1    2    0    0  0.15735420010E+02 -0.15497703499E+00  0.65670572029E+03  0.66868133658E+03  0.12499879745E+03 0.  0.
          2    1    1    2  501    0 -0.39450284565E+02  0.33724581113E+01 -0.61907730012E+02  0.73486498496E+02  0.00000000000E+00 0. -1.
          1    1    1    2  502    0  0.23714864555E+02 -0.32174810763E+01  0.90703281083E+03  0.90734848152E+03  0.00000000000E+00 0. -1.
         22    1    3    3    0    0  0.31693596745E+02  0.34834112723E+02  0.58849829069E+03  0.59037965550E+03  0.00000000000E+00 0.  1.
         22    1    3    3    0    0 -0.15958176735E+02 -0.34989089758E+02  0.68207429601E+02  0.78301681078E+02  0.00000000000E+00 0.  1.
</event>
<event>
 7    1  0.8452764E-006  0.5844086E+02  0.7818608E-02  0.1435757E+00
          2   -1    0    0  502    0  0.00000000000E+00  0.00000000000E+00  0.21361284489E+04  0.21361284489E+04  0.00000000000E+00 0. -1.
          1   -1    0    0  501    0 -0.00000000000E+00 -0.00000000000E+00 -0.25300364439E+04  0.25300364439E+04  0.00000000000E+00 0. -1.
         25    2    1    2    0    0 -0.10104071357E+03  0.76034044329E+01 -0.25081840375E+03  0.29799583794E+03  0.12499844085E+03 0.  0.
          2    1    1    2  501    0  0.57397372331E+02  0.67792540638E+01 -0.22550091180E+04  0.22557496623E+04  0.00000000000E+00 0. -1.
          1    1    1    2  502    0  0.43643341240E+02 -0.14382658497E+02  0.21119195268E+04  0.21124193925E+04  0.00000000000E+00 0. -1.
         22    1    3    3    0    0 -0.80931616135E+02  0.55726599883E+02 -0.20970191235E+03  0.23158210740E+03  0.00000000000E+00 0.  1.
         22    1    3    3    0    0 -0.20109097436E+02 -0.48123195450E+02 -0.41116491399E+02  0.66413730546E+02  0.00000000000E+00 0.  1.
</event>
<event>
 7    1  0.6188600E-006  0.8182306E+02  0.7818608E-02  0.1400113E+00
          2   -1    0    0  502    0  0.00000000000E+00  0.00000000000E+00  0.24201106811E+04  0.24201106811E+04  0.00000000000E+00 0. -1.
          1   -1    0    0  501    0 -0.00000000000E+00 -0.00000000000E+00 -0.74888637791E+03  0.74888637791E+03  0.00000000000E+00 0. -1.
         25    2    1    2    0    0 -0.46747310608E+02  0.74077733265E+01  0.90174442050E+03  0.91159660922E+03  0.12500076756E+03 0.  0.
          2    1    1    2  501    0  0.79127956991E+02  0.21201372910E+02 -0.74139541436E+03  0.74590742872E+03  0.00000000000E+00 0. -1.
          1    1    1    2  502    0 -0.32380646383E+02 -0.28609146236E+02  0.15108752970E+04  0.15114930211E+04  0.00000000000E+00 0. -1.
         22    1    3    3    0    0 -0.81822965542E+02 -0.77723913347E+01  0.77134315387E+03  0.77570978386E+03  0.00000000000E+00 0.  1.
         22    1    3    3    0    0  0.35075654934E+02  0.15180164661E+02  0.13040126663E+03  0.13588682536E+03  0.00000000000E+00 0.  1.
</event>
<event>
 7    1  0.6188600E-006  0.1340406E+03  0.7818608E-02  0.1303427E+00
          2   -1    0    0  502    0  0.00000000000E+00  0.00000000000E+00  0.35025903289E+03  0.35025903289E+03  0.00000000000E+00 0. -1.
          1   -1    0    0  501    0 -0.00000000000E+00 -0.00000000000E+00 -0.31836633018E+03  0.31836633018E+03  0.00000000000E+00 0. -1.
         25    2    1    2    0    0 -0.30178302877E+02 -0.74422275783E+02  0.11456518604E+03  0.18761708235E+03  0.12500233054E+03 0.  0.
          2    1    1    2  501    0  0.49751323657E+02  0.13125798002E+03 -0.25906757113E+03  0.29465209644E+03  0.00000000000E+00 0. -1.
          1    1    1    2  502    0 -0.19573020781E+02 -0.56835704236E+02  0.17639508780E+03  0.18635618427E+03  0.00000000000E+00 0. -1.
         22    1    3    3    0    0  0.10310569644E+02 -0.38388079455E+02  0.12608739675E+03  0.13220432712E+03  0.00000000000E+00 0. -1.
         22    1    3    3    0    0 -0.40488872521E+02 -0.36034196328E+02 -0.11522210709E+02  0.55412755234E+02  0.00000000000E+00 0. -1.
</event>
<event>
 7    1  0.6188600E-006  0.1155725E+03  0.7818608E-02  0.1319479E+00
          2   -1    0    0  502    0  0.00000000000E+00  0.00000000000E+00  0.20776024992E+04  0.20776024992E+04  0.00000000000E+00 0. -1.
          1   -1    0    0  501    0 -0.00000000000E+00 -0.00000000000E+00 -0.29778423855E+03  0.29778423855E+03  0.00000000000E+00 0. -1.
         25    2    1    2    0    0 -0.25147870051E+02  0.66960842223E+02  0.19501372034E+03  0.24243011571E+03  0.12500336044E+03 0.  0.
          2    1    1    2  501    0  0.29564250753E+02  0.52539571876E+02 -0.26881074502E+03  0.27548805450E+03  0.00000000000E+00 0. -1.
          1    1    1    2  502    0 -0.44163807013E+01 -0.11950041410E+03  0.18536152854E+04  0.18574685676E+04  0.00000000000E+00 0. -1.
         22    1    3    3    0    0  0.14662440678E+02  0.80901546220E+02  0.62249581178E+02  0.10312641613E+03  0.00000000000E+00 0.  1.
         22    1    3    3    0    0 -0.39810310729E+02 -0.13940703997E+02  0.13276413917E+03  0.13930369958E+03  0.00000000000E+00 0.  1.
</event>
<event>
 7    1  0.6188600E-006  0.6253573E+02  0.7818608E-02  0.1461937E+00
          2   -1    0    0  502    0  0.00000000000E+00  0.00000000000E+00  0.48716947847E+03  0.48716947847E+03  0.00000000000E+00 0. -1.
          1   -1    0    0  501    0 -0.00000000000E+00 -0.00000000000E+00 -0.25154534824E+03  0.25154534824E+03  0.00000000000E+00 0. -1.
         25    2    1    2    0    0  0.14360867392E+02  0.50802659757E+02  0.44369240516E+03  0.46397535085E+03  0.12499212395E+03 0.  0.
          2    1    1    2  501    0  0.19965225837E+02 -0.59450177905E+02 -0.22636522608E+03  0.23489178247E+03  0.00000000000E+00 0. -1.
          1    1    1    2  502    0 -0.34326093229E+02  0.86475181484E+01  0.18296951151E+02  0.39847693383E+02  0.00000000000E+00 0. -1.
         22    1    3    3    0    0  0.54356796322E+02  0.31723477931E+02  0.38667098439E+03  0.39175948046E+03  0.00000000000E+00 0.  1.
         22    1    3    3    0    0 -0.39995928930E+02  0.19079181826E+02  0.57021420770E+02  0.72215870394E+02  0.00000000000E+00 0.  1.
</event>
<event>
 7    1  0.6188600E-006  0.1024600E+03  0.7818608E-02  0.1444950E+00
          2   -1    0    0  502    0  0.00000000000E+00  0.00000000000E+00  0.11351496691E+03  0.11351496691E+03  0.00000000000E+00 0. -1.
          1   -1    0    0  501    0 -0.00000000000E+00 -0.00000000000E+00 -0.63331438535E+03  0.63331438535E+03  0.00000000000E+00 0. -1.
         25    2    1    2    0    0  0.30449138884E+01 -0.86131350453E+02 -0.51354384479E+02  0.16028309416E+03  0.12500206573E+03 0.  0.
          2    1    1    2  501    0  0.43265254816E+01 -0.24085241274E+02 -0.47524475640E+03  0.47587434913E+03  0.00000000000E+00 0. -1.
          1    1    1    2  502    0 -0.73714393700E+01  0.11021659173E+03  0.67997224459E+01  0.11067190897E+03  0.00000000000E+00 0. -1.
         22    1    3    3    0    0  0.55881097907E+02 -0.80919452355E+02 -0.38867469296E+02  0.10574183204E+03  0.00000000000E+00 0. -1.
         22    1    3    3    0    0 -0.52836184019E+02 -0.52118980981E+01 -0.12486915183E+02  0.54541262125E+02  0.00000000000E+00 0. -1.
</event>
<event>
 7    1  0.6188600E-006  0.3697075E+02  0.7818608E-02  0.1533960E+00
          2   -1    0    0  502    0  0.00000000000E+00  0.00000000000E+00  0.23214452210E+03  0.23214452210E+03  0.00000000000E+00 0. -1.
          1   -1    0    0  501    0 -0.00000000000E+00 -0.00000000000E+00 -0.53102259282E+03  0.53102259282E+03  0.00000000000E+00 0. -1.
         25    2    1    2    0    0 -0.51109147451E+02 -0.99891315418E+01 -0.11896544763E+02  0.13594239993E+03  0.12500752225E+03 0.  0.
          2    1    1    2  501    0  0.30878666237E+02 -0.20321049992E+02 -0.45439240355E+03  0.45589351115E+03  0.00000000000E+00 0. -1.
          1    1    1    2  502    0  0.20230481214E+02  0.30310181534E+02  0.16741087759E+03  0.17133120384E+03  0.00000000000E+00 0. -1.
         22    1    3    3    0    0 -0.67755349413E+02  0.38492310448E+02 -0.27054262787E+02  0.82488656630E+02  0.00000000000E+00 0.  1.
         22    1    3    3    0    0  0.16646201962E+02 -0.48481441989E+02  0.15157718024E+02  0.53453743300E+02  0.00000000000E+00 0.  1.
</event>
<event>
 7    1  0.6188600E-006  0.1663868E+03  0.7818608E-02  0.1261915E+00
          2   -1    0    0  502    0  0.00000000000E+00  0.00000000000E+00  0.89394312187E+03  0.89394312187E+03  0.00000000000E+00 0. -1.
          1   -1    0    0  501    0 -0.00000000000E+00 -0.00000000000E+00 -0.62854232293E+03  0.62854232293E+03  0.00000000000E+00 0. -1.
         25    2    1    2    0    0 -0.83609199219E+02  0.11375879953E+03  0.71868350113E+01  0.18869970476E+03  0.12499746123E+03 0.  0.
          2    1    1    2  501    0  0.36169784957E+02 -0.16761286684E+03 -0.52242964096E+03  0.54985003067E+03  0.00000000000E+00 0. -1.
          1    1    1    2  502    0  0.47439414263E+02  0.53854067311E+02  0.78064360488E+03  0.78393570937E+03  0.00000000000E+00 0. -1.
         22    1    3    3    0    0 -0.42896632095E+02  0.72292117746E+02  0.65354483221E+02  0.10647760239E+03  0.00000000000E+00 0. -1.
         22    1    3    3    0    0 -0.40712567125E+02  0.41466681781E+02 -0.58167648210E+02  0.82222102370E+02  0.00000000000E+00 0. -1.
</event>
<event>
 7    1  0.6188600E-006  0.6459811E+02  0.7818608E-02  0.1430528E+00
          2   -1    0    0  502    0  0.00000000000E+00  0.00000000000E+00  0.14782864738E+04  0.14782864738E+04  0.00000000000E+00 0. -1.
          1   -1    0    0  501    0 -0.00000000000E+00 -0.00000000000E+00 -0.19815253006E+02  0.19815253006E+02  0.00000000000E+00 0. -1.
         25    2    1    2    0    0 -0.32826695325E+02  0.13939627026E+02  0.67695208475E+03  0.68931489354E+03  0.12497596682E+03 0.  0.
          2    1    1    2  501    0  0.68356659307E+02  0.10713206313E+02  0.79319287535E+02  0.10525661517E+03  0.00000000000E+00 0. -1.
          1    1    1    2  502    0 -0.35529963983E+02 -0.24652833340E+02  0.70219984855E+03  0.70353021814E+03  0.00000000000E+00 0. -1.
         22    1    3    3    0    0 -0.22143358704E+01 -0.20784784419E+02  0.59362417715E+03  0.59399206581E+03  0.00000000000E+00 0. -1.
         22    1    3    3    0    0 -0.30612359455E+02  0.34724411446E+02  0.83327907594E+02  0.95322827726E+02  0.00000000000E+00 0. -1.
</event>
<event>
 7    1  0.6188600E-006  0.6327350E+02  0.7818608E-02  0.1471674E+00
          2   -1    0    0  502    0  0.00000000000E+00  0.00000000000E+00  0.63581284783E+03  0.63581284783E+03  0.00000000000E+00 0. -1.
          1   -1    0    0  501    0 -0.00000000000E+00 -0.00000000000E+00 -0.18594079842E+04  0.18594079842E+04  0.00000000000E+00 0. -1.
         25    2    1    2    0    0  0.99529355588E+01 -0.45204793768E+02 -0.16267823675E+04  0.16322343789E+04  0.12500264837E+03 0.  0.
          2    1    1    2  501    0 -0.28860077154E+02 -0.15201327632E+02 -0.22714957088E+03  0.22947965479E+03  0.00000000000E+00 0. -1.
          1    1    1    2  502    0  0.18907141595E+02  0.60406121400E+02  0.63033680204E+03  0.63350679832E+03  0.00000000000E+00 0. -1.
         22    1    3    3    0    0 -0.50647223222E+02 -0.90229528622E+01 -0.38143569326E+03  0.38488926068E+03  0.00000000000E+00 0. -1.
         22    1    3    3    0    0  0.60600158781E+02 -0.36181840906E+02 -0.12453466743E+04  0.12473451182E+04  0.00000000000E+00 0. -1.
</event>
<event>
 7    1  0.6188600E-006  0.7503741E+02  0.7818608E-02  0.1364925E+00
          2   -1    0    0  502    0  0.00000000000E+00  0.00000000000E+00  0.15375417932E+04  0.15375417932E+04  0.00000000000E+00 0. -1.
          1   -1    0    0  501    0 -0.00000000000E+00 -0.00000000000E+00 -0.11830894520E+03  0.11830894520E+03  0.00000000000E+00 0. -1.
         25    2    1    2    0    0  0.28997782843E+02 -0.29532139894E+02  0.42725104592E+03  0.44708100673E+03  0.12499980658E+03 0.  0.
          2    1    1    2  501    0  0.13791248669E+02  0.75378686261E+02 -0.93831700494E+02  0.12114674119E+03  0.00000000000E+00 0. -1.
          1    1    1    2  502    0 -0.42789031512E+02 -0.45846546366E+02  0.10858135026E+04  0.10876229905E+04  0.00000000000E+00 0. -1.
         22    1    3    3    0    0  0.64734762514E+02 -0.28307382623E+02  0.13242322891E+03  0.15009266785E+03  0.00000000000E+00 0. -1.
         22    1    3    3    0    0 -0.35736979671E+02 -0.12247572713E+01  0.29482781701E+03  0.29698833888E+03  0.00000000000E+00 0. -1.
</event>
<event>
 7    1  0.6188600E-006  0.9376869E+02  0.7818608E-02  0.1426691E+00
          2   -1    0    0  502    0  0.00000000000E+00  0.00000000000E+00  0.86222838921E+02  0.86222838921E+02  0.00000000000E+00 0. -1.
          1   -1    0    0  501    0 -0.00000000000E+00 -0.00000000000E+00 -0.31796463011E+04  0.31796463011E+04  0.00000000000E+00 0. -1.
         25    2    1    2    0    0 -0.74842549416E+02 -0.73688955535E+01 -0.38414849901E+03  0.41090551114E+03  0.12497024433E+03 0.  0.
          2    1    1    2  501    0  0.93541120752E+02 -0.16945665265E+02 -0.27780409060E+04  0.27796669535E+04  0.00000000000E+00 0. -1.
          1    1    1    2  502    0 -0.18698571336E+02  0.24314560819E+02  0.68765942817E+02  0.75296675420E+02  0.00000000000E+00 0. -1.
         22    1    3    3    0    0 -0.45754780320E+02 -0.49090210612E+02 -0.32944871425E+03  0.33621392598E+03  0.00000000000E+00 0. -1.
         22    1    3    3    0    0 -0.29087769096E+02  0.41721315058E+02 -0.54699784766E+02  0.74691585166E+02  0.00000000000E+00 0. -1.
</event>
<event>
 7    1  0.6188600E-006  0.2077302E+03  0.7818608E-02  0.1378795E+00
          2   -1    0    0  502    0  0.00000000000E+00  0.00000000000E+00  0.69230657304E+03  0.69230657304E+03  0.00000000000E+00 0. -1.
          1   -1    0    0  501    0 -0.00000000000E+00 -0.00000000000E+00 -0.80601021708E+03  0.80601021708E+03  0.00000000000E+00 0. -1.
         25    2    1    2    0    0 -0.18426685961E+03  0.10889321093E+03 -0.62576099141E+03  0.67306279217E+03  0.12499878763E+03 0.  0.
          2    1    1    2  501    0  0.15867592160E+02  0.12504263328E+02 -0.13974161444E+03  0.14119439043E+03  0.00000000000E+00 0. -1.
          1    1    1    2  502    0  0.16839926745E+03 -0.12139747426E+03  0.65179896180E+03  0.68405960752E+03  0.00000000000E+00 0. -1.
         22    1    3    3    0    0 -0.41220016954E+02 -0.12176574190E+02 -0.42543392142E+02  0.60475606418E+02  0.00000000000E+00 0.  1.
         22    1    3    3    0    0 -0.14304684265E+03  0.12106978512E+03 -0.58321759926E+03  0.61258718576E+03  0.00000000000E+00 0.  1.
</event>
<event>
 7    1  0.6188600E-006  0.5681772E+02  0.7818608E-02  0.1491442E+00
          2   -1    0    0  502    0  0.00000000000E+00  0.00000000000E+00  0.90279065694E+02  0.90279065694E+02  0.00000000000E+00 0. -1.
          1   -1    0    0  501    0 -0.00000000000E+00 -0.00000000000E+00 -0.13249740435E+04  0.13249740435E+04  0.00000000000E+00 0. -1.
         25    2    1    2    0    0  0.27739905541E+01 -0.57439184328E+02 -0.34986538975E+03  0.37594879947E+03  0.12499901583E+03 0.  0.
          2    1    1    2  501    0 -0.32638441512E+02  0.47109999138E+02 -0.95794209442E+03  0.95965497766E+03  0.00000000000E+00 0. -1.
          1    1    1    2  502    0  0.29864450958E+02  0.10329185190E+02  0.73112506410E+02  0.79649332020E+02  0.00000000000E+00 0. -1.
         22    1    3    3    0    0 -0.89769637964E+01  0.26527756821E+02 -0.17692142957E+02  0.33125815966E+02  0.00000000000E+00 0.  1.
         22    1    3    3    0    0  0.11750954351E+02 -0.83966941150E+02 -0.33217324679E+03  0.34282298351E+03  0.00000000000E+00 0.  1.
</event>
<event>
 7    1  0.6188600E-006  0.4256156E+02  0.7818608E-02  0.1606768E+00
          2   -1    0    0  502    0  0.00000000000E+00  0.00000000000E+00  0.10685078055E+04  0.10685078055E+04  0.00000000000E+00 0. -1.
          1   -1    0    0  501    0 -0.00000000000E+00 -0.00000000000E+00 -0.53022307801E+02  0.53022307801E+02  0.00000000000E+00 0. -1.
         25    2    1    2    0    0  0.25038406489E+02  0.41181197567E+02  0.16855096471E+03  0.21530252634E+03  0.12499174897E+03 0.  0.
          2    1    1    2  501    0  0.10162347017E+02 -0.17310757464E+02 -0.25670341232E+02  0.32586838445E+02  0.00000000000E+00 0. -1.
          1    1    1    2  502    0 -0.35200753506E+02 -0.23870440103E+02  0.87260487424E+03  0.87364074853E+03  0.00000000000E+00 0. -1.
         22    1    3    3    0    0 -0.14812792014E+02 -0.39562667040E+02  0.38731869193E+02  0.57313010057E+02  0.00000000000E+00 0.  1.
         22    1    3    3    0    0  0.39851198503E+02  0.80743864607E+02  0.12981909552E+03  0.15798951628E+03  0.00000000000E+00 0.  1.
</event>
<event>
 7    1  0.6599764E-006  0.4329969E+02  0.7818608E-02  0.1509529E+00
          2   -1    0    0  502    0  0.00000000000E+00  0.00000000000E+00  0.18902518721E+04  0.18902518721E+04  0.00000000000E+00 0. -1.
          1   -1    0    0  501    0 -0.00000000000E+00 -0.00000000000E+00 -0.50901956850E+03  0.50901956850E+03  0.00000000000E+00 0. -1.
         25    2    1    2    0    0 -0.70294631870E+02  0.34267411851E+02 -0.68394248562E+02  0.16255219182E+03  0.12501940268E+03 0.  0.
          2    1    1    2  501    0  0.35638882248E+02 -0.84319820013E+01 -0.39244023362E+03  0.39414536051E+03  0.00000000000E+00 0. -1.
          1    1    1    2  502    0  0.34655749622E+02 -0.25835429850E+02  0.18420667858E+04  0.18425738883E+04  0.00000000000E+00 0. -1.
         22    1    3    3    0    0 -0.80899864159E+02  0.49481009291E+02 -0.92274351214E+02  0.13231671925E+03  0.00000000000E+00 0. -1.
         22    1    3    3    0    0  0.10605232288E+02 -0.15213597440E+02  0.23880102652E+02  0.30235472572E+02  0.00000000000E+00 0. -1.
</event>
<event>
 7    1  0.6188600E-006  0.2103446E+03  0.7818608E-02  0.1260751E+00
          2   -1    0    0  502    0  0.00000000000E+00  0.00000000000E+00  0.92891465529E+03  0.92891465529E+03  0.00000000000E+00 0. -1.
          1   -1    0    0  501    0 -0.00000000000E+00 -0.00000000000E+00 -0.45578435810E+03  0.45578435810E+03  0.00000000000E+00 0. -1.
         25    2    1    2    0    0  0.13646827493E+03 -0.86873967742E+02  0.11276740769E+03  0.23347907769E+03  0.12500126058E+03 0.  0.
          2    1    1    2  501    0 -0.18078773074E+03  0.12338620381E+03 -0.36391597339E+03  0.42466833478E+03  0.00000000000E+00 0. -1.
          1    1    1    2  502    0  0.44319455808E+02 -0.36512236065E+02  0.72427886290E+03  0.72655160091E+03  0.00000000000E+00 0. -1.
         22    1    3    3    0    0  0.12685092602E+03 -0.50441465505E+02  0.13310265745E+03  0.19066152285E+03  0.00000000000E+00 0.  1.
         22    1    3    3    0    0  0.96173489115E+01 -0.36432502238E+02 -0.20335249764E+02  0.42817554839E+02  0.00000000000E+00 0.  1.
</event>
<event>
 7    1  0.6188600E-006  0.1123177E+03  0.7818608E-02  0.1383755E+00
          2   -1    0    0  502    0  0.00000000000E+00  0.00000000000E+00  0.10771703658E+04  0.10771703658E+04  0.00000000000E+00 0. -1.
          1   -1    0    0  501    0 -0.00000000000E+00 -0.00000000000E+00 -0.56624461356E+03  0.56624461356E+03  0.00000000000E+00 0. -1.
         25    2    1    2    0    0 -0.12351933064E+03  0.62665578507E+02  0.20646965523E+03  0.27827626091E+03  0.12499583627E+03 0.  0.
          2    1    1    2  501    0  0.10748045236E+03 -0.30563503002E+02 -0.52406268243E+03  0.53584313980E+03  0.00000000000E+00 0. -1.
          1    1    1    2  502    0  0.16038878279E+02 -0.32102075505E+02  0.82851877942E+03  0.82929557862E+03  0.00000000000E+00 0. -1.
         22    1    3    3    0    0  0.14281018774E+02  0.45436416652E+02  0.49493120791E+02  0.68687585931E+02  0.00000000000E+00 0.  1.
         22    1    3    3    0    0 -0.13780034941E+03  0.17229161855E+02  0.15697653443E+03  0.20958867498E+03  0.00000000000E+00 0.  1.
</event>
<event>
 7    1  0.6188600E-006  0.4768391E+02  0.7818608E-02  0.1546565E+00
          2   -1    0    0  502    0  0.00000000000E+00  0.00000000000E+00  0.94410699052E+02  0.94410699052E+02  0.00000000000E+00 0. -1.
          1   -1    0    0  501    0 -0.00000000000E+00 -0.00000000000E+00 -0.12015945485E+04  0.12015945485E+04  0.00000000000E+00 0. -1.
         25    2    1    2    0    0 -0.38746378378E+02  0.40060577056E+02 -0.10150936909E+03  0.17039837421E+03  0.12500128899E+03 0.  0.
          2    1    1    2  501    0 -0.64183864532E+01 -0.25225488409E+02 -0.10560333367E+04  0.10563540738E+04  0.00000000000E+00 0. -1.
          1    1    1    2  502    0  0.45164764831E+02 -0.14835088647E+02  0.50358856338E+02  0.69252799575E+02  0.00000000000E+00 0. -1.
         22    1    3    3    0    0 -0.94915526771E+01  0.78592441333E+02 -0.31282542646E+02  0.85120261286E+02  0.00000000000E+00 0.  1.
         22    1    3    3    0    0 -0.29254825701E+02 -0.38531864277E+02 -0.70226826446E+02  0.85278112925E+02  0.00000000000E+00 0.  1.
</event>
<event>
 7    1  0.6188600E-006  0.8027527E+02  0.7818608E-02  0.1489727E+00
          2   -1    0    0  502    0  0.00000000000E+00  0.00000000000E+00  0.14720240980E+04  0.14720240980E+04  0.00000000000E+00 0. -1.
          1   -1    0    0  501    0 -0.00000000000E+00 -0.00000000000E+00 -0.62976618923E+03  0.62976618923E+03  0.00000000000E+00 0. -1.
         25    2    1    2    0    0 -0.95191700437E+02 -0.11442235196E+02 -0.19352393776E+03  0.24953843869E+03  0.12500213326E+03 0.  0.
          2    1    1    2  501    0  0.15165914245E+02  0.16802852474E+02 -0.40680643646E+03  0.40743566063E+03  0.00000000000E+00 0. -1.
          1    1    1    2  502    0  0.80025786192E+02 -0.53606172783E+01  0.14425882830E+04  0.14448161879E+04  0.00000000000E+00 0. -1.
         22    1    3    3    0    0  0.23096181226E+02  0.39667672029E+01 -0.85344832843E+02  0.88503724906E+02  0.00000000000E+00 0. -1.
         22    1    3    3    0    0 -0.11828788166E+03 -0.15409002399E+02 -0.10817910491E+03  0.16103471378E+03  0.00000000000E+00 0. -1.
</event>
<event>
 7    1  0.6188600E-006  0.8368362E+02  0.7818608E-02  0.1353338E+00
          2   -1    0    0  502    0  0.00000000000E+00  0.00000000000E+00  0.91277290330E+03  0.91277290330E+03  0.00000000000E+00 0. -1.
          1   -1    0    0  501    0 -0.00000000000E+00 -0.00000000000E+00 -0.29459348122E+03  0.29459348122E+03  0.00000000000E+00 0. -1.
         25    2    1    2    0    0  0.15970950793E+02  0.77346218192E+02  0.25641952095E+03  0.29598723526E+03  0.12497985427E+03 0.  0.
          2    1    1    2  501    0 -0.61914838504E+02 -0.30735106173E+01 -0.26826273376E+03  0.27533214127E+03  0.00000000000E+00 0. -1.
          1    1    1    2  502    0  0.45943887711E+02 -0.74272707575E+02  0.63002263488E+03  0.63604700799E+03  0.00000000000E+00 0. -1.
         22    1    3    3    0    0  0.58900116681E+02  0.26078858877E+02  0.19436906598E+03  0.20476490040E+03  0.00000000000E+00 0.  1.
         22    1    3    3    0    0 -0.42929165888E+02  0.51267359316E+02  0.62050454971E+02  0.91222334859E+02  0.00000000000E+00 0.  1.
</event>
<event>
 7    1  0.6188600E-006  0.1450857E+03  0.7818608E-02  0.1365186E+00
          2   -1    0    0  502    0  0.00000000000E+00  0.00000000000E+00  0.15051846060E+04  0.15051846060E+04  0.00000000000E+00 0. -1.
          1   -1    0    0  501    0 -0.00000000000E+00 -0.00000000000E+00 -0.12926998398E+03  0.12926998398E+03  0.00000000000E+00 0. -1.
         25    2    1    2    0    0 -0.14922768803E+03  0.72592757913E+02  0.45423508390E+03  0.49949262552E+03  0.12499904051E+03 0.  0.
          2    1    1    2  501    0  0.11798881778E+03 -0.81051189315E+02 -0.58216981350E+02  0.15453114032E+03  0.00000000000E+00 0. -1.
          1    1    1    2  502    0  0.31238870256E+02  0.84584314017E+01  0.97989651946E+03  0.98043082414E+03  0.00000000000E+00 0. -1.
         22    1    3    3    0    0 -0.67561416795E+02 -0.31858006337E+02  0.18018568692E+03  0.19505475995E+03  0.00000000000E+00 0. -1.
         22    1    3    3    0    0 -0.81666271239E+02  0.10445076425E+03  0.27404939698E+03  0.30443786557E+03  0.00000000000E+00 0. -1.
</event>
<event>
 7    1  0.6188600E-006  0.3321413E+02  0.7818608E-02  0.1622154E+00
          2   -1    0    0  502    0  0.00000000000E+00  0.00000000000E+00  0.26014657454E+04  0.26014657454E+04  0.00000000000E+00 0. -1.
          1   -1    0    0  501    0 -0.00000000000E+00 -0.00000000000E+00 -0.14762504806E+03  0.14762504806E+03  0.00000000000E+00 0. -1.
         25    2    1    2    0    0 -0.43472836618E+02 -0.28825483806E+02  0.89201687322E+03  0.90224100770E+03  0.12499575122E+03 0.  0.
          2    1    1    2  501    0  0.20111426052E+02  0.26389585958E+02 -0.14049967421E+03  0.14436425512E+03  0.00000000000E+00 0. -1.
          1    1    1    2  502    0  0.23361410566E+02  0.24358978476E+01  0.17023234983E+04  0.17024855306E+04  0.00000000000E+00 0. -1.
         22    1    3    3    0    0 -0.15605771809E+02 -0.77598401965E+02  0.54016384469E+03  0.54593225881E+03  0.00000000000E+00 0.  1.
         22    1    3    3    0    0 -0.27867064809E+02  0.48772918159E+02  0.35185302853E+03  0.35630874888E+03  0.00000000000E+00 0.  1.
</event>
<event>
 7    1  0.6188600E-006  0.9671380E+02  0.7818608E-02  0.1382935E+00
          2   -1    0    0  502    0  0.00000000000E+00  0.00000000000E+00  0.25431102342E+03  0.25431102342E+03  0.00000000000E+00 0. -1.
          1   -1    0    0  501    0 -0.00000000000E+00 -0.00000000000E+00 -0.39428995052E+03  0.39428995052E+03  0.00000000000E+00 0. -1.
         25    2    1    2    0    0 -0.21579919086E+02  0.12063911206E+02 -0.27226782938E+03  0.30061380902E+03  0.12501064113E+03 0.  0.
          2    1    1    2  501    0  0.65850638787E+02  0.73922495910E+02 -0.71697602379E+02  0.12223497133E+03  0.00000000000E+00 0. -1.
          1    1    1    2  502    0 -0.44270719702E+02 -0.85986407116E+02  0.20398650465E+03  0.22575219359E+03  0.00000000000E+00 0. -1.
         22    1    3    3    0    0 -0.65758135080E+02  0.40885478397E+01 -0.22890684243E+03  0.23819989727E+03  0.00000000000E+00 0.  1.
         22    1    3    3    0    0  0.44178215994E+02  0.79753633663E+01 -0.43360986952E+02  0.62413911740E+02  0.00000000000E+00 0.  1.
</event>
<event>
 7    1  0.6188600E-006  0.1955746E+03  0.7818608E-02  0.1287118E+00
          2   -1    0    0  502    0  0.00000000000E+00  0.00000000000E+00  0.15966969262E+04  0.15966969262E+04  0.00000000000E+00 0. -1.
          1   -1    0    0  501    0 -0.00000000000E+00 -0.00000000000E+00 -0.27260145678E+03  0.27260145678E+03  0.00000000000E+00 0. -1.
         25    2    1    2    0    0 -0.14666490652E+03 -0.16940123583E+03  0.60379467130E+03  0.65604868615E+03  0.12499800005E+03 0.  0.
          2    1    1    2  501    0  0.98788150267E+02  0.16701839306E+03 -0.20756677729E+03  0.28414469780E+03  0.00000000000E+00 0. -1.
          1    1    1    2  502    0  0.47876756254E+02  0.23828427753E+01  0.92786757538E+03  0.92910499900E+03  0.00000000000E+00 0. -1.
         22    1    3    3    0    0 -0.64545949266E+02 -0.17561934356E+02  0.78594736038E+02  0.10320723636E+03  0.00000000000E+00 0. -1.
         22    1    3    3    0    0 -0.82118957255E+02 -0.15183930147E+03  0.52519993526E+03  0.55284144979E+03  0.00000000000E+00 0. -1.
</event>
<event>
 7    1  0.6188600E-006  0.8357111E+02  0.7818608E-02  0.1319869E+00
          2   -1    0    0  502    0  0.00000000000E+00  0.00000000000E+00  0.18947396583E+03  0.18947396583E+03  0.00000000000E+00 0. -1.
          1   -1    0    0  501    0 -0.00000000000E+00 -0.00000000000E+00 -0.46602021777E+03  0.46602021777E+03  0.00000000000E+00 0. -1.
         25    2    1    2    0    0  0.20360374232E+02  0.10607967609E+03 -0.18810078041E+03  0.25034786754E+03  0.12499883468E+03 0.  0.
          2    1    1    2  501    0  0.52675498951E+02 -0.64248301054E+02 -0.22772696007E+03  0.24240899472E+03  0.00000000000E+00 0. -1.
          1    1    1    2  502    0 -0.73035873183E+02 -0.41831375038E+02  0.13928148854E+03  0.16273732135E+03  0.00000000000E+00 0. -1.
         22    1    3    3    0    0  0.36560987388E+02  0.11350732581E+03 -0.86810106490E+02  0.14750123186E+03  0.00000000000E+00 0.  1.
         22    1    3    3    0    0 -0.16200613157E+02 -0.74276497160E+01 -0.10129067392E+03  0.10284663568E+03  0.00000000000E+00 0.  1.
</event>
<event>
 7    1  0.6188600E-006  0.1016322E+03  0.7818608E-02  0.1366220E+00
          2   -1    0    0  502    0  0.00000000000E+00  0.00000000000E+00  0.16889208399E+04  0.16889208399E+04  0.00000000000E+00 0. -1.
          1   -1    0    0  501    0 -0.00000000000E+00 -0.00000000000E+00 -0.89184082632E+03  0.89184082632E+03  0.00000000000E+00 0. -1.
         25    2    1    2    0    0 -0.84697295050E+02  0.59956951287E+02  0.12522195350E+03  0.20511945137E+03  0.12499993558E+03 0.  0.
          2    1    1    2  501    0  0.35270479974E+02  0.29224212512E+02 -0.84956873658E+03  0.85080262078E+03  0.00000000000E+00 0. -1.
          1    1    1    2  502    0  0.49426815076E+02 -0.89181163799E+02  0.15214267967E+04  0.15248395941E+04  0.00000000000E+00 0. -1.
         22    1    3    3    0    0 -0.68981286889E+02 -0.12022667115E+02  0.10920134392E+03  0.12972238041E+03  0.00000000000E+00 0.  1.
         22    1    3    3    0    0 -0.15716008161E+02  0.71979618402E+02  0.16020609581E+02  0.75397070959E+02  0.00000000000E+00 0.  1.
</event>
<event>
 7    1  0.6188600E-006  0.2778202E+03  0.7818608E-02  0.1133576E+00
          2   -1    0    0  502    0  0.00000000000E+00  0.00000000000E+00  0.46341809691E+03  0.46341809691E+03  0.00000000000E+00 0. -1.
          1   -1    0    0  501    0 -0.00000000000E+00 -0.00000000000E+00 -0.20338921560E+04  0.20338921560E+04  0.00000000000E+00 0. -1.
         25    2    1    2    0    0  0.16648693710E+03 -0.33170465515E+03 -0.61543091661E+03  0.72947087060E+03  0.12500663767E+03 0.  0.
          2    1    1    2  501    0 -0.20735956640E+03  0.16168104834E+03 -0.13291352013E+04  0.13548945105E+04  0.00000000000E+00 0. -1.
          1    1    1    2  502    0  0.40872629300E+02  0.17002360680E+03  0.37409205883E+03  0.41294487184E+03  0.00000000000E+00 0. -1.
         22    1    3    3    0    0  0.18186488786E+03 -0.26186750934E+03 -0.47843772881E+03  0.57493659671E+03  0.00000000000E+00 0. -1.
         22    1    3    3    0    0 -0.15377950758E+02 -0.69837145808E+02 -0.13699318780E+03  0.15453427389E+03  0.00000000000E+00 0. -1.
</event>
<event>
 7    1  0.6188600E-006  0.8039438E+02  0.7818608E-02  0.1353226E+00
          2   -1    0    0  502    0  0.00000000000E+00  0.00000000000E+00  0.63407731821E+02  0.63407731821E+02  0.00000000000E+00 0. -1.
          1   -1    0    0  501    0 -0.00000000000E+00 -0.00000000000E+00 -0.53864961178E+03  0.53864961178E+03  0.00000000000E+00 0. -1.
         25    2    1    2    0    0 -0.17535126629E+02 -0.59660461039E+02 -0.30805693017E+03  0.33821729172E+03  0.12500005167E+03 0.  0.
          2    1    1    2  501    0 -0.32450458269E+02  0.10056515363E+03 -0.16889504930E+03  0.19922831136E+03  0.00000000000E+00 0. -1.
          1    1    1    2  502    0  0.49985584898E+02 -0.40904692592E+02  0.17100995097E+01  0.64611740527E+02  0.00000000000E+00 0. -1.
         22    1    3    3    0    0 -0.69097612269E+02 -0.22781280771E+02 -0.20145011753E+03  0.21418593938E+03  0.00000000000E+00 0.  1.
         22    1    3    3    0    0  0.51562485640E+02 -0.36879180269E+02 -0.10660681263E+03  0.12403135234E+03  0.00000000000E+00 0.  1.
</event>
<event>
 7    1  0.6188600E-006  0.8306021E+02  0.7818608E-02  0.1432382E+00
          2   -1    0    0  502    0  0.00000000000E+00  0.00000000000E+00  0.18323007970E+04  0.18323007970E+04  0.00000000000E+00 0. -1.
          1   -1    0    0  501    0 -0.00000000000E+00 -0.00000000000E+00 -0.80255459677E+02  0.80255459677E+02  0.00000000000E+00 0. -1.
         25    2    1    2    0    0  0.52123564974E+02  0.23397249000E+02  0.71033468815E+03  0.72350864632E+03  0.12500037929E+03 0.  0.
          2    1    1    2  501    0  0.30842996159E+02  0.12189832621E+02 -0.68007698828E+02  0.75663264080E+02  0.00000000000E+00 0. -1.
          1    1    1    2  502    0 -0.82966561133E+02 -0.35587081621E+02  0.11097183480E+04  0.11133843463E+04  0.00000000000E+00 0. -1.
         22    1    3    3    0    0  0.13371496069E+02  0.72903301657E+02  0.41328883417E+03  0.41988254161E+03  0.00000000000E+00 0.  1.
         22    1    3    3    0    0  0.38752068905E+02 -0.49506052657E+02  0.29704585398E+03  0.30362610471E+03  0.00000000000E+00 0.  1.
</event>
<event>
 7    1  0.6188600E-006  0.7849525E+02  0.7818608E-02  0.1361826E+00
          2   -1    0    0  502    0  0.00000000000E+00  0.00000000000E+00  0.11551555839E+04  0.11551555839E+04  0.00000000000E+00 0. -1.
          1   -1    0    0  501    0 -0.00000000000E+00 -0.00000000000E+00 -0.73666226708E+03  0.73666226708E+03  0.00000000000E+00 0. -1.
         25    2    1    2    0    0 -0.16635077448E+02  0.13136455331E+02  0.21464176142E+03  0.24928796874E+03  0.12499645336E+03 0.  0.
          2    1    1    2  501    0  0.78147239848E+02 -0.11968629831E+02 -0.71613641223E+03  0.72048705757E+03  0.00000000000E+00 0. -1.
          1    1    1    2  502    0 -0.61512162400E+02 -0.11678255005E+01  0.91998796768E+03  0.92204282472E+03  0.00000000000E+00 0. -1.
         22    1    3    3    0    0 -0.23210848951E+02 -0.30350315687E+02  0.93472572113E+01  0.39335180039E+02  0.00000000000E+00 0.  1.
         22    1    3    3    0    0  0.65757715030E+01  0.43486771018E+02  0.20529450421E+03  0.20995278870E+03  0.00000000000E+00 0.  1.
</event>
<event>
 7    1  0.6188600E-006  0.4001365E+02  0.7818608E-02  0.1521867E+00
          2   -1    0    0  502    0  0.00000000000E+00  0.00000000000E+00  0.26346024320E+03  0.26346024320E+03  0.00000000000E+00 0. -1.
          1   -1    0    0  501    0 -0.00000000000E+00 -0.00000000000E+00 -0.12284003912E+03  0.12284003912E+03  0.00000000000E+00 0. -1.
         25    2    1    2    0    0 -0.65578657508E+02 -0.85873987657E+01  0.12262213162E+03  0.18717716064E+03  0.12499919424E+03 0.  0.
          2    1    1    2  501    0  0.29804454848E+02  0.21025927502E+02 -0.83321774981E+02  0.90955556961E+02  0.00000000000E+00 0. -1.
          1    1    1    2  502    0  0.35774202660E+02 -0.12438528737E+02  0.10131984744E+03  0.10816756472E+03  0.00000000000E+00 0. -1.
         22    1    3    3    0    0  0.34177898664E+02 -0.21964599556E+02  0.31525520992E+02  0.51424030031E+02  0.00000000000E+00 0.  1.
         22    1    3    3    0    0 -0.99756556172E+02  0.13377200790E+02  0.91096610632E+02  0.13575313060E+03  0.00000000000E+00 0.  1.
</event>
<event>
 7    1  0.6188600E-006  0.5808097E+02  0.7818608E-02  0.1544538E+00
          2   -1    0    0  502    0  0.00000000000E+00  0.00000000000E+00  0.19416970807E+03  0.19416970807E+03  0.00000000000E+00 0. -1.
          1   -1    0    0  501    0 -0.00000000000E+00 -0.00000000000E+00 -0.98285650162E+03  0.98285650162E+03  0.00000000000E+00 0. -1.
         25    2    1    2    0    0 -0.29474685065E+02  0.38012977270E+02 -0.14001717088E+02  0.13467471305E+03  0.12500994661E+03 0.  0.
          2    1    1    2  501    0  0.17039563628E+02 -0.55737274630E+02 -0.90670076683E+03  0.90857210560E+03  0.00000000000E+00 0. -1.
          1    1    1    2  502    0  0.12435121437E+02  0.17724297360E+02  0.13201569037E+03  0.13377939103E+03  0.00000000000E+00 0. -1.
         22    1    3    3    0    0 -0.37599965736E+02  0.79936457789E+02 -0.22444133059E+02  0.91144576449E+02  0.00000000000E+00 0. -1.
         22    1    3    3    0    0  0.81252806712E+01 -0.41923480520E+02  0.84424159706E+01  0.43530136599E+02  0.00000000000E+00 0. -1.
</event>
<event>
 7    1  0.6188600E-006  0.6213405E+02  0.7818608E-02  0.1397092E+00
          2   -1    0    0  502    0  0.00000000000E+00  0.00000000000E+00  0.28438056588E+03  0.28438056588E+03  0.00000000000E+00 0. -1.
          1   -1    0    0  501    0 -0.00000000000E+00 -0.00000000000E+00 -0.51887750551E+03  0.51887750551E+03  0.00000000000E+00 0. -1.
         25    2    1    2    0    0  0.10789876888E+02 -0.83949399555E+02 -0.60210473335E+02  0.16252582032E+03  0.12500167216E+03 0.  0.
          2    1    1    2  501    0  0.36674278568E+02  0.50129067864E+02 -0.40144235265E+03  0.40621901562E+03  0.00000000000E+00 0. -1.
          1    1    1    2  502    0 -0.47464155456E+02  0.33820331691E+02  0.22715588636E+03  0.23451323544E+03  0.00000000000E+00 0. -1.
         22    1    3    3    0    0 -0.37403416838E+02 -0.20612811800E+02  0.22052618941E+02  0.48064764679E+02  0.00000000000E+00 0. -1.
         22    1    3    3    0    0  0.48193293726E+02 -0.63336587756E+02 -0.82263092276E+02  0.11446105565E+03  0.00000000000E+00 0. -1.
</event>
<event>
 7    1  0.6188600E-006  0.8222201E+02  0.7818608E-02  0.1442058E+00
          2   -1    0    0  502    0  0.00000000000E+00  0.00000000000E+00  0.36184599247E+03  0.36184599247E+03  0.00000000000E+00 0. -1.
          1   -1    0    0  501    0 -0.00000000000E+00 -0.00000000000E+00 -0.21116734291E+03  0.21116734291E+03  0.00000000000E+00 0. -1.
         25    2    1    2    0    0 -0.64333873906E+02 -0.29098816506E+01 -0.55413365842E+02  0.15113906407E+03  0.12500024332E+03 0.  0.
          2    1    1    2  501    0 -0.12966502188E+02 -0.28330394318E+02 -0.99942262574E+02  0.10468618471E+03  0.00000000000E+00 0. -1.
          1    1    1    2  502    0  0.77300376095E+02  0.31240275968E+02  0.30603427797E+03  0.31718808660E+03  0.00000000000E+00 0. -1.
         22    1    3    3    0    0  0.31254713159E+02  0.17814147491E+02  0.47808834691E+01  0.36291290859E+02  0.00000000000E+00 0. -1.
         22    1    3    3    0    0 -0.95588587065E+02 -0.20724029141E+02 -0.60194249311E+02  0.11484777321E+03  0.00000000000E+00 0. -1.
</event>
<event>
 7    1  0.6188600E-006  0.5515960E+02  0.7818608E-02  0.1438044E+00
          2   -1    0    0  502    0  0.00000000000E+00  0.00000000000E+00  0.26536071369E+04  0.26536071369E+04  0.00000000000E+00 0. -1.
          1   -1    0    0  501    0 -0.00000000000E+00 -0.00000000000E+00 -0.57987695260E+02  0.57987695260E+02  0.00000000000E+00 0. -1.
         25    2    1    2    0    0  0.22641796425E+02 -0.66634162861E+02  0.28184598345E+03  0.31625191107E+03  0.12500140106E+03 0.  0.
          2    1    1    2  501    0 -0.48581268858E+02  0.26416747458E+02 -0.21681580140E+02  0.59397602203E+02  0.00000000000E+00 0. -1.
          1    1    1    2  502    0  0.25939472433E+02  0.40217415403E+02  0.23354550383E+04  0.23359453189E+04  0.00000000000E+00 0. -1.
         22    1    3    3    0    0  0.17174881280E+02 -0.10407067321E+03  0.21344433512E+03  0.23808436690E+03  0.00000000000E+00 0. -1.
         22    1    3    3    0    0  0.54669151453E+01  0.37436510346E+02  0.68401648328E+02  0.78167544174E+02  0.00000000000E+00 0. -1.
</event>
<event>
 7    1  0.6296582E-006  0.5929258E+02  0.7818608E-02  0.1442655E+00
          2   -1    0    0  502    0  0.00000000000E+00  0.00000000000E+00  0.17849321609E+04  0.17849321609E+04  0.00000000000E+00 0. -1.
          1   -1    0    0  501    0 -0.00000000000E+00 -0.00000000000E+00 -0.41056755861E+03  0.41056755861E+03  0.00000000000E+00 0. -1.
         25    2    1    2    0    0 -0.56802500226E+02  0.27602276133E+02 -0.18248659670E+03  0.23003355639E+03  0.12500267761E+03 0.  0.
          2    1    1    2  501    0 -0.48195443079E+00 -0.43011072792E+02 -0.20153779019E+03  0.20607684377E+03  0.00000000000E+00 0. -1.
          1    1    1    2  502    0  0.57284454657E+02  0.15408796660E+02  0.17583889892E+04  0.17593893194E+04  0.00000000000E+00 0. -1.
         22    1    3    3    0    0  0.27607167864E+02 -0.11552511850E+02 -0.10426236419E+03  0.10847237821E+03  0.00000000000E+00 0.  1.
         22    1    3    3    0    0 -0.84409668090E+02  0.39154787983E+02 -0.78224232510E+02  0.12156117818E+03  0.00000000000E+00 0.  1.
</event>
<event>
 7    1  0.6188600E-006  0.4846043E+02  0.7818608E-02  0.1535480E+00
          2   -1    0    0  502    0  0.00000000000E+00  0.00000000000E+00  0.92207778818E+02  0.92207778818E+02  0.00000000000E+00 0. -1.
          1   -1    0    0  501    0 -0.00000000000E+00 -0.00000000000E+00 -0.37889619351E+03  0.37889619351E+03  0.00000000000E+00 0. -1.
         25    2    1    2    0    0  0.69991652702E+02 -0.22372930619E+02 -0.81324929775E+02  0.16624631562E+03  0.12499885512E+03 0.  0.
          2    1    1    2  501    0 -0.25036348662E+02  0.11438561062E+02 -0.24340735787E+03  0.24495877469E+03  0.00000000000E+00 0. -1.
          1    1    1    2  502    0 -0.44955304040E+02  0.10934369556E+02  0.38043872947E+02  0.59898882024E+02  0.00000000000E+00 0. -1.
         22    1    3    3    0    0 -0.29908268594E+02 -0.21563064004E+02  0.86214823307E+00  0.36881073183E+02  0.00000000000E+00 0.  1.
         22    1    3    3    0    0  0.99899921296E+02 -0.80986661409E+00 -0.82187078008E+02  0.12936524243E+03  0.00000000000E+00 0.  1.
</event>
<event>
 7    1  0.6188600E-006  0.1487595E+03  0.7818608E-02  0.1290804E+00
          2   -1    0    0  502    0  0.00000000000E+00  0.00000000000E+00  0.72226627880E+03  0.72226627880E+03  0.00000000000E+00 0. -1.
          1   -1    0    0  501    0 -0.00000000000E+00 -0.00000000000E+00 -0.31841469894E+03  0.31841469894E+03  0.00000000000E+00 0. -1.
         25    2    1    2    0    0 -0.79985700667E+02 -0.97376408368E+02  0.14196491499E+03  0.22727733424E+03  0.12498428842E+03 0.  0.
          2    1    1    2  501    0  0.43459956377E+02  0.14608165989E+03 -0.25276759130E+03  0.29516109902E+03  0.00000000000E+00 0. -1.
          1    1    1    2  502    0  0.36525744290E+02 -0.48705251527E+02  0.51465425616E+03  0.51824254448E+03  0.00000000000E+00 0. -1.
         22    1    3    3    0    0 -0.34997991210E+02 -0.86879572783E+00 -0.14603881632E+02  0.37932671320E+02  0.00000000000E+00 0. -1.
         22    1    3    3    0    0 -0.44987709457E+02 -0.96507612640E+02  0.15656879663E+03  0.18934466292E+03  0.00000000000E+00 0. -1.
</event>
<event>
 7    1  0.6188600E-006  0.7437155E+02  0.7818608E-02  0.1444485E+00
          2   -1    0    0  502    0  0.00000000000E+00  0.00000000000E+00  0.34560254178E+03  0.34560254178E+03  0.00000000000E+00 0. -1.
          1   -1    0    0  501    0 -0.00000000000E+00 -0.00000000000E+00 -0.24936732196E+03  0.24936732196E+03  0.00000000000E+00 0. -1.
         25    2    1    2    0    0 -0.78791948067E+01 -0.47058419866E+02 -0.86924790607E+02  0.15954981577E+03  0.12499459148E+03 0.  0.
          2    1    1    2  501    0  0.19745288345E+02 -0.27469029911E+02 -0.11913634704E+03  0.12384624824E+03  0.00000000000E+00 0. -1.
          1    1    1    2  502    0 -0.11866093538E+02  0.74527449777E+02  0.30229635746E+03  0.31157379973E+03  0.00000000000E+00 0. -1.
         22    1    3    3    0    0 -0.37032499881E+02 -0.67526066009E+02 -0.13841803468E+02  0.78248138390E+02  0.00000000000E+00 0. -1.
         22    1    3    3    0    0  0.29153305075E+02  0.20467646144E+02 -0.73082987138E+02  0.81301677378E+02  0.00000000000E+00 0. -1.
</event>
<event>
 7    1  0.6188600E-006  0.9096768E+02  0.7818608E-02  0.1317335E+00
          2   -1    0    0  502    0  0.00000000000E+00  0.00000000000E+00  0.30790373711E+04  0.30790373711E+04  0.00000000000E+00 0. -1.
          1   -1    0    0  501    0 -0.00000000000E+00 -0.00000000000E+00 -0.67383572736E+02  0.67383572736E+02  0.00000000000E+00 0. -1.
         25    2    1    2    0    0  0.29072124389E+02 -0.15679284103E+03  0.35911231122E+03  0.41232885619E+03  0.12499700064E+03 0.  0.
          2    1    1    2  501    0 -0.38270864243E+02  0.68055161713E+02 -0.19495948404E+01  0.78102272731E+02  0.00000000000E+00 0. -1.
          1    1    1    2  502    0  0.91987398538E+01  0.88737679319E+02  0.26544910820E+04  0.26559898149E+04  0.00000000000E+00 0. -1.
         22    1    3    3    0    0  0.27237311308E+02 -0.14157193916E+03  0.36756131827E+03  0.39482376799E+03  0.00000000000E+00 0. -1.
         22    1    3    3    0    0  0.18348130810E+01 -0.15220901875E+02 -0.84490070501E+01  0.17505088205E+02  0.00000000000E+00 0. -1.
</event>
<event>
 7    1  0.6188600E-006  0.4243890E+02  0.7818608E-02  0.1575244E+00
          2   -1    0    0  502    0  0.00000000000E+00  0.00000000000E+00  0.35379741198E+03  0.35379741198E+03  0.00000000000E+00 0. -1.
          1   -1    0    0  501    0 -0.00000000000E+00 -0.00000000000E+00 -0.30544853261E+02  0.30544853261E+02  0.00000000000E+00 0. -1.
         25    2    1    2    0    0 -0.49746272627E+02  0.21998547847E+01  0.22049863562E+03  0.25831026621E+03  0.12500005728E+03 0.  0.
          2    1    1    2  501    0  0.14182148211E+02  0.19842679670E+02  0.14532098059E+02  0.28390969310E+02  0.00000000000E+00 0. -1.
          1    1    1    2  502    0  0.35564124416E+02 -0.22042534455E+02  0.88221825047E+02  0.97641029722E+02  0.00000000000E+00 0. -1.
         22    1    3    3    0    0 -0.80636987470E+02  0.36190601940E+02  0.13770903690E+03  0.16363331648E+03  0.00000000000E+00 0. -1.
         22    1    3    3    0    0  0.30890714843E+02 -0.33990747155E+02  0.82789598717E+02  0.94676949736E+02  0.00000000000E+00 0. -1.
</event>
<event>
 7    1  0.6188600E-006  0.1266629E+03  0.7818608E-02  0.1420311E+00
          2   -1    0    0  502    0  0.00000000000E+00  0.00000000000E+00  0.96875197403E+03  0.96875197403E+03  0.00000000000E+00 0. -1.
          1   -1    0    0  501    0 -0.00000000000E+00 -0.00000000000E+00 -0.17349188283E+04  0.17349188283E+04  0.00000000000E+00 0. -1.
         25    2    1    2    0    0  0.99314815445E+02 -0.10793230826E+03 -0.19415877523E+03  0.27356000553E+03  0.12499852356E+03 0.  0.
          2    1    1    2  501    0 -0.22603088223E+02  0.75897147154E+01 -0.14966711366E+04  0.14968610471E+04  0.00000000000E+00 0. -1.
          1    1    1    2  502    0 -0.76711727222E+02  0.10034259355E+03  0.92466305757E+03  0.93324974964E+03  0.00000000000E+00 0. -1.
         22    1    3    3    0    0  0.11303955405E+03 -0.42022016542E+02 -0.94126724464E+02  0.15298245295E+03  0.00000000000E+00 0. -1.
         22    1    3    3    0    0 -0.13724738602E+02 -0.65910291720E+02 -0.10003205076E+03  0.12057755257E+03  0.00000000000E+00 0. -1.
</event>
<event>
 7    1  0.6188600E-006  0.9271832E+02  0.7818608E-02  0.1457613E+00
          2   -1    0    0  502    0  0.00000000000E+00  0.00000000000E+00  0.31592389520E+03  0.31592389520E+03  0.00000000000E+00 0. -1.
          1   -1    0    0  501    0 -0.00000000000E+00 -0.00000000000E+00 -0.84739363931E+03  0.84739363931E+03  0.00000000000E+00 0. -1.
         25    2    1    2    0    0  0.62868246799E+02 -0.29622384974E+02 -0.54979727827E+02  0.15322570961E+03  0.12500178185E+03 0.  0.
          2    1    1    2  501    0 -0.84866106761E+02  0.40716836603E+02 -0.73973338373E+03  0.74569805945E+03  0.00000000000E+00 0. -1.
          1    1    1    2  502    0  0.21997859963E+02 -0.11094451629E+02  0.26324336745E+03  0.26439376545E+03  0.00000000000E+00 0. -1.
         22    1    3    3    0    0  0.32754901312E+02  0.48590427855E+02 -0.29639443546E+02  0.65668941310E+02  0.00000000000E+00 0.  1.
         22    1    3    3    0    0  0.30113345487E+02 -0.78212812829E+02 -0.25340284281E+02  0.87556768296E+02  0.00000000000E+00 0.  1.
</event>
<event>
 7    1  0.6188600E-006  0.1554896E+03  0.7818608E-02  0.1383625E+00
          2   -1    0    0  502    0  0.00000000000E+00  0.00000000000E+00  0.15240487210E+04  0.15240487210E+04  0.00000000000E+00 0. -1.
          1   -1    0    0  501    0 -0.00000000000E+00 -0.00000000000E+00 -0.18904026219E+03  0.18904026219E+03  0.00000000000E+00 0. -1.
         25    2    1    2    0    0 -0.13261162098E+03  0.92895210879E+02 -0.75850950065E+02  0.21816106742E+03  0.12500208993E+03 0.  0.
          2    1    1    2  501    0  0.21025631628E+02  0.15208350889E+02 -0.33422599350E+02  0.42313606198E+02  0.00000000000E+00 0. -1.
          1    1    1    2  502    0  0.11158598935E+03 -0.10810356177E+03  0.14442820083E+04  0.14526143096E+04  0.00000000000E+00 0. -1.
         22    1    3    3    0    0 -0.84315254419E+02 -0.13773801468E+02 -0.47237312041E+02  0.97622453276E+02  0.00000000000E+00 0. -1.
         22    1    3    3    0    0 -0.48296366561E+02  0.10666901235E+03 -0.28613638023E+02  0.12053861414E+03  0.00000000000E+00 0. -1.
</event>
<event>
 7    1  0.6188600E-006  0.5533234E+02  0.7818608E-02  0.1457725E+00
          2   -1    0    0  502    0  0.00000000000E+00  0.00000000000E+00  0.45694407480E+02  0.45694407480E+02  0.00000000000E+00 0. -1.
          1   -1    0    0  501    0 -0.00000000000E+00 -0.00000000000E+00 -0.21029174542E+04  0.21029174542E+04  0.00000000000E+00 0. -1.
         25    2    1    2    0    0  0.15089043368E+02  0.18945178842E+02 -0.57801849004E+03  0.59187591206E+03  0.12500048564E+03 0.  0.
          2    1    1    2  501    0 -0.23514381177E+01 -0.58179390296E+02 -0.15062727579E+04  0.15073977550E+04  0.00000000000E+00 0. -1.
          1    1    1    2  502    0 -0.12737605251E+02  0.39234211453E+02  0.27068201165E+02  0.49338194638E+02  0.00000000000E+00 0. -1.
         22    1    3    3    0    0 -0.44753379499E+02  0.15300351076E+02 -0.42351934535E+03  0.42615208741E+03  0.00000000000E+00 0. -1.
         22    1    3    3    0    0  0.59842422868E+02  0.36448277661E+01 -0.15449914469E+03  0.16572382465E+03  0.00000000000E+00 0. -1.
</event>
<event>
 7    1  0.6188600E-006  0.1677847E+03  0.7818608E-02  0.1276438E+00
          2   -1    0    0  502    0  0.00000000000E+00  0.00000000000E+00  0.10239052756E+04  0.10239052756E+04  0.00000000000E+00 0. -1.
          1   -1    0    0  501    0 -0.00000000000E+00 -0.00000000000E+00 -0.18515213210E+03  0.18515213210E+03  0.00000000000E+00 0. -1.
         25    2    1    2    0    0  0.15443115960E+03  0.44631912907E+00  0.10193467812E+03  0.22330439516E+03  0.12499996817E+03 0.  0.
          2    1    1    2  501    0 -0.16496248838E+03  0.60484932577E+02 -0.60662065478E+02  0.18587882028E+03  0.00000000000E+00 0. -1.
          1    1    1    2  502    0  0.10531328784E+02 -0.60931251706E+02  0.79748053091E+03  0.79987419230E+03  0.00000000000E+00 0. -1.
         22    1    3    3    0    0  0.43786289366E+02  0.57450462533E+02  0.22528145983E+02  0.75665792424E+02  0.00000000000E+00 0.  1.
         22    1    3    3    0    0  0.11064487023E+03 -0.57004143404E+02  0.79406532135E+02  0.14763860274E+03  0.00000000000E+00 0.  1.
</event>
<event>
 7    1  0.6188600E-006  0.5997195E+02  0.7818608E-02  0.1521011E+00
          2   -1    0    0  502    0  0.00000000000E+00  0.00000000000E+00  0.12688599926E+04  0.12688599926E+04  0.00000000000E+00 0. -1.
          1   -1    0    0  501    0 -0.00000000000E+00 -0.00000000000E+00 -0.41001140323E+03  0.41001140323E+03  0.00000000000E+00 0. -1.
         25    2    1    2    0    0 -0.56760139426E+02 -0.23154046598E+02 -0.15537204392E+02  0.14008491451E+03  0.12499822099E+03 0.  0.
          2    1    1    2  501    0  0.14656508965E+02 -0.19601826390E+02 -0.33100216540E+03  0.33190582754E+03  0.00000000000E+00 0. -1.
          1    1    1    2  502    0  0.42103630461E+02  0.42755872988E+02  0.12053879592E+04  0.12068806538E+04  0.00000000000E+00 0. -1.
         22    1    3    3    0    0 -0.94427676396E+02 -0.49511533849E+01  0.23488704332E+01  0.94586559202E+02  0.00000000000E+00 0.  1.
         22    1    3    3    0    0  0.37667536971E+02 -0.18202893213E+02 -0.17886074825E+02  0.45498355305E+02  0.00000000000E+00 0.  1.
</event>
<event>
 7    1  0.6188600E-006  0.8951155E+02  0.7818608E-02  0.1357523E+00
          2   -1    0    0  502    0  0.00000000000E+00  0.00000000000E+00  0.17074845307E+04  0.17074845307E+04  0.00000000000E+00 0. -1.
          1   -1    0    0  501    0 -0.00000000000E+00 -0.00000000000E+00 -0.12581187534E+04  0.12581187534E+04  0.00000000000E+00 0. -1.
         25    2    1    2    0    0  0.14000709824E+03  0.34027861500E+02  0.14855444120E+02  0.19132600474E+03  0.12500029181E+03 0.  0.
          2    1    1    2  501    0 -0.84580484968E+02 -0.26475799123E+02 -0.11677161230E+04  0.11710746220E+04  0.00000000000E+00 0. -1.
          1    1    1    2  502    0 -0.55426613272E+02 -0.75520623768E+01  0.16022264562E+04  0.16032026572E+04  0.00000000000E+00 0. -1.
         22    1    3    3    0    0  0.14920939185E+03  0.51285749265E+02  0.36716416856E+02  0.16199310467E+03  0.00000000000E+00 0.  1.
         22    1    3    3    0    0 -0.92022936054E+01 -0.17257887765E+02 -0.21860972736E+02  0.29332900072E+02  0.00000000000E+00 0.  1.
</event>
<event>
 7    1  0.6188600E-006  0.5439960E+02  0.7818608E-02  0.1443606E+00
          2   -1    0    0  502    0  0.00000000000E+00  0.00000000000E+00  0.32711705951E+02  0.32711705951E+02  0.00000000000E+00 0. -1.
          1   -1    0    0  501    0 -0.00000000000E+00 -0.00000000000E+00 -0.63809723083E+03  0.63809723083E+03  0.00000000000E+00 0. -1.
         25    2    1    2    0    0  0.32019764709E+02 -0.18907802658E+02 -0.42182026979E+03  0.44151544774E+03  0.12498311986E+03 0.  0.
          2    1    1    2  501    0 -0.28414446864E+02  0.65320307127E+02 -0.16399030445E+03  0.17879301795E+03  0.00000000000E+00 0. -1.
          1    1    1    2  502    0 -0.36053178454E+01 -0.46412504469E+02 -0.19574950631E+02  0.50500471088E+02  0.00000000000E+00 0. -1.
         22    1    3    3    0    0 -0.90589160083E+01 -0.60897366721E+02 -0.13000519178E+03  0.14384680435E+03  0.00000000000E+00 0.  1.
         22    1    3    3    0    0  0.41078680718E+02  0.41989564063E+02 -0.29181507801E+03  0.29766864339E+03  0.00000000000E+00 0.  1.
</event>
<event>
 7    1  0.6188600E-006  0.9934587E+02  0.7818608E-02  0.1338588E+00
          2   -1    0    0  502    0  0.00000000000E+00  0.00000000000E+00  0.13865736681E+04  0.13865736681E+04  0.00000000000E+00 0. -1.
          1   -1    0    0  501    0 -0.00000000000E+00 -0.00000000000E+00 -0.16110056783E+03  0.16110056783E+03  0.00000000000E+00 0. -1.
         25    2    1    2    0    0 -0.11848680228E+03 -0.88400330632E+02  0.50443759550E+03  0.54031122470E+03  0.12500076403E+03 0.  0.
          2    1    1    2  501    0  0.55840358076E+02  0.19859039228E+02 -0.13440791763E+03  0.14689457223E+03  0.00000000000E+00 0. -1.
          1    1    1    2  502    0  0.62646444208E+02  0.68541291404E+02  0.85544342242E+03  0.86046843903E+03  0.00000000000E+00 0. -1.
         22    1    3    3    0    0 -0.29804029545E+02  0.11670411399E+02  0.25763046257E+03  0.25961112057E+03  0.00000000000E+00 0.  1.
         22    1    3    3    0    0 -0.88682772739E+02 -0.10007074203E+03  0.24680713293E+03  0.28070010412E+03  0.00000000000E+00 0.  1.
</event>
<event>
 7    1  0.6188600E-006  0.2084721E+03  0.7818608E-02  0.1210229E+00
          2   -1    0    0  502    0  0.00000000000E+00  0.00000000000E+00  0.19840766360E+04  0.19840766360E+04  0.00000000000E+00 0. -1.
          1   -1    0    0  501    0 -0.00000000000E+00 -0.00000000000E+00 -0.50622807739E+02  0.50622807739E+02  0.00000000000E+00 0. -1.
         25    2    1    2    0    0  0.20491965546E+03 -0.36084530382E+02  0.59780996716E+03  0.64521013724E+03  0.12500082331E+03 0.  0.
          2    1    1    2  501    0 -0.32076018526E+02 -0.91724513257E+02  0.11727230513E+03  0.15229921486E+03  0.00000000000E+00 0. -1.
          1    1    1    2  502    0 -0.17284363693E+03  0.12780904364E+03  0.12183715559E+04  0.12371900916E+04  0.00000000000E+00 0. -1.
         22    1    3    3    0    0  0.20953109928E+03 -0.10326224046E+02  0.46917830422E+03  0.51394376503E+03  0.00000000000E+00 0.  1.
         22    1    3    3    0    0 -0.46114438188E+01 -0.25758306337E+02  0.12863166294E+03  0.13126637220E+03  0.00000000000E+00 0.  1.
</event>
<event>
 7    1  0.6188600E-006  0.8123593E+02  0.7818608E-02  0.1378438E+00
          2   -1    0    0  502    0  0.00000000000E+00  0.00000000000E+00  0.16592527187E+04  0.16592527187E+04  0.00000000000E+00 0. -1.
          1   -1    0    0  501    0 -0.00000000000E+00 -0.00000000000E+00 -0.58299004606E+03  0.58299004606E+03  0.00000000000E+00 0. -1.
         25    2    1    2    0    0 -0.25045481037E+02 -0.10956848346E+03 -0.57925260746E+01  0.16819341867E+03  0.12499177588E+03 0.  0.
          2    1    1    2  501    0  0.41975965523E+02  0.30371127966E+02 -0.49360123599E+03  0.49631297310E+03  0.00000000000E+00 0. -1.
          1    1    1    2  502    0 -0.16930484486E+02  0.79197355497E+02  0.15756564347E+04  0.15777363730E+04  0.00000000000E+00 0. -1.
         22    1    3    3    0    0 -0.44512106264E+02 -0.33885747544E+02 -0.52861300885E+02  0.76966802077E+02  0.00000000000E+00 0. -1.
         22    1    3    3    0    0  0.19466625227E+02 -0.75682735919E+02  0.47068774810E+02  0.91226616598E+02  0.00000000000E+00 0. -1.
</event>
<event>
 7    1  0.6188600E-006  0.4095663E+02  0.7818608E-02  0.1557875E+00
          2   -1    0    0  502    0  0.00000000000E+00  0.00000000000E+00  0.38218384799E+03  0.38218384799E+03  0.00000000000E+00 0. -1.
          1   -1    0    0  501    0 -0.00000000000E+00 -0.00000000000E+00 -0.24987031396E+04  0.24987031396E+04  0.00000000000E+00 0. -1.
         25    2    1    2    0    0  0.32233527992E+02  0.58332508960E+02  0.17889872309E+03  0.22819223976E+03  0.12500105295E+03 0.  0.
          2    1    1    2  501    0 -0.11435930685E+02 -0.39306809015E+02 -0.24727740043E+04  0.24731128324E+04  0.00000000000E+00 0. -1.
          1    1    1    2  502    0 -0.20797597307E+02 -0.19025699945E+02  0.17735598955E+03  0.17958191541E+03  0.00000000000E+00 0. -1.
         22    1    3    3    0    0  0.29949718231E+02 -0.51922943471E+00  0.16497552718E+03  0.16767283557E+03  0.00000000000E+00 0. -1.
         22    1    3    3    0    0  0.22838097605E+01  0.58851738395E+02  0.13923195906E+02  0.60519404188E+02  0.00000000000E+00 0. -1.
</event>
<event>
 7    1  0.6188600E-006  0.1095192E+03  0.7818608E-02  0.1373116E+00
          2   -1    0    0  502    0  0.00000000000E+00  0.00000000000E+00  0.94150657811E+02  0.94150657811E+02  0.00000000000E+00 0. -1.
          1   -1    0    0  501    0 -0.00000000000E+00 -0.00000000000E+00 -0.28241625310E+04  0.28241625310E+04  0.00000000000E+00 0. -1.
         25    2    1    2    0    0  0.13124490396E+03  0.65550575448E+02 -0.45863185840E+03  0.49748249156E+03  0.12499418035E+03 0.  0.
          2    1    1    2  501    0 -0.35941030196E+02 -0.17888469852E+02 -0.23078543530E+04  0.23082035157E+04  0.00000000000E+00 0. -1.
          1    1    1    2  502    0 -0.95303873762E+02 -0.47662105595E+02  0.36474338284E+02  0.11262718152E+03  0.00000000000E+00 0. -1.
         22    1    3    3    0    0  0.44820890749E+02  0.47651029600E+02 -0.35670678024E+03  0.36265584228E+03  0.00000000000E+00 0. -1.
         22    1    3    3    0    0  0.86424013208E+02  0.17899545847E+02 -0.10192507816E+03  0.13482664929E+03  0.00000000000E+00 0. -1.
</event>
<event>
 7    1  0.6188600E-006  0.2120250E+03  0.7818608E-02  0.1274267E+00
          2   -1    0    0  502    0  0.00000000000E+00  0.00000000000E+00  0.72500444558E+03  0.72500444558E+03  0.00000000000E+00 0. -1.
          1   -1    0    0  501    0 -0.00000000000E+00 -0.00000000000E+00 -0.27001062066E+03  0.27001062066E+03  0.00000000000E+00 0. -1.
         25    2    1    2    0    0 -0.48589046597E+02  0.16076896640E+03  0.56892476049E+03  0.60622424231E+03  0.12499957145E+03 0.  0.
          2    1    1    2  501    0  0.78366287490E+02 -0.20088748201E+03 -0.19685795048E+03  0.29197621155E+03  0.00000000000E+00 0. -1.
          1    1    1    2  502    0 -0.29777240893E+02  0.40118515604E+02  0.82927014912E+02  0.96814612387E+02  0.00000000000E+00 0. -1.
         22    1    3    3    0    0 -0.69207342566E+02  0.16691351598E+03  0.54438213204E+03  0.57358668375E+03  0.00000000000E+00 0.  1.
         22    1    3    3    0    0  0.20618295968E+02 -0.61445495777E+01  0.24542628444E+02  0.32637558565E+02  0.00000000000E+00 0.  1.
</event>
<event>
 7    1  0.6188600E-006  0.4467185E+02  0.7818608E-02  0.1546483E+00
          2   -1    0    0  502    0  0.00000000000E+00  0.00000000000E+00  0.26047600030E+04  0.26047600030E+04  0.00000000000E+00 0. -1.
          1   -1    0    0  501    0 -0.00000000000E+00 -0.00000000000E+00 -0.37287311276E+02  0.37287311276E+02  0.00000000000E+00 0. -1.
         25    2    1    2    0    0  0.25017419065E+02  0.66836672975E+02  0.10089761626E+04  0.10191910630E+04  0.12499805602E+03 0.  0.
          2    1    1    2  501    0 -0.20021770066E+02 -0.39490310823E+02 -0.16769287674E+02  0.47345168017E+02  0.00000000000E+00 0. -1.
          1    1    1    2  502    0 -0.49956489985E+01 -0.27346362152E+02  0.15752658168E+04  0.15755110833E+04  0.00000000000E+00 0. -1.
         22    1    3    3    0    0  0.71166432381E+02  0.23514601000E+02  0.40234292445E+03  0.40926449445E+03  0.00000000000E+00 0.  1.
         22    1    3    3    0    0 -0.46149013316E+02  0.43322071974E+02  0.60663323817E+03  0.60992656853E+03  0.00000000000E+00 0.  1.
</event>
<event>
 7    1  0.6188600E-006  0.6602221E+02  0.7818608E-02  0.1392396E+00
          2   -1    0    0  502    0  0.00000000000E+00  0.00000000000E+00  0.67575165444E+03  0.67575165444E+03  0.00000000000E+00 0. -1.
          1   -1    0    0  501    0 -0.00000000000E+00 -0.00000000000E+00 -0.49876174124E+02  0.49876174124E+02  0.00000000000E+00 0. -1.
         25    2    1    2    0    0  0.41054855745E+02 -0.19332230624E+02  0.17208467368E+03  0.21747886730E+03  0.12499874594E+03 0.  0.
          2    1    1    2  501    0 -0.69856628125E+02 -0.29789646849E+02  0.31797928654E+02  0.82331523848E+02  0.00000000000E+00 0. -1.
          1    1    1    2  502    0  0.28801772380E+02  0.49121877473E+02  0.42199287798E+03  0.42581743741E+03  0.00000000000E+00 0. -1.
         22    1    3    3    0    0 -0.36962562701E+02 -0.16615345183E+02  0.17182107384E+02  0.44017332394E+02  0.00000000000E+00 0.  1.
         22    1    3    3    0    0  0.78017418446E+02 -0.27168854416E+01  0.15490256630E+03  0.17346153491E+03  0.00000000000E+00 0.  1.
</event>
<event>
 7    1  0.6188600E-006  0.7212389E+02  0.7818608E-02  0.1430154E+00
          2   -1    0    0  502    0  0.00000000000E+00  0.00000000000E+00  0.13355811672E+03  0.13355811672E+03  0.00000000000E+00 0. -1.
          1   -1    0    0  501    0 -0.00000000000E+00 -0.00000000000E+00 -0.12175237538E+04  0.12175237538E+04  0.00000000000E+00 0. -1.
         25    2    1    2    0    0 -0.11818529333E+01  0.39722940917E+02 -0.14338164749E+03  0.19432433274E+03  0.12499736256E+03 0.  0.
          2    1    1    2  501    0 -0.22763199912E+02 -0.70307076863E+02 -0.10438320409E+04  0.10464447324E+04  0.00000000000E+00 0. -1.
          1    1    1    2  502    0  0.23945052845E+02  0.30584135946E+02  0.10324805132E+03  0.11031280537E+03  0.00000000000E+00 0. -1.
         22    1    3    3    0    0 -0.37513053880E+02 -0.12203613708E+02 -0.21281884871E+01  0.39505526008E+02  0.00000000000E+00 0.  1.
         22    1    3    3    0    0  0.36331200947E+02  0.51926554625E+02 -0.14125345900E+03  0.15481880673E+03  0.00000000000E+00 0.  1.
</event>
<event>
 7    1  0.6188600E-006  0.1683746E+03  0.7818608E-02  0.1189018E+00
          2   -1    0    0  502    0  0.00000000000E+00  0.00000000000E+00  0.71829379782E+03  0.71829379782E+03  0.00000000000E+00 0. -1.
          1   -1    0    0  501    0 -0.00000000000E+00 -0.00000000000E+00 -0.59097810243E+03  0.59097810243E+03  0.00000000000E+00 0. -1.
         25    2    1    2    0    0 -0.30848890516E+03 -0.43152016739E+02 -0.16500092126E+03  0.37400217808E+03  0.12499929612E+03 0.  0.
          2    1    1    2  501    0  0.15149961667E+03  0.91607155173E+00 -0.29188945540E+03  0.32886536335E+03  0.00000000000E+00 0. -1.
          1    1    1    2  502    0  0.15698928849E+03  0.42235945187E+02  0.58420607205E+03  0.60640435881E+03  0.00000000000E+00 0. -1.
         22    1    3    3    0    0  0.15544625248E+00  0.99811920169E+01 -0.32400061707E+02  0.33902984474E+02  0.00000000000E+00 0. -1.
         22    1    3    3    0    0 -0.30864435142E+03 -0.53133208756E+02 -0.13260085955E+03  0.34009919360E+03  0.00000000000E+00 0. -1.
</event>
<event>
 7    1  0.6207355E-006  0.9552286E+02  0.7818608E-02  0.1346963E+00
          2   -1    0    0  502    0  0.00000000000E+00  0.00000000000E+00  0.12119961271E+04  0.12119961271E+04  0.00000000000E+00 0. -1.
          1   -1    0    0  501    0 -0.00000000000E+00 -0.00000000000E+00 -0.10960534364E+04  0.10960534364E+04  0.00000000000E+00 0. -1.
         25    2    1    2    0    0 -0.48903124057E+02 -0.12894552611E+03 -0.61563952191E+02  0.19604550523E+03  0.12500102265E+03 0.  0.
          2    1    1    2  501    0  0.46178093854E+02  0.33996576503E+02 -0.96442517481E+03  0.96612840833E+03  0.00000000000E+00 0. -1.
          1    1    1    2  502    0  0.27250302028E+01  0.94948949612E+02  0.11419318177E+04  0.11458756499E+04  0.00000000000E+00 0. -1.
         22    1    3    3    0    0  0.22590134229E+02 -0.98754459686E+02 -0.61359185054E+02  0.11843862150E+03  0.00000000000E+00 0.  1.
         22    1    3    3    0    0 -0.71493258285E+02 -0.30191066429E+02 -0.20476713703E+00  0.77606883728E+02  0.00000000000E+00 0.  1.
</event>
<event>
 7    1  0.6188600E-006  0.7553322E+02  0.7818608E-02  0.1399771E+00
          2   -1    0    0  502    0  0.00000000000E+00  0.00000000000E+00  0.15232359351E+04  0.15232359351E+04  0.00000000000E+00 0. -1.
          1   -1    0    0  501    0 -0.00000000000E+00 -0.00000000000E+00 -0.15925014375E+02  0.15925014375E+02  0.00000000000E+00 0. -1.
         25    2    1    2    0    0  0.13418715840E+02 -0.82472654317E+02  0.10254471269E+04  0.10364116509E+04  0.12500199752E+03 0.  0.
          2    1    1    2  501    0 -0.51974896064E+02  0.55711182741E+02  0.15698187320E+03  0.17449479710E+03  0.00000000000E+00 0. -1.
          1    1    1    2  502    0  0.38556180224E+02  0.26761471576E+02  0.32488192061E+03  0.32825450146E+03  0.00000000000E+00 0. -1.
         22    1    3    3    0    0  0.39202818328E+02 -0.25041837613E+02  0.82501859269E+03  0.82632901007E+03  0.00000000000E+00 0. -1.
         22    1    3    3    0    0 -0.25784102489E+02 -0.57430816704E+02  0.20042853422E+03  0.21008264083E+03  0.00000000000E+00 0. -1.
</event>
<event>
 7    1  0.6188600E-006  0.7557482E+02  0.7818608E-02  0.1349384E+00
          2   -1    0    0  502    0  0.00000000000E+00  0.00000000000E+00  0.15536735788E+03  0.15536735788E+03  0.00000000000E+00 0. -1.
          1   -1    0    0  501    0 -0.00000000000E+00 -0.00000000000E+00 -0.79327432705E+03  0.79327432705E+03  0.00000000000E+00 0. -1.
         25    2    1    2    0    0  0.25887274506E+02 -0.46399083253E+02  0.32459196600E+01  0.13587507391E+03  0.12501389445E+03 0.  0.
          2    1    1    2  501    0 -0.60847162554E+02 -0.36573485615E+02 -0.70104416592E+03  0.70462963294E+03  0.00000000000E+00 0. -1.
          1    1    1    2  502    0  0.34959888048E+02  0.82972568868E+02  0.59891277099E+02  0.10813697809E+03  0.00000000000E+00 0. -1.
         22    1    3    3    0    0 -0.19884832017E+02  0.85067097935E+01  0.47228614894E+02  0.51945285837E+02  0.00000000000E+00 0. -1.
         22    1    3    3    0    0  0.45772106522E+02 -0.54905793046E+02 -0.43982695234E+02  0.83929788070E+02  0.00000000000E+00 0. -1.
</event>
<event>
 7    1  0.6188600E-006  0.2356138E+03  0.7818608E-02  0.1299535E+00
          2   -1    0    0  502    0  0.00000000000E+00  0.00000000000E+00  0.63880534672E+03  0.63880534672E+03  0.00000000000E+00 0. -1.
          1   -1    0    0  501    0 -0.00000000000E+00 -0.00000000000E+00 -0.92168707400E+03  0.92168707400E+03  0.00000000000E+00 0. -1.
         25    2    1    2    0    0 -0.22111914769E+03 -0.12302016459E+03 -0.33376259363E+03  0.43709295184E+03  0.12500056507E+03 0.  0.
          2    1    1    2  501    0  0.20954253880E+03  0.89520400488E+02 -0.51147053272E+03  0.55993221332E+03  0.00000000000E+00 0. -1.
          1    1    1    2  502    0  0.11576608895E+02  0.33499764101E+02  0.56235139906E+03  0.56346725557E+03  0.00000000000E+00 0. -1.
         22    1    3    3    0    0 -0.23247659242E+03 -0.11621260089E+03 -0.33476457476E+03  0.42381370335E+03  0.00000000000E+00 0.  1.
         22    1    3    3    0    0  0.11357444730E+02 -0.68075636948E+01  0.10019811322E+01  0.13279248489E+02  0.00000000000E+00 0.  1.
</event>
<event>
 7    1  0.6188600E-006  0.9670295E+02  0.7818608E-02  0.1418022E+00
          2   -1    0    0  502    0  0.00000000000E+00  0.00000000000E+00  0.57098878238E+03  0.57098878238E+03  0.00000000000E+00 0. -1.
          1   -1    0    0  501    0 -0.00000000000E+00 -0.00000000000E+00 -0.12052326695E+03  0.12052326695E+03  0.00000000000E+00 0. -1.
         25    2    1    2    0    0 -0.99005158663E+02 -0.13574223152E+02 -0.45435462092E+01  0.16009944155E+03  0.12499962558E+03 0.  0.
          2    1    1    2  501    0  0.86407989103E+02  0.42757031051E+02  0.24155396732E+02  0.99388065060E+02  0.00000000000E+00 0. -1.
          1    1    1    2  502    0  0.12597169559E+02 -0.29182807899E+02  0.43085366490E+03  0.43202454272E+03  0.00000000000E+00 0. -1.
         22    1    3    3    0    0 -0.11078172489E+02  0.88523086857E+01  0.51519613407E+02  0.53435567185E+02  0.00000000000E+00 0. -1.
         22    1    3    3    0    0 -0.87926986174E+02 -0.22426531838E+02 -0.56063159617E+02  0.10666387436E+03  0.00000000000E+00 0. -1.
</event>
<event>
 7    1  0.6188600E-006  0.6007639E+02  0.7818608E-02  0.1484034E+00
          2   -1    0    0  502    0  0.00000000000E+00  0.00000000000E+00  0.19230430412E+04  0.19230430412E+04  0.00000000000E+00 0. -1.
          1   -1    0    0  501    0 -0.00000000000E+00 -0.00000000000E+00 -0.82823599201E+02  0.82823599201E+02  0.00000000000E+00 0. -1.
         25    2    1    2    0    0  0.66550177347E+02  0.19021745763E+02  0.10903095780E+04  0.10996327874E+04  0.12500615330E+03 0.  0.
          2    1    1    2  501    0 -0.58943575057E+02  0.11519485685E+02 -0.66276653534E+02  0.89440697641E+02  0.00000000000E+00 0. -1.
          1    1    1    2  502    0 -0.76066022909E+01 -0.30541231448E+02  0.81618651754E+03  0.81679315536E+03  0.00000000000E+00 0. -1.
         22    1    3    3    0    0 -0.22689322948E+02 -0.29125231139E+02  0.43011338884E+03  0.43169504483E+03  0.00000000000E+00 0. -1.
         22    1    3    3    0    0  0.89239500296E+02  0.48146976902E+02  0.66019618913E+03  0.66793774256E+03  0.00000000000E+00 0. -1.
</event>
<event>
 7    1  0.6188600E-006  0.8860328E+02  0.7818608E-02  0.1368562E+00
          2   -1    0    0  502    0  0.00000000000E+00  0.00000000000E+00  0.15755205544E+03  0.15755205544E+03  0.00000000000E+00 0. -1.
          1   -1    0    0  501    0 -0.00000000000E+00 -0.00000000000E+00 -0.34699636373E+04  0.34699636373E+04  0.00000000000E+00 0. -1.
         25    2    1    2    0    0 -0.20728140143E+02 -0.46009451327E+02 -0.52207446801E+03  0.53919701438E+03  0.12500057906E+03 0.  0.
          2    1    1    2  501    0  0.70451549135E+02  0.59525137888E+02 -0.29341263711E+04  0.29355756206E+04  0.00000000000E+00 0. -1.
          1    1    1    2  502    0 -0.49723408992E+02 -0.13515686562E+02  0.14378925725E+03  0.15274305774E+03  0.00000000000E+00 0. -1.
         22    1    3    3    0    0  0.46035752494E+02  0.10582054868E+02 -0.18966279599E+03  0.19545650815E+03  0.00000000000E+00 0.  1.
         22    1    3    3    0    0 -0.66763892637E+02 -0.56591506194E+02 -0.33241167202E+03  0.34374050624E+03  0.00000000000E+00 0.  1.
</event>
<event>
 7    1  0.6188600E-006  0.1140021E+03  0.7818608E-02  0.1313468E+00
          2   -1    0    0  502    0  0.00000000000E+00  0.00000000000E+00  0.39328713484E+03  0.39328713484E+03  0.00000000000E+00 0. -1.
          1   -1    0    0  501    0 -0.00000000000E+00 -0.00000000000E+00 -0.45343980625E+03  0.45343980625E+03  0.00000000000E+00 0. -1.
         25    2    1    2    0    0  0.14365635767E+03  0.78413279847E+02 -0.90854692773E+02  0.22508444633E+03  0.12499056454E+03 0.  0.
          2    1    1    2  501    0 -0.34982708733E+02 -0.54198368518E+02 -0.28222244846E+03  0.28950088683E+03  0.00000000000E+00 0. -1.
          1    1    1    2  502    0 -0.10867364894E+03 -0.24214911329E+02  0.31292446983E+03  0.33214160793E+03  0.00000000000E+00 0. -1.
         22    1    3    3    0    0  0.88311400330E+02  0.10806966198E+03 -0.81455408093E+02  0.16159498376E+03  0.00000000000E+00 0.  1.
         22    1    3    3    0    0  0.55344957341E+02 -0.29656382137E+02 -0.93992846798E+01  0.63489462566E+02  0.00000000000E+00 0.  1.
</event>
<event>
 7    1  0.6188600E-006  0.8170006E+02  0.7818608E-02  0.1479062E+00
          2   -1    0    0  502    0  0.00000000000E+00  0.00000000000E+00  0.69379775176E+03  0.69379775176E+03  0.00000000000E+00 0. -1.
          1   -1    0    0  501    0 -0.00000000000E+00 -0.00000000000E+00 -0.18979002843E+04  0.18979002843E+04  0.00000000000E+00 0. -1.
         25    2    1    2    0    0  0.49815575874E+02  0.90173442724E+02 -0.62600194731E+03  0.64662627981E+03  0.12503705984E+03 0.  0.
          2    1    1    2  501    0 -0.36688538882E+02 -0.70118339598E+02 -0.12601344124E+04  0.12626168729E+04  0.00000000000E+00 0. -1.
          1    1    1    2  502    0 -0.13127036991E+02 -0.20055103126E+02  0.68203382722E+03  0.68245488329E+03  0.00000000000E+00 0. -1.
         22    1    3    3    0    0  0.55830217478E+02 -0.13922854110E+02 -0.20746793006E+03  0.21529932897E+03  0.00000000000E+00 0. -1.
         22    1    3    3    0    0 -0.60146416046E+01  0.10409629683E+03 -0.41853401725E+03  0.43132695085E+03  0.00000000000E+00 0. -1.
</event>
<event>
 7    1  0.6188600E-006  0.7406944E+02  0.7818608E-02  0.1470427E+00
          2   -1    0    0  502    0  0.00000000000E+00  0.00000000000E+00  0.10713725795E+04  0.10713725795E+04  0.00000000000E+00 0. -1.
          1   -1    0    0  501    0 -0.00000000000E+00 -0.00000000000E+00 -0.19251930055E+04  0.19251930055E+04  0.00000000000E+00 0. -1.
         25    2    1    2    0    0  0.30744188611E+02  0.72703707638E+02  0.98878255960E+02  0.17785316498E+03  0.12499521812E+03 0.  0.
          2    1    1    2  501    0 -0.51253738014E+02 -0.53474802946E+02 -0.18847661373E+04  0.18862210615E+04  0.00000000000E+00 0. -1.
          1    1    1    2  502    0  0.20509549403E+02 -0.19228904692E+02  0.93206745534E+03  0.93249135851E+03  0.00000000000E+00 0. -1.
         22    1    3    3    0    0  0.64487531088E+02  0.73191861990E+02  0.31520627991E+02  0.10251458587E+03  0.00000000000E+00 0. -1.
         22    1    3    3    0    0 -0.33743342477E+02 -0.48815435273E+00  0.67357627969E+02  0.75338579107E+02  0.00000000000E+00 0. -1.
</event>
<event>
 7    1  0.6188600E-006  0.7445923E+02  0.7818608E-02  0.1486839E+00
          2   -1    0    0  502    0  0.00000000000E+00  0.00000000000E+00  0.20933842097E+03  0.20933842097E+03  0.00000000000E+00 0. -1.
          1   -1    0    0  501    0 -0.00000000000E+00 -0.00000000000E+00 -0.32395449579E+03  0.32395449579E+03  0.00000000000E+00 0. -1.
         25    2    1    2    0    0  0.60769787307E+02  0.12312312485E+02  0.54748396783E+02  0.14988852108E+03  0.12499848685E+03 0.  0.
          2    1    1    2  501    0  0.97247295724E+01  0.22922489544E+02 -0.26120273983E+03  0.26238689408E+03  0.00000000000E+00 0. -1.
          1    1    1    2  502    0 -0.70494516879E+02 -0.35234802029E+02  0.91838268220E+02  0.12101750160E+03  0.00000000000E+00 0. -1.
         22    1    3    3    0    0  0.77641365343E+02 -0.37839624387E+02  0.38252377524E+02  0.94463025424E+02  0.00000000000E+00 0. -1.
         22    1    3    3    0    0 -0.16871578036E+02  0.50151936873E+02  0.16496019259E+02  0.55425495658E+02  0.00000000000E+00 0. -1.
</event>
<event>
 7    1  0.6188600E-006  0.5090553E+02  0.7818608E-02  0.1456262E+00
          2   -1    0    0  502    0  0.00000000000E+00  0.00000000000E+00  0.45820872540E+03  0.45820872540E+03  0.00000000000E+00 0. -1.
          1   -1    0    0  501    0 -0.00000000000E+00 -0.00000000000E+00 -0.56899251457E+03  0.56899251457E+03  0.00000000000E+00 0. -1.
         25    2    1    2    0    0 -0.44360986870E+02  0.27374734006E+02  0.78202171959E+02  0.15638618372E+03  0.12499514207E+03 0.  0.
          2    1    1    2  501    0  0.47900251694E+02  0.17805081308E+02 -0.52715340287E+03  0.52962455116E+03  0.00000000000E+00 0. -1.
          1    1    1    2  502    0 -0.35392648247E+01 -0.45179815313E+02  0.33816744174E+03  0.34119050508E+03  0.00000000000E+00 0. -1.
         22    1    3    3    0    0  0.28018957900E+02  0.31770569367E+02 -0.86579508746E+01  0.43236456759E+02  0.00000000000E+00 0. -1.
         22    1    3    3    0    0 -0.72379944769E+02 -0.43958353615E+01  0.86860122834E+02  0.11314972696E+03  0.00000000000E+00 0. -1.
</event>
<event>
 7    1  0.6188600E-006  0.5975615E+02  0.7818608E-02  0.1525336E+00
          2   -1    0    0  502    0  0.00000000000E+00  0.00000000000E+00  0.22195733586E+03  0.22195733586E+03  0.00000000000E+00 0. -1.
          1   -1    0    0  501    0 -0.00000000000E+00 -0.00000000000E+00 -0.59805977675E+03  0.59805977675E+03  0.00000000000E+00 0. -1.
         25    2    1    2    0    0 -0.42190839781E+02  0.40497030820E+02 -0.48406548517E+03  0.50335245258E+03  0.12499688446E+03 0.  0.
          2    1    1    2  501    0 -0.13799521390E+02 -0.19472725877E+02 -0.98688080192E+02  0.10153300456E+03  0.00000000000E+00 0. -1.
          1    1    1    2  502    0  0.55990361171E+02 -0.21024304943E+02  0.20665112447E+03  0.21513165547E+03  0.00000000000E+00 0. -1.
         22    1    3    3    0    0 -0.72438021780E+02  0.11068947938E+02 -0.15338918839E+03  0.16999421085E+03  0.00000000000E+00 0. -1.
         22    1    3    3    0    0  0.30247181999E+02  0.29428082882E+02 -0.33067629678E+03  0.33335824173E+03  0.00000000000E+00 0. -1.
</event>
<event>
 7    1  0.6188600E-006  0.4592609E+02  0.7818608E-02  0.1562546E+00
          2   -1    0    0  502    0  0.00000000000E+00  0.00000000000E+00  0.47307856053E+03  0.47307856053E+03  0.00000000000E+00 0. -1.
          1   -1    0    0  501    0 -0.00000000000E+00 -0.00000000000E+00 -0.30491489252E+04  0.30491489252E+04  0.00000000000E+00 0. -1.
         25    2    1    2    0    0 -0.34115142999E+02 -0.24829380109E+01 -0.91890770341E+03  0.92800057254E+03  0.12499474903E+03 0.  0.
          2    1    1    2  501    0  0.42080976330E+02 -0.20584464636E+02 -0.21251186985E+04  0.21256349667E+04  0.00000000000E+00 0. -1.
          1    1    1    2  502    0 -0.79658333310E+01  0.23067402647E+02  0.46795603724E+03  0.46859194654E+03  0.00000000000E+00 0. -1.
         22    1    3    3    0    0  0.31251697490E+02 -0.39569038575E+02 -0.48696562423E+03  0.48956909276E+03  0.00000000000E+00 0. -1.
         22    1    3    3    0    0 -0.65366840489E+02  0.37086100564E+02 -0.43194207919E+03  0.43843147978E+03  0.00000000000E+00 0. -1.
</event>
<event>
 7    1  0.6188600E-006  0.4584683E+02  0.7818608E-02  0.1486710E+00
          2   -1    0    0  502    0  0.00000000000E+00  0.00000000000E+00  0.31997024200E+03  0.31997024200E+03  0.00000000000E+00 0. -1.
          1   -1    0    0  501    0 -0.00000000000E+00 -0.00000000000E+00 -0.19658132821E+04  0.19658132821E+04  0.00000000000E+00 0. -1.
         25    2    1    2    0    0 -0.82297941479E+01  0.53479450449E+02 -0.17730497730E+03  0.22358366177E+03  0.12499927082E+03 0.  0.
          2    1    1    2  501    0  0.37918934528E+02 -0.25967797452E+02 -0.17636883669E+04  0.17642870593E+04  0.00000000000E+00 0. -1.
          1    1    1    2  502    0 -0.29689140380E+02 -0.27511652998E+02  0.29515030417E+03  0.29791280295E+03  0.00000000000E+00 0. -1.
         22    1    3    3    0    0 -0.51929680298E+02  0.13186688678E+02 -0.23148993977E+02  0.58364855661E+02  0.00000000000E+00 0.  1.
         22    1    3    3    0    0  0.43699886150E+02  0.40292761771E+02 -0.15415598332E+03  0.16521880611E+03  0.00000000000E+00 0.  1.
</event>
<event>
 7    1  0.6188600E-006  0.1238215E+03  0.7818608E-02  0.1365873E+00
          2   -1    0    0  502    0  0.00000000000E+00  0.00000000000E+00  0.44189327762E+03  0.44189327762E+03  0.00000000000E+00 0. -1.
          1   -1    0    0  501    0 -0.00000000000E+00 -0.00000000000E+00 -0.12816263406E+04  0.12816263406E+04  0.00000000000E+00 0. -1.
         25    2    1    2    0    0  0.12798904249E+03  0.53747348693E+02  0.51976966515E+01  0.18687257075E+03  0.12499747661E+03 0.  0.
          2    1    1    2  501    0 -0.65955540179E+01 -0.37123795053E+02 -0.11796264314E+04  0.11802288741E+04  0.00000000000E+00 0. -1.
          1    1    1    2  502    0 -0.12139348847E+03 -0.16623553639E+02  0.33469567181E+03  0.35641817337E+03  0.00000000000E+00 0. -1.
         22    1    3    3    0    0  0.13040433182E+02  0.67532327329E+02 -0.12034936071E+02  0.69824836687E+02  0.00000000000E+00 0. -1.
         22    1    3    3    0    0  0.11494860931E+03 -0.13784978637E+02  0.17232632722E+02  0.11704773406E+03  0.00000000000E+00 0. -1.
</event>
<event>
 7    1  0.6188600E-006  0.1206179E+03  0.7818608E-02  0.1262337E+00
          2   -1    0    0  502    0  0.00000000000E+00  0.00000000000E+00  0.55625219106E+03  0.55625219106E+03  0.00000000000E+00 0. -1.
          1   -1    0    0  501    0 -0.00000000000E+00 -0.00000000000E+00 -0.11217679641E+04  0.11217679641E+04  0.00000000000E+00 0. -1.
         25    2    1    2    0    0 -0.42555071434E+02  0.13604349447E+03 -0.65575241858E+02  0.20060726065E+03  0.12499757674E+03 0.  0.
          2    1    1    2  501    0  0.10546881771E+03 -0.60131928961E+02 -0.97991986929E+03  0.98741200652E+03  0.00000000000E+00 0. -1.
          1    1    1    2  502    0 -0.62913746278E+02 -0.75911565506E+02  0.47997933809E+03  0.49000088800E+03  0.00000000000E+00 0. -1.
         22    1    3    3    0    0 -0.20480510745E+02 -0.12511239605E+02 -0.42292284626E+02  0.48627356249E+02  0.00000000000E+00 0.  1.
         22    1    3    3    0    0 -0.22074560690E+02  0.14855473407E+03 -0.23282957232E+02  0.15197990440E+03  0.00000000000E+00 0.  1.
</event>
<event>
 7    1  0.6188600E-006  0.1531530E+03  0.7818608E-02  0.1278354E+00
          2   -1    0    0  502    0  0.00000000000E+00  0.00000000000E+00  0.95201110719E+03  0.95201110719E+03  0.00000000000E+00 0. -1.
          1   -1    0    0  501    0 -0.00000000000E+00 -0.00000000000E+00 -0.39246979069E+03  0.39246979069E+03  0.00000000000E+00 0. -1.
         25    2    1    2    0    0 -0.88106198211E+02 -0.10438895273E+02  0.49378436677E+03  0.51703028286E+03  0.12500255929E+03 0.  0.
          2    1    1    2  501    0  0.15365027922E+03  0.21753722217E+02 -0.36236355505E+03  0.39419408769E+03  0.00000000000E+00 0. -1.
          1    1    1    2  502    0 -0.65544081014E+02 -0.11314826944E+02  0.42812050478E+03  0.43325652733E+03  0.00000000000E+00 0. -1.
         22    1    3    3    0    0 -0.17052665336E+02  0.49306822291E+02  0.26575995304E+03  0.27083262129E+03  0.00000000000E+00 0. -1.
         22    1    3    3    0    0 -0.71053532875E+02 -0.59745717564E+02  0.22802441374E+03  0.24619766157E+03  0.00000000000E+00 0. -1.
</event>
<event>
 7    1  0.6188600E-006  0.1175363E+03  0.7818608E-02  0.1285976E+00
          2   -1    0    0  502    0  0.00000000000E+00  0.00000000000E+00  0.10938747415E+03  0.10938747415E+03  0.00000000000E+00 0. -1.
          1   -1    0    0  501    0 -0.00000000000E+00 -0.00000000000E+00 -0.37435801806E+03  0.37435801806E+03  0.00000000000E+00 0. -1.
         25    2    1    2    0    0 -0.47510600443E+01 -0.99258685374E+02 -0.15862586918E+03  0.22508500609E+03  0.12500493750E+03 0.  0.
          2    1    1    2  501    0  0.80353480361E+02 -0.66159505741E+01 -0.99938348538E+02  0.12840609844E+03  0.00000000000E+00 0. -1.
          1    1    1    2  502    0 -0.75602420317E+02  0.10587463595E+03 -0.64063261999E+01  0.13025438768E+03  0.00000000000E+00 0. -1.
         22    1    3    3    0    0 -0.52271240722E+02 -0.91627856072E+02 -0.78029547439E+02  0.13121187785E+03  0.00000000000E+00 0.  1.
         22    1    3    3    0    0  0.47520180678E+02 -0.76308293024E+01 -0.80596321741E+02  0.93873128241E+02  0.00000000000E+00 0.  1.
</event>
<event>
 7    1  0.6188600E-006  0.1214994E+03  0.7818608E-02  0.1318645E+00
          2   -1    0    0  502    0  0.00000000000E+00  0.00000000000E+00  0.86838096783E+03  0.86838096783E+03  0.00000000000E+00 0. -1.
          1   -1    0    0  501    0 -0.00000000000E+00 -0.00000000000E+00 -0.22612375825E+03  0.22612375825E+03  0.00000000000E+00 0. -1.
         25    2    1    2    0    0  0.76768028062E+02 -0.19421276391E+01  0.41789187038E+02  0.15254118542E+03  0.12500150041E+03 0.  0.
          2    1    1    2  501    0 -0.13269492306E+03  0.16439409177E+02 -0.14327821516E+03  0.19597664075E+03  0.00000000000E+00 0. -1.
          1    1    1    2  502    0  0.55926894993E+02 -0.14497281538E+02  0.74374623769E+03  0.74598689991E+03  0.00000000000E+00 0. -1.
         22    1    3    3    0    0  0.11145444239E+03 -0.46229254802E+01  0.36383838803E+02  0.11733391621E+03  0.00000000000E+00 0.  1.
         22    1    3    3    0    0 -0.34686414324E+02  0.26807978411E+01  0.54053482358E+01  0.35207269211E+02  0.00000000000E+00 0.  1.
</event>
<event>
 7    1  0.6188600E-006  0.3630449E+03  0.7818608E-02  0.1132872E+00
          2   -1    0    0  502    0  0.00000000000E+00  0.00000000000E+00  0.75603641683E+03  0.75603641683E+03  0.00000000000E+00 0. -1.
          1   -1    0    0  501    0 -0.00000000000E+00 -0.00000000000E+00 -0.22901276511E+04  0.22901276511E+04  0.00000000000E+00 0. -1.
         25    2    1    2    0    0 -0.48145337362E+03  0.66099395978E+02 -0.17427849930E+03  0.53119163822E+03  0.12500032028E+03 0.  0.
          2    1    1    2  501    0  0.34654933036E+03 -0.61793906223E+02 -0.19132246310E+04  0.19453388943E+04  0.00000000000E+00 0. -1.
          1    1    1    2  502    0  0.13490404326E+03 -0.43054897553E+01  0.55341189594E+03  0.56963353544E+03  0.00000000000E+00 0. -1.
         22    1    3    3    0    0 -0.20428982961E+03  0.76023694778E+02 -0.11917867086E+03  0.24843005502E+03  0.00000000000E+00 0. -1.
         22    1    3    3    0    0 -0.27716354401E+03 -0.99242987998E+01 -0.55099828438E+02  0.28276158320E+03  0.00000000000E+00 0. -1.
</event>
<event>
 7    1  0.6188600E-006  0.6302840E+02  0.7818608E-02  0.1424995E+00
          2   -1    0    0  502    0  0.00000000000E+00  0.00000000000E+00  0.18374456511E+03  0.18374456511E+03  0.00000000000E+00 0. -1.
          1   -1    0    0  501    0 -0.00000000000E+00 -0.00000000000E+00 -0.13566016243E+04  0.13566016243E+04  0.00000000000E+00 0. -1.
         25    2    1    2    0    0 -0.10829575315E+03 -0.35529423180E+01 -0.32478025787E+03  0.36448315806E+03  0.12500065224E+03 0.  0.
          2    1    1    2  501    0  0.46047883257E+02  0.40670478692E+01 -0.10055087137E+04  0.10065707733E+04  0.00000000000E+00 0. -1.
          1    1    1    2  502    0  0.62247869890E+02 -0.51410555119E+00  0.15743191234E+03  0.16929225804E+03  0.00000000000E+00 0. -1.
         22    1    3    3    0    0  0.16683981810E+02  0.28446290807E+02 -0.39987464665E+02  0.51831882467E+02  0.00000000000E+00 0.  1.
         22    1    3    3    0    0 -0.12497973496E+03 -0.31999233125E+02 -0.28479279321E+03  0.31265127560E+03  0.00000000000E+00 0.  1.
</event>
<event>
 7    1  0.6188600E-006  0.1397136E+03  0.7818608E-02  0.1407041E+00
          2   -1    0    0  502    0  0.00000000000E+00  0.00000000000E+00  0.20312061617E+04  0.20312061617E+04  0.00000000000E+00 0. -1.
          1   -1    0    0  501    0 -0.00000000000E+00 -0.00000000000E+00 -0.60891893319E+02  0.60891893319E+02  0.00000000000E+00 0. -1.
         25    2    1    2    0    0  0.84946008100E+02 -0.11010725986E+03  0.14790615623E+04  0.14908331372E+04  0.12498361864E+03 0.  0.
          2    1    1    2  501    0 -0.65231526308E+02  0.12372639009E+03  0.34733435834E+02  0.14411725502E+03  0.00000000000E+00 0. -1.
          1    1    1    2  502    0 -0.19714481793E+02 -0.13619130223E+02  0.45651927026E+03  0.45714766281E+03  0.00000000000E+00 0. -1.
         22    1    3    3    0    0  0.94432615971E+02 -0.20390111472E+02  0.73489075068E+03  0.74121366085E+03  0.00000000000E+00 0.  1.
         22    1    3    3    0    0 -0.94866078710E+01 -0.89717148392E+02  0.74417081162E+03  0.74961947635E+03  0.00000000000E+00 0.  1.
</event>
<event>
 7    1  0.6188600E-006  0.5610042E+02  0.7818608E-02  0.1423749E+00
          2   -1    0    0  502    0  0.00000000000E+00  0.00000000000E+00  0.16041827308E+03  0.16041827308E+03  0.00000000000E+00 0. -1.
          1   -1    0    0  501    0 -0.00000000000E+00 -0.00000000000E+00 -0.38121227859E+03  0.38121227859E+03  0.00000000000E+00 0. -1.
         25    2    1    2    0    0 -0.63854656993E+02 -0.71555894968E+02  0.71635163332E+02  0.17307312782E+03  0.12500019050E+03 0.  0.
          2    1    1    2  501    0  0.51530191809E+02  0.20592358794E+02 -0.30870800349E+03  0.31365592187E+03  0.00000000000E+00 0. -1.
          1    1    1    2  502    0  0.12324465184E+02  0.50963536173E+02  0.16278834641E+02  0.54901501971E+02  0.00000000000E+00 0. -1.
         22    1    3    3    0    0 -0.90680699337E+02 -0.86926396890E+02  0.49351333093E+02  0.13496200127E+03  0.00000000000E+00 0.  1.
         22    1    3    3    0    0  0.26826042344E+02  0.15370501922E+02  0.22283830238E+02  0.38111126555E+02  0.00000000000E+00 0.  1.
</event>
<event>
 7    1  0.6188600E-006  0.1726203E+03  0.7818608E-02  0.1268863E+00
          2   -1    0    0  502    0  0.00000000000E+00  0.00000000000E+00  0.10153443734E+03  0.10153443734E+03  0.00000000000E+00 0. -1.
          1   -1    0    0  501    0 -0.00000000000E+00 -0.00000000000E+00 -0.11696474234E+04  0.11696474234E+04  0.00000000000E+00 0. -1.
         25    2    1    2    0    0 -0.20832178889E+03  0.38320116691E+02 -0.22718865488E+03  0.33484129059E+03  0.12505041348E+03 0.  0.
          2    1    1    2  501    0  0.62689986260E+02  0.15797833727E+02 -0.75700856262E+03  0.75976415407E+03  0.00000000000E+00 0. -1.
          1    1    1    2  502    0  0.14563180263E+03 -0.54117950418E+02 -0.83915768521E+02  0.17657641604E+03  0.00000000000E+00 0. -1.
         22    1    3    3    0    0 -0.80468117327E+02  0.35075835520E+02 -0.17677356316E+03  0.19736849996E+03  0.00000000000E+00 0. -1.
         22    1    3    3    0    0 -0.12785367156E+03  0.32442811710E+01 -0.50415091721E+02  0.13747279063E+03  0.00000000000E+00 0. -1.
</event>
<event>
 7    1  0.6188600E-006  0.8256131E+02  0.7818608E-02  0.1424955E+00
          2   -1    0    0  502    0  0.00000000000E+00  0.00000000000E+00  0.12786981753E+03  0.12786981753E+03  0.00000000000E+00 0. -1.
          1   -1    0    0  501    0 -0.00000000000E+00 -0.00000000000E+00 -0.60174495879E+03  0.60174495879E+03  0.00000000000E+00 0. -1.
         25    2    1    2    0    0  0.10534443379E+03 -0.42916995419E+02 -0.17191779741E+03  0.24108704613E+03  0.12501166553E+03 0.  0.
          2    1    1    2  501    0 -0.71060931173E+02  0.34501894162E+02 -0.38777181766E+03  0.39573604740E+03  0.00000000000E+00 0. -1.
          1    1    1    2  502    0 -0.34283502621E+02  0.84151012575E+01  0.85814473809E+02  0.92791682797E+02  0.00000000000E+00 0. -1.
         22    1    3    3    0    0  0.87364627796E+02 -0.82139927797E+02 -0.15188329632E+03  0.19351506822E+03  0.00000000000E+00 0. -1.
         22    1    3    3    0    0  0.17979805998E+02  0.39222932378E+02 -0.20034501086E+02  0.47571977905E+02  0.00000000000E+00 0. -1.
</event>
<event>
 7    1  0.6188600E-006  0.1203455E+03  0.7818608E-02  0.1298082E+00
          2   -1    0    0  502    0  0.00000000000E+00  0.00000000000E+00  0.86513941445E+03  0.86513941445E+03  0.00000000000E+00 0. -1.
          1   -1    0    0  501    0 -0.00000000000E+00 -0.00000000000E+00 -0.19906261446E+04  0.19906261446E+04  0.00000000000E+00 0. -1.
         25    2    1    2    0    0 -0.17203226546E+03 -0.47376810085E+02  0.27319711523E+03  0.34941538252E+03  0.12495912644E+03 0.  0.
          2    1    1    2  501    0  0.60664110575E+02  0.35581175401E+02 -0.19462139086E+04  0.19474842060E+04  0.00000000000E+00 0. -1.
          1    1    1    2  502    0  0.11136815488E+03  0.11795634684E+02  0.54753006324E+03  0.55886597058E+03  0.00000000000E+00 0. -1.
         22    1    3    3    0    0 -0.15736319621E+03 -0.79771725071E+02  0.19187714536E+03  0.26065982152E+03  0.00000000000E+00 0. -1.
         22    1    3    3    0    0 -0.14669069250E+02  0.32394914985E+02  0.81319969866E+02  0.88755561001E+02  0.00000000000E+00 0. -1.
</event>
<event>
 7    1  0.6188600E-006  0.3428913E+02  0.7818608E-02  0.1622108E+00
          2   -1    0    0  502    0  0.00000000000E+00  0.00000000000E+00  0.53977895306E+03  0.53977895306E+03  0.00000000000E+00 0. -1.
          1   -1    0    0  501    0 -0.00000000000E+00 -0.00000000000E+00 -0.25924381058E+03  0.25924381058E+03  0.00000000000E+00 0. -1.
         25    2    1    2    0    0  0.14367278153E+02  0.44627788177E+02  0.49726101391E+02  0.14247503744E+03  0.12501357117E+03 0.  0.
          2    1    1    2  501    0 -0.24225097037E+02 -0.24115816244E+02 -0.21120247853E+03  0.21395072998E+03  0.00000000000E+00 0. -1.
          1    1    1    2  502    0  0.98578188840E+01 -0.20511971934E+02  0.44201151962E+03  0.44259699622E+03  0.00000000000E+00 0. -1.
         22    1    3    3    0    0 -0.48591149977E+02  0.84635728102E+01  0.49486479612E+02  0.69868759723E+02  0.00000000000E+00 0. -1.
         22    1    3    3    0    0  0.62958428130E+02  0.36164215367E+02  0.23962177901E+00  0.72606277720E+02  0.00000000000E+00 0. -1.
</event>
<event>
 7    1  0.6188600E-006  0.1458781E+03  0.7818608E-02  0.1261415E+00
          2   -1    0    0  502    0  0.00000000000E+00  0.00000000000E+00  0.28506731801E+02  0.28506731801E+02  0.00000000000E+00 0. -1.
          1   -1    0    0  501    0 -0.00000000000E+00 -0.00000000000E+00 -0.39402579854E+04  0.39402579854E+04  0.00000000000E+00 0. -1.
         25    2    1    2    0    0  0.13650845072E+03 -0.16746335173E+03 -0.18446801341E+04  0.18614907076E+04  0.12499730380E+03 0.  0.
          2    1    1    2  501    0 -0.64416413160E+02  0.51160985634E+02 -0.18422507944E+04  0.18440864703E+04  0.00000000000E+00 0. -1.
          1    1    1    2  502    0 -0.72092037559E+02  0.11630236609E+03 -0.22482032505E+03  0.26318753921E+03  0.00000000000E+00 0. -1.
         22    1    3    3    0    0  0.84342912490E+02 -0.16507546723E+03 -0.16319620570E+04  0.16424566333E+04  0.00000000000E+00 0. -1.
         22    1    3    3    0    0  0.52165538229E+02 -0.23878845003E+01 -0.21271807713E+03  0.21903407431E+03  0.00000000000E+00 0. -1.
</event>
<event>
 7    1  0.6188600E-006  0.5531361E+02  0.7818608E-02  0.1525051E+00
          2   -1    0    0  502    0  0.00000000000E+00  0.00000000000E+00  0.48449145406E+03  0.48449145406E+03  0.00000000000E+00 0. -1.
          1   -1    0    0  501    0 -0.00000000000E+00 -0.00000000000E+00 -0.12320121040E+04  0.12320121040E+04  0.00000000000E+00 0. -1.
         25    2    1    2    0    0  0.54366180447E+01  0.31435204399E+02  0.75543232030E+02  0.14949606378E+03  0.12499825714E+03 0.  0.
          2    1    1    2  501    0  0.45281570460E+01 -0.55268108671E+02 -0.11939428774E+04  0.11952299622E+04  0.00000000000E+00 0. -1.
          1    1    1    2  502    0 -0.99647750907E+01  0.23832904272E+02  0.37087899546E+03  0.37177753206E+03  0.00000000000E+00 0. -1.
         22    1    3    3    0    0  0.28680520677E+01 -0.10392988977E+02  0.10026335657E+03  0.10084136360E+03  0.00000000000E+00 0.  1.
         22    1    3    3    0    0  0.25685659771E+01  0.41828193376E+02 -0.24720124539E+02  0.48654700179E+02  0.00000000000E+00 0.  1.
</event>
<event>
 7    1  0.6188600E-006  0.2038897E+03  0.7818608E-02  0.1182056E+00
          2   -1    0    0  502    0  0.00000000000E+00  0.00000000000E+00  0.35210578477E+03  0.35210578477E+03  0.00000000000E+00 0. -1.
          1   -1    0    0  501    0 -0.00000000000E+00 -0.00000000000E+00 -0.64669185514E+03  0.64669185514E+03  0.00000000000E+00 0. -1.
         25    2    1    2    0    0 -0.25429009424E+03 -0.12400869109E+03 -0.10147533295E+03  0.32551910891E+03  0.12499535820E+03 0.  0.
          2    1    1    2  501    0  0.19211879924E+03  0.39572849161E+01 -0.38980908481E+03  0.43459914372E+03  0.00000000000E+00 0. -1.
          1    1    1    2  502    0  0.62171295006E+02  0.12005140617E+03  0.19669834739E+03  0.23867938728E+03  0.00000000000E+00 0. -1.
         22    1    3    3    0    0 -0.51757424030E+02  0.14632763826E+02  0.12012474825E+02  0.55111235432E+02  0.00000000000E+00 0.  1.
         22    1    3    3    0    0 -0.20253267021E+03 -0.13864145491E+03 -0.11348780778E+03  0.27040787348E+03  0.00000000000E+00 0.  1.
</event>
<event>
 7    1  0.6188600E-006  0.1048815E+03  0.7818608E-02  0.1300872E+00
          2   -1    0    0  502    0  0.00000000000E+00  0.00000000000E+00  0.23255021679E+03  0.23255021679E+03  0.00000000000E+00 0. -1.
          1   -1    0    0  501    0 -0.00000000000E+00 -0.00000000000E+00 -0.11653100044E+04  0.11653100044E+04  0.00000000000E+00 0. -1.
         25    2    1    2    0    0 -0.12744120768E+02  0.65146681391E+02 -0.20900795896E+02  0.14306697576E+03  0.12499925429E+03 0.  0.
          2    1    1    2  501    0  0.90990075196E+02 -0.57200518450E+02 -0.10714754783E+04  0.10768522618E+04  0.00000000000E+00 0. -1.
          1    1    1    2  502    0 -0.78245954429E+02 -0.79461629406E+01  0.15961648657E+03  0.17794098368E+03  0.00000000000E+00 0. -1.
         22    1    3    3    0    0  0.16527242995E+02  0.53811681869E+02 -0.66865918750E+02  0.87406509808E+02  0.00000000000E+00 0.  1.
         22    1    3    3    0    0 -0.29271363762E+02  0.11334999522E+02  0.45965122853E+02  0.55660465948E+02  0.00000000000E+00 0.  1.
</event>
<event>
 7    1  0.6188600E-006  0.1815016E+03  0.7818608E-02  0.1288369E+00
          2   -1    0    0  502    0  0.00000000000E+00  0.00000000000E+00  0.17854422226E+03  0.17854422226E+03  0.00000000000E+00 0. -1.
          1   -1    0    0  501    0 -0.00000000000E+00 -0.00000000000E+00 -0.85387241218E+03  0.85387241218E+03  0.00000000000E+00 0. -1.
         25    2    1    2    0    0 -0.18170103690E+03 -0.12325840766E+03 -0.30414597665E+03  0.39539463071E+03  0.12499694800E+03 0.  0.
          2    1    1    2  501    0  0.13507472072E+03  0.10247383080E+03 -0.48419124023E+03  0.51301776118E+03  0.00000000000E+00 0. -1.
          1    1    1    2  502    0  0.46626316180E+02  0.20784576855E+02  0.11300902696E+03  0.12400424255E+03  0.00000000000E+00 0. -1.
         22    1    3    3    0    0 -0.13716457296E+03 -0.55331221414E+02 -0.10812784868E+03  0.18321379806E+03  0.00000000000E+00 0.  1.
         22    1    3    3    0    0 -0.44536463941E+02 -0.67927186242E+02 -0.19601812796E+03  0.21218083264E+03  0.00000000000E+00 0.  1.
</event>
<event>
 7    1  0.6188600E-006  0.2425853E+03  0.7818608E-02  0.1129530E+00
          2   -1    0    0  502    0  0.00000000000E+00  0.00000000000E+00  0.52662973970E+03  0.52662973970E+03  0.00000000000E+00 0. -1.
          1   -1    0    0  501    0 -0.00000000000E+00 -0.00000000000E+00 -0.76655864419E+03  0.76655864419E+03  0.00000000000E+00 0. -1.
         25    2    1    2    0    0  0.13463296041E+03  0.18897360701E+03 -0.75804601813E+02  0.27424135973E+03  0.12499971022E+03 0.  0.
          2    1    1    2  501    0  0.12654339120E+03 -0.16813925940E+03 -0.52924480005E+03  0.56954727529E+03  0.00000000000E+00 0. -1.
          1    1    1    2  502    0 -0.26117635161E+03 -0.20834347607E+02  0.36512049737E+03  0.44939974887E+03  0.00000000000E+00 0. -1.
         22    1    3    3    0    0  0.78490175633E+02  0.11636868839E+03 -0.10786500915E+03  0.17702327391E+03  0.00000000000E+00 0. -1.
         22    1    3    3    0    0  0.56142784774E+02  0.72604918624E+02  0.32060407340E+02  0.97218085814E+02  0.00000000000E+00 0. -1.
</event>
<event>
 7    1  0.6188600E-006  0.4542369E+02  0.7818608E-02  0.1568890E+00
          2   -1    0    0  502    0  0.00000000000E+00  0.00000000000E+00  0.11627069448E+04  0.11627069448E+04  0.00000000000E+00 0. -1.
          1   -1    0    0  501    0 -0.00000000000E+00 -0.00000000000E+00 -0.24139542602E+03  0.24139542602E+03  0.00000000000E+00 0. -1.
         25    2    1    2    0    0 -0.20664430932E+02 -0.20595486843E+02  0.98930347738E+02  0.16206004497E+03  0.12500020675E+03 0.  0.
          2    1    1    2  501    0  0.43513879775E+02  0.14270413089E+02 -0.20719391383E+03  0.21219429858E+03  0.00000000000E+00 0. -1.
          1    1    1    2  502    0 -0.22849448843E+02  0.63250737540E+01  0.10295750848E+04  0.10298480272E+04  0.00000000000E+00 0. -1.
         22    1    3    3    0    0  0.26095209686E+02  0.25241828961E+02  0.88627212152E+02  0.95775219299E+02  0.00000000000E+00 0.  1.
         22    1    3    3    0    0 -0.46759640618E+02 -0.45837315804E+02  0.10303135585E+02  0.66284825668E+02  0.00000000000E+00 0.  1.
</event>
<event>
 7    1  0.6188600E-006  0.3020587E+03  0.7818608E-02  0.1198123E+00
          2   -1    0    0  502    0  0.00000000000E+00  0.00000000000E+00  0.19982415813E+04  0.19982415813E+04  0.00000000000E+00 0. -1.
          1   -1    0    0  501    0 -0.00000000000E+00 -0.00000000000E+00 -0.23166948151E+03  0.23166948151E+03  0.00000000000E+00 0. -1.
         25    2    1    2    0    0 -0.26454213041E+03 -0.31609793789E+02  0.18447085226E+03  0.34732799060E+03  0.12500207956E+03 0.  0.
          2    1    1    2  501    0  0.31528279872E+03  0.88748933122E+02  0.30336129456E+02  0.32893752758E+03  0.00000000000E+00 0. -1.
          1    1    1    2  502    0 -0.50740668305E+02 -0.57139139332E+02  0.15517651181E+04  0.15536455446E+04  0.00000000000E+00 0. -1.
         22    1    3    3    0    0 -0.27033265574E+03 -0.86153167975E+01  0.16697130862E+03  0.31785749377E+03  0.00000000000E+00 0.  1.
         22    1    3    3    0    0  0.57905253301E+01 -0.22994476992E+02  0.17499543633E+02  0.29470496825E+02  0.00000000000E+00 0.  1.
</event>
<event>
 7    1  0.6188600E-006  0.1388919E+03  0.7818608E-02  0.1283468E+00
          2   -1    0    0  502    0  0.00000000000E+00  0.00000000000E+00  0.27741647030E+03  0.27741647030E+03  0.00000000000E+00 0. -1.
          1   -1    0    0  501    0 -0.00000000000E+00 -0.00000000000E+00 -0.11595942213E+04  0.11595942213E+04  0.00000000000E+00 0. -1.
         25    2    1    2    0    0  0.94197997506E+02  0.44734553344E+02 -0.29442023577E+03  0.33642561740E+03  0.12499791123E+03 0.  0.
          2    1    1    2  501    0 -0.15245832414E+03 -0.61763506068E+01 -0.83234507885E+03  0.84621511343E+03  0.00000000000E+00 0. -1.
          1    1    1    2  502    0  0.58260326631E+02 -0.38558202738E+02  0.24458756363E+03  0.25436996076E+03  0.00000000000E+00 0. -1.
         22    1    3    3    0    0  0.11878517911E+03  0.56131163420E+02 -0.20950911028E+03  0.24729475039E+03  0.00000000000E+00 0.  1.
         22    1    3    3    0    0 -0.24587181601E+02 -0.11396610076E+02 -0.84911125491E+02  0.89130867002E+02  0.00000000000E+00 0.  1.
</event>
<event>
 7    1  0.6188600E-006  0.4790639E+02  0.7818608E-02  0.1524281E+00
          2   -1    0    0  502    0  0.00000000000E+00  0.00000000000E+00  0.19909379408E+04  0.19909379408E+04  0.00000000000E+00 0. -1.
          1   -1    0    0  501    0 -0.00000000000E+00 -0.00000000000E+00 -0.18658800553E+02  0.18658800553E+02  0.00000000000E+00 0. -1.
         25    2    1    2    0    0  0.46968141850E+02  0.21206552914E+02  0.17401311882E+04  0.17453759364E+04  0.12499953073E+03 0.  0.
          2    1    1    2  501    0 -0.24646597142E+02 -0.41219346014E+02  0.23567483251E+02  0.53496873771E+02  0.00000000000E+00 0. -1.
          1    1    1    2  502    0 -0.22321544708E+02  0.20012793100E+02  0.20858046880E+03  0.21072393128E+03  0.00000000000E+00 0. -1.
         22    1    3    3    0    0  0.54590737145E+02  0.46700733546E+02  0.51831766530E+03  0.52327269111E+03  0.00000000000E+00 0.  1.
         22    1    3    3    0    0 -0.76225952950E+01 -0.25494180632E+02  0.12218135229E+04  0.12221032452E+04  0.00000000000E+00 0.  1.
</event>
<event>
 7    1  0.6899080E-006  0.1066282E+03  0.7818608E-02  0.1399452E+00
          2   -1    0    0  502    0  0.00000000000E+00  0.00000000000E+00  0.20273907347E+04  0.20273907347E+04  0.00000000000E+00 0. -1.
          1   -1    0    0  501    0 -0.00000000000E+00 -0.00000000000E+00 -0.25141088009E+04  0.25141088009E+04  0.00000000000E+00 0. -1.
         25    2    1    2    0    0 -0.62436147093E+02  0.39452223390E+02 -0.19626193457E+03  0.24412917401E+03  0.12500222497E+03 0.  0.
          2    1    1    2  501    0 -0.30830931053E+02  0.12665248824E+02 -0.22923675987E+04  0.22926099019E+04  0.00000000000E+00 0. -1.
          1    1    1    2  502    0  0.93267078146E+02 -0.52117472214E+02  0.20019114671E+04  0.20047604597E+04  0.00000000000E+00 0. -1.
         22    1    3    3    0    0  0.21200975050E+02 -0.14110363346E+02 -0.15071959642E+01  0.25511866582E+02  0.00000000000E+00 0.  1.
         22    1    3    3    0    0 -0.83637122142E+02  0.53562586736E+02 -0.19475473861E+03  0.21861730743E+03  0.00000000000E+00 0.  1.
</event>
<event>
 7    1  0.6188600E-006  0.1016601E+03  0.7818608E-02  0.1305746E+00
          2   -1    0    0  502    0  0.00000000000E+00  0.00000000000E+00  0.17050412457E+04  0.17050412457E+04  0.00000000000E+00 0. -1.
          1   -1    0    0  501    0 -0.00000000000E+00 -0.00000000000E+00 -0.91271361572E+03  0.91271361572E+03  0.00000000000E+00 0. -1.
         25    2    1    2    0    0 -0.19364370201E+02  0.17061758055E+03  0.85130105039E+02  0.22881810572E+03  0.12500101239E+03 0.  0.
          2    1    1    2  501    0  0.34106169580E+02 -0.94437174011E+02 -0.83689456878E+03  0.84289627470E+03  0.00000000000E+00 0. -1.
          1    1    1    2  502    0 -0.14741799379E+02 -0.76180406534E+02  0.15440920937E+04  0.15460404810E+04  0.00000000000E+00 0. -1.
         22    1    3    3    0    0  0.15952225189E+02 -0.22393698094E+01  0.45121511501E+02  0.47910740610E+02  0.00000000000E+00 0. -1.
         22    1    3    3    0    0 -0.35316595390E+02  0.17285695035E+03  0.40008593538E+02  0.18090736511E+03  0.00000000000E+00 0. -1.
</event>
<event>
 7    1  0.6188600E-006  0.1322441E+03  0.7818608E-02  0.1328911E+00
          2   -1    0    0  502    0  0.00000000000E+00  0.00000000000E+00  0.18867027853E+03  0.18867027853E+03  0.00000000000E+00 0. -1.
          1   -1    0    0  501    0 -0.00000000000E+00 -0.00000000000E+00 -0.61640511632E+03  0.61640511632E+03  0.00000000000E+00 0. -1.
         25    2    1    2    0    0  0.80572432950E+02  0.54334882365E+02 -0.15673431380E+03  0.22278921153E+03  0.12500076503E+03 0.  0.
          2    1    1    2  501    0  0.14349110836E+02  0.46282063849E+02 -0.39413021248E+03  0.39709765903E+03  0.00000000000E+00 0. -1.
          1    1    1    2  502    0 -0.94921543786E+02 -0.10061694621E+03  0.12312968849E+03  0.18518852429E+03  0.00000000000E+00 0. -1.
         22    1    3    3    0    0 -0.11975885805E+02  0.63802790131E+02 -0.56847630649E+02  0.86289460421E+02  0.00000000000E+00 0.  1.
         22    1    3    3    0    0  0.92548318755E+02 -0.94679077663E+01 -0.99886683154E+02  0.13649975111E+03  0.00000000000E+00 0.  1.
</event>
<event>
 7    1  0.6188600E-006  0.8479679E+02  0.7818608E-02  0.1318299E+00
          2   -1    0    0  502    0  0.00000000000E+00  0.00000000000E+00  0.20543892545E+04  0.20543892545E+04  0.00000000000E+00 0. -1.
          1   -1    0    0  501    0 -0.00000000000E+00 -0.00000000000E+00 -0.14849307984E+03  0.14849307984E+03  0.00000000000E+00 0. -1.
         25    2    1    2    0    0  0.28541843554E+02 -0.11020393645E+01  0.57678236275E+03  0.59086214932E+03  0.12499733673E+03 0.  0.
          2    1    1    2  501    0  0.39490846637E+02 -0.73048058763E+02 -0.12737864811E+03  0.15205546966E+03  0.00000000000E+00 0. -1.
          1    1    1    2  502    0 -0.68032690191E+02  0.74150098127E+02  0.14564924600E+04  0.14599647153E+04  0.00000000000E+00 0. -1.
         22    1    3    3    0    0  0.51147351315E+01  0.60931405824E+02  0.30901949901E+03  0.31501086886E+03  0.00000000000E+00 0.  1.
         22    1    3    3    0    0  0.23427108422E+02 -0.62033445188E+02  0.26776286374E+03  0.27585128045E+03  0.00000000000E+00 0.  1.
</event>
<event>
 7    1  0.6188600E-006  0.1791159E+03  0.7818608E-02  0.1271673E+00
          2   -1    0    0  502    0  0.00000000000E+00  0.00000000000E+00  0.26218635587E+04  0.26218635587E+04  0.00000000000E+00 0. -1.
          1   -1    0    0  501    0 -0.00000000000E+00 -0.00000000000E+00 -0.13325997167E+03  0.13325997167E+03  0.00000000000E+00 0. -1.
         25    2    1    2    0    0 -0.91998917297E+02  0.14766780205E+03  0.22356782700E+03  0.30963982578E+03  0.12499867157E+03 0.  0.
          2    1    1    2  501    0  0.14304975991E+03 -0.11494830653E+03  0.39179302110E+01  0.18355298189E+03  0.00000000000E+00 0. -1.
          1    1    1    2  502    0 -0.51050842613E+02 -0.32719495518E+02  0.22611178298E+04  0.22619307227E+04  0.00000000000E+00 0. -1.
         22    1    3    3    0    0 -0.10845534730E+03  0.70738400720E+02  0.17310799323E+03  0.21617784580E+03  0.00000000000E+00 0. -1.
         22    1    3    3    0    0  0.16456430005E+02  0.76929401331E+02  0.50459833769E+02  0.93461979979E+02  0.00000000000E+00 0. -1.
</event>
<event>
 7    1  0.6188600E-006  0.1238639E+03  0.7818608E-02  0.1334497E+00
          2   -1    0    0  502    0  0.00000000000E+00  0.00000000000E+00  0.17574801348E+04  0.17574801348E+04  0.00000000000E+00 0. -1.
          1   -1    0    0  501    0 -0.00000000000E+00 -0.00000000000E+00 -0.24793800714E+04  0.24793800714E+04  0.00000000000E+00 0. -1.
         25    2    1    2    0    0 -0.50225516467E+02  0.71967351329E+02 -0.71711395495E+02  0.16874069362E+03  0.12501598009E+03 0.  0.
          2    1    1    2  501    0  0.13916487065E+02  0.47252435162E+02 -0.23566242127E+04  0.23571389737E+04  0.00000000000E+00 0. -1.
          1    1    1    2  502    0  0.36309029401E+02 -0.11921978649E+03  0.17064356717E+04  0.17109805389E+04  0.00000000000E+00 0. -1.
         22    1    3    3    0    0 -0.34287986089E+02  0.29575502151E+02 -0.10379295032E+03  0.11324024397E+03  0.00000000000E+00 0.  1.
         22    1    3    3    0    0 -0.15937530378E+02  0.42391849178E+02  0.32081554828E+02  0.55500449651E+02  0.00000000000E+00 0.  1.
</event>
<event>
 7    1  0.6188600E-006  0.2151604E+03  0.7818608E-02  0.1316116E+00
          2   -1    0    0  502    0  0.00000000000E+00  0.00000000000E+00  0.17445684166E+03  0.17445684166E+03  0.00000000000E+00 0. -1.
          1   -1    0    0  501    0 -0.00000000000E+00 -0.00000000000E+00 -0.63124593310E+03  0.63124593310E+03  0.00000000000E+00 0. -1.
         25    2    1    2    0    0 -0.96338971902E+02  0.21737736324E+03 -0.19679426149E+03  0.33299699561E+03  0.12499960871E+03 0.  0.
          2    1    1    2  501    0  0.90603279892E+02 -0.18450021037E+03 -0.33362744257E+03  0.39186292551E+03  0.00000000000E+00 0. -1.
          1    1    1    2  502    0  0.57356920102E+01 -0.32877152869E+02  0.73632612621E+02  0.80842853642E+02  0.00000000000E+00 0. -1.
         22    1    3    3    0    0 -0.20199253958E+02  0.13591669356E+03 -0.44879482766E+02  0.14455284647E+03  0.00000000000E+00 0.  1.
         22    1    3    3    0    0 -0.76139717944E+02  0.81460669678E+02 -0.15191477872E+03  0.18844414915E+03  0.00000000000E+00 0.  1.
</event>
<event>
 7    1  0.6188600E-006  0.1169852E+03  0.7818608E-02  0.1346262E+00
          2   -1    0    0  502    0  0.00000000000E+00  0.00000000000E+00  0.12784924649E+04  0.12784924649E+04  0.00000000000E+00 0. -1.
          1   -1    0    0  501    0 -0.00000000000E+00 -0.00000000000E+00 -0.11533190531E+04  0.11533190531E+04  0.00000000000E+00 0. -1.
         25    2    1    2    0    0 -0.13565605526E+03 -0.42227057203E+02 -0.61936608418E+03  0.64763044249E+03  0.12500061646E+03 0.  0.
          2    1    1    2  501    0  0.91327356494E+02  0.58159654409E+02 -0.51373719090E+03  0.52502298308E+03  0.00000000000E+00 0. -1.
          1    1    1    2  502    0  0.44328698769E+02 -0.15932597205E+02  0.12582766869E+04  0.12591580925E+04  0.00000000000E+00 0. -1.
         22    1    3    3    0    0 -0.98802968078E+02 -0.36094552970E+02 -0.19447780740E+03  0.22110282863E+03  0.00000000000E+00 0.  1.
         22    1    3    3    0    0 -0.36853087186E+02 -0.61325042332E+01 -0.42488827678E+03  0.42652761386E+03  0.00000000000E+00 0.  1.
</event>
<event>
 7    1  0.6188600E-006  0.5117771E+02  0.7818608E-02  0.1463369E+00
          2   -1    0    0  502    0  0.00000000000E+00  0.00000000000E+00  0.73482675824E+03  0.73482675824E+03  0.00000000000E+00 0. -1.
          1   -1    0    0  501    0 -0.00000000000E+00 -0.00000000000E+00 -0.13806534727E+03  0.13806534727E+03  0.00000000000E+00 0. -1.
         25    2    1    2    0    0  0.72876942680E+02 -0.15447570949E+02  0.43514782732E+03  0.45882963306E+03  0.12498529649E+03 0.  0.
          2    1    1    2  501    0 -0.38367461393E+02 -0.18987707646E+02 -0.12044259091E+03  0.12782414811E+03  0.00000000000E+00 0. -1.
          1    1    1    2  502    0 -0.34509481287E+02  0.34435278595E+02  0.28205617457E+03  0.28623832434E+03  0.00000000000E+00 0. -1.
         22    1    3    3    0    0  0.58655955781E+02  0.42240121905E+02  0.13783418759E+03  0.15563743867E+03  0.00000000000E+00 0.  1.
         22    1    3    3    0    0  0.14220986899E+02 -0.57687692854E+02  0.29731363972E+03  0.30319219439E+03  0.00000000000E+00 0.  1.
</event>
<event>
 7    1  0.6188600E-006  0.2714261E+03  0.7818608E-02  0.1207920E+00
          2   -1    0    0  502    0  0.00000000000E+00  0.00000000000E+00  0.20723334093E+04  0.20723334093E+04  0.00000000000E+00 0. -1.
          1   -1    0    0  501    0 -0.00000000000E+00 -0.00000000000E+00 -0.38872574617E+03  0.38872574617E+03  0.00000000000E+00 0. -1.
         25    2    1    2    0    0 -0.10078088826E+03 -0.17657525821E+03  0.56445868218E+02  0.24525841414E+03  0.12501977610E+03 0.  0.
          2    1    1    2  501    0 -0.24418700025E+02 -0.72497598090E+02 -0.27903305607E+03  0.28932960619E+03  0.00000000000E+00 0. -1.
          1    1    1    2  502    0  0.12519958828E+03  0.24907285630E+03  0.19061948510E+04  0.19264711352E+04  0.00000000000E+00 0. -1.
         22    1    3    3    0    0 -0.97124351427E+02 -0.19549430967E+03  0.45115226581E+02  0.22290479677E+03  0.00000000000E+00 0.  1.
         22    1    3    3    0    0 -0.36565368314E+01  0.18919051457E+02  0.11330641637E+02  0.22353617371E+02  0.00000000000E+00 0.  1.
</event>
<event>
 7    1  0.6188600E-006  0.1150130E+03  0.7818608E-02  0.1436913E+00
          2   -1    0    0  502    0  0.00000000000E+00  0.00000000000E+00  0.19142870252E+04  0.19142870252E+04  0.00000000000E+00 0. -1.
          1   -1    0    0  501    0 -0.00000000000E+00 -0.00000000000E+00 -0.13762798316E+03  0.13762798316E+03  0.00000000000E+00 0. -1.
         25    2    1    2    0    0 -0.88922777100E+02  0.29420167506E+02 -0.28052972767E+02  0.15869736829E+03  0.12500031551E+03 0.  0.
          2    1    1    2  501    0 -0.23094896471E+02 -0.15582335238E+01 -0.39292522427E+02  0.45603778938E+02  0.00000000000E+00 0. -1.
          1    1    1    2  502    0  0.11201767357E+03 -0.27861933982E+02  0.18440045373E+04  0.18476138612E+04  0.00000000000E+00 0. -1.
         22    1    3    3    0    0 -0.87139342419E+02  0.42073675121E+02 -0.67007310947E+02  0.11770063235E+03  0.00000000000E+00 0.  1.
         22    1    3    3    0    0 -0.17834346803E+01 -0.12653507615E+02  0.38954338180E+02  0.40996735934E+02  0.00000000000E+00 0.  1.
</event>
<event>
 7    1  0.6188600E-006  0.9334952E+02  0.7818608E-02  0.1472513E+00
          2   -1    0    0  502    0  0.00000000000E+00  0.00000000000E+00  0.12273764510E+04  0.12273764510E+04  0.00000000000E+00 0. -1.
          1   -1    0    0  501    0 -0.00000000000E+00 -0.00000000000E+00 -0.19066343261E+03  0.19066343261E+03  0.00000000000E+00 0. -1.
         25    2    1    2    0    0  0.40184708088E+02 -0.10110996882E+03  0.57635117490E+02  0.17545482425E+03  0.12499820809E+03 0.  0.
          2    1    1    2  501    0 -0.19239037920E+02  0.10623529305E+02 -0.12888029518E+03  0.13074069926E+03  0.00000000000E+00 0. -1.
          1    1    1    2  502    0 -0.20945670168E+02  0.90486439517E+02  0.11079581961E+04  0.11118443601E+04  0.00000000000E+00 0. -1.
         22    1    3    3    0    0  0.67166497236E+02 -0.11126777005E+03  0.25799131672E+02  0.13250452897E+03  0.00000000000E+00 0. -1.
         22    1    3    3    0    0 -0.26981789148E+02  0.10157801230E+02  0.31835985818E+02  0.42950295278E+02  0.00000000000E+00 0. -1.
</event>
<event>
 7    1  0.6188600E-006  0.9847417E+02  0.7818608E-02  0.1373602E+00
          2   -1    0    0  502    0  0.00000000000E+00  0.00000000000E+00  0.39435511016E+03  0.39435511016E+03  0.00000000000E+00 0. -1.
          1   -1    0    0  501    0 -0.00000000000E+00 -0.00000000000E+00 -0.10148757532E+04  0.10148757532E+04  0.00000000000E+00 0. -1.
         25    2    1    2    0    0 -0.65408214052E+02  0.30336068283E+01 -0.62374228787E+02  0.15427922580E+03  0.12499639139E+03 0.  0.
          2    1    1    2  501    0 -0.31446398405E+02 -0.31445175623E+02 -0.89867711264E+03  0.89977676555E+03  0.00000000000E+00 0. -1.
          1    1    1    2  502    0  0.96854612456E+02  0.28411568795E+02  0.34053069836E+03  0.35517487203E+03  0.00000000000E+00 0. -1.
         22    1    3    3    0    0 -0.95775561086E+02  0.34279096316E+01 -0.13563855799E+02  0.96791977198E+02  0.00000000000E+00 0.  1.
         22    1    3    3    0    0  0.30367347034E+02 -0.39430280332E+00 -0.48810372989E+02  0.57487248603E+02  0.00000000000E+00 0.  1.
</event>
<event>
 7    1  0.6188600E-006  0.3159941E+02  0.7818608E-02  0.1653688E+00
          2   -1    0    0  502    0  0.00000000000E+00  0.00000000000E+00  0.42870202143E+03  0.42870202143E+03  0.00000000000E+00 0. -1.
          1   -1    0    0  501    0 -0.00000000000E+00 -0.00000000000E+00 -0.62545685598E+03  0.62545685598E+03  0.00000000000E+00 0. -1.
         25    2    1    2    0    0  0.25881253162E+02  0.30646937464E+02 -0.18920697745E+03  0.23028866838E+03  0.12499806570E+03 0.  0.
          2    1    1    2  501    0 -0.52803782678E+01 -0.31062552142E+02 -0.41485119703E+03  0.41604600733E+03  0.00000000000E+00 0. -1.
          1    1    1    2  502    0 -0.20600874895E+02  0.41561467849E+00  0.40730333992E+03  0.40782420170E+03  0.00000000000E+00 0. -1.
         22    1    3    3    0    0  0.27573846481E+02  0.55560732095E+02 -0.29577483413E+02  0.68717825095E+02  0.00000000000E+00 0. -1.
         22    1    3    3    0    0 -0.16925933188E+01 -0.24913794631E+02 -0.15962949404E+03  0.16157084329E+03  0.00000000000E+00 0. -1.
</event>
<event>
 7    1  0.6188600E-006  0.8711168E+02  0.7818608E-02  0.1395907E+00
          2   -1    0    0  502    0  0.00000000000E+00  0.00000000000E+00  0.32769059756E+03  0.32769059756E+03  0.00000000000E+00 0. -1.
          1   -1    0    0  501    0 -0.00000000000E+00 -0.00000000000E+00 -0.17646174283E+04  0.17646174283E+04  0.00000000000E+00 0. -1.
         25    2    1    2    0    0  0.12774461039E+02  0.11487331460E+03  0.10351220173E+02  0.17056153967E+03  0.12500010317E+03 0.  0.
          2    1    1    2  501    0  0.20256484102E+02 -0.36751198850E+02 -0.16766601092E+04  0.16771851709E+04  0.00000000000E+00 0. -1.
          1    1    1    2  502    0 -0.33030945140E+02 -0.78122115753E+02  0.22938205824E+03  0.24456131532E+03  0.00000000000E+00 0. -1.
         22    1    3    3    0    0 -0.26525835556E+00  0.54684329717E+02  0.67275795463E+02  0.86697629343E+02  0.00000000000E+00 0.  1.
         22    1    3    3    0    0  0.13039719394E+02  0.60188984886E+02 -0.56924575289E+02  0.83863910327E+02  0.00000000000E+00 0.  1.
</event>
<event>
 7    1  0.6188600E-006  0.1258037E+03  0.7818608E-02  0.1252224E+00
          2   -1    0    0  502    0  0.00000000000E+00  0.00000000000E+00  0.12605015076E+04  0.12605015076E+04  0.00000000000E+00 0. -1.
          1   -1    0    0  501    0 -0.00000000000E+00 -0.00000000000E+00 -0.19731308964E+04  0.19731308964E+04  0.00000000000E+00 0. -1.
         25    2    1    2    0    0 -0.56041113094E+02 -0.13419801611E+03 -0.71667380702E+02  0.20472120887E+03  0.12499938407E+03 0.  0.
          2    1    1    2  501    0 -0.47053621803E+02  0.11740721507E+03 -0.18304655067E+04  0.18348303651E+04  0.00000000000E+00 0. -1.
          1    1    1    2  502    0  0.10309473490E+03  0.16790801040E+02  0.11895034987E+04  0.11940808301E+04  0.00000000000E+00 0. -1.
         22    1    3    3    0    0  0.73923769673E+01  0.21237910670E+02 -0.81904157679E+00  0.22502597982E+02  0.00000000000E+00 0. -1.
         22    1    3    3    0    0 -0.63433490062E+02 -0.15543592678E+03 -0.70848339126E+02  0.18221861089E+03  0.00000000000E+00 0. -1.
</event>
<event>
 7    1  0.6188600E-006  0.3960049E+02  0.7818608E-02  0.1615983E+00
          2   -1    0    0  502    0  0.00000000000E+00  0.00000000000E+00  0.37941710709E+04  0.37941710709E+04  0.00000000000E+00 0. -1.
          1   -1    0    0  501    0 -0.00000000000E+00 -0.00000000000E+00 -0.85897922326E+01  0.85897922326E+01  0.00000000000E+00 0. -1.
         25    2    1    2    0    0 -0.42251306140E+02 -0.23789245419E+02  0.25322553503E+04  0.25358022757E+04  0.12499968602E+03 0.  0.
          2    1    1    2  501    0  0.19114220044E+02 -0.72050575903E+01  0.94942487117E+01  0.22525696912E+02  0.00000000000E+00 0. -1.
          1    1    1    2  502    0  0.23137086097E+02  0.30994303010E+02  0.12438316797E+04  0.12444328905E+04  0.00000000000E+00 0. -1.
         22    1    3    3    0    0 -0.17100691968E+02  0.51483347758E+02  0.92643792056E+03  0.92802488621E+03  0.00000000000E+00 0.  1.
         22    1    3    3    0    0 -0.25150614173E+02 -0.75272593177E+02  0.16058174297E+04  0.16077773895E+04  0.00000000000E+00 0.  1.
</event>
<event>
 7    1  0.6188600E-006  0.5196757E+02  0.7818608E-02  0.1545317E+00
          2   -1    0    0  502    0  0.00000000000E+00  0.00000000000E+00  0.70448884545E+03  0.70448884545E+03  0.00000000000E+00 0. -1.
          1   -1    0    0  501    0 -0.00000000000E+00 -0.00000000000E+00 -0.35006822278E+02  0.35006822278E+02  0.00000000000E+00 0. -1.
         25    2    1    2    0    0  0.14055225469E+02 -0.30163225734E+02  0.19261199249E+03  0.23201737461E+03  0.12500125168E+03 0.  0.
          2    1    1    2  501    0 -0.30086135304E+02  0.48127331166E+02  0.38811566897E+02  0.68758659583E+02  0.00000000000E+00 0. -1.
          1    1    1    2  502    0  0.16030909835E+02 -0.17964105432E+02  0.43805846379E+03  0.43871963354E+03  0.00000000000E+00 0. -1.
         22    1    3    3    0    0  0.44351819146E+02  0.18360944156E+02  0.23409384847E+02  0.53406061742E+02  0.00000000000E+00 0.  1.
         22    1    3    3    0    0 -0.30296593677E+02 -0.48524169890E+02  0.16920260764E+03  0.17861131287E+03  0.00000000000E+00 0.  1.
</event>
<event>
 7    1  0.6188600E-006  0.7922505E+02  0.7818608E-02  0.1342663E+00
          2   -1    0    0  502    0  0.00000000000E+00  0.00000000000E+00  0.74018928175E+03  0.74018928175E+03  0.00000000000E+00 0. -1.
          1   -1    0    0  501    0 -0.00000000000E+00 -0.00000000000E+00 -0.16164239718E+03  0.16164239718E+03  0.00000000000E+00 0. -1.
         25    2    1    2    0    0  0.99614492663E+01 -0.65782001644E+01  0.26372768694E+02  0.12830868968E+03  0.12500037492E+03 0.  0.
          2    1    1    2  501    0 -0.81255500709E+02 -0.27972726681E+02 -0.91188516381E+02  0.12530073964E+03  0.00000000000E+00 0. -1.
          1    1    1    2  502    0  0.71294051443E+02  0.34550926846E+02  0.64336263225E+03  0.64822224961E+03  0.00000000000E+00 0. -1.
         22    1    3    3    0    0 -0.23071831460E+02  0.52795930251E+02  0.11409490388E+02  0.58735816406E+02  0.00000000000E+00 0. -1.
         22    1    3    3    0    0  0.33033280727E+02 -0.59374130415E+02  0.14963278307E+02  0.69572873275E+02  0.00000000000E+00 0. -1.
</event>
<event>
 7    1  0.6188600E-006  0.3242475E+03  0.7818608E-02  0.1218124E+00
          2   -1    0    0  502    0  0.00000000000E+00  0.00000000000E+00  0.14088471632E+03  0.14088471632E+03  0.00000000000E+00 0. -1.
          1   -1    0    0  501    0 -0.00000000000E+00 -0.00000000000E+00 -0.18017559481E+04  0.18017559481E+04  0.00000000000E+00 0. -1.
         25    2    1    2    0    0 -0.16510062619E+03 -0.24766333921E+03 -0.70336976504E+03  0.77391867109E+03  0.12500294690E+03 0.  0.
          2    1    1    2  501    0  0.16396205570E+03  0.30511144609E+03 -0.10239070737E+04  0.10809080654E+04  0.00000000000E+00 0. -1.
          1    1    1    2  502    0  0.11385704887E+01 -0.57448106883E+02  0.66405606886E+02  0.87813928013E+02  0.00000000000E+00 0. -1.
         22    1    3    3    0    0 -0.18219875211E+03 -0.20038140120E+03 -0.56150003276E+03  0.62340306224E+03  0.00000000000E+00 0. -1.
         22    1    3    3    0    0  0.17098125917E+02 -0.47281938010E+02 -0.14186973228E+03  0.15051560885E+03  0.00000000000E+00 0. -1.
</event>
<event>
 7    1  0.6188600E-006  0.8276196E+02  0.7818608E-02  0.1494605E+00
          2   -1    0    0  502    0  0.00000000000E+00  0.00000000000E+00  0.86323314074E+03  0.86323314074E+03  0.00000000000E+00 0. -1.
          1   -1    0    0  501    0 -0.00000000000E+00 -0.00000000000E+00 -0.86837735193E+02  0.86837735193E+02  0.00000000000E+00 0. -1.
         25    2    1    2    0    0  0.94754759341E+02  0.34854515753E+02  0.13184385257E+02  0.16122849107E+03  0.12500998613E+03 0.  0.
          2    1    1    2  501    0 -0.21145800103E+02  0.18133802562E+01  0.98208752414E-02  0.21223414108E+02  0.00000000000E+00 0. -1.
          1    1    1    2  502    0 -0.73608959238E+02 -0.36667896009E+02  0.76320119942E+03  0.76761897076E+03  0.00000000000E+00 0. -1.
         22    1    3    3    0    0  0.69606871213E+02 -0.39829077338E+02  0.18302855567E+02  0.82258534169E+02  0.00000000000E+00 0. -1.
         22    1    3    3    0    0  0.25147888128E+02  0.74683593091E+02 -0.51184703099E+01  0.78969956899E+02  0.00000000000E+00 0. -1.
</event>
<event>
 7    1  0.6188600E-006  0.1595836E+03  0.7818608E-02  0.1213915E+00
          2   -1    0    0  502    0  0.00000000000E+00  0.00000000000E+00  0.36270664922E+04  0.36270664922E+04  0.00000000000E+00 0. -1.
          1   -1    0    0  501    0 -0.00000000000E+00 -0.00000000000E+00 -0.23728455327E+03  0.23728455327E+03  0.00000000000E+00 0. -1.
         25    2    1    2    0    0  0.64550472495E+02 -0.69455642310E+02  0.89126466826E+02  0.18044163627E+03  0.12499922905E+03 0.  0.
          2    1    1    2  501    0 -0.25001071030E+02  0.18492864850E+03 -0.14485709478E+03  0.23623555299E+03  0.00000000000E+00 0. -1.
          1    1    1    2  502    0 -0.39549401465E+02 -0.11547300618E+03  0.34455125669E+04  0.34476738562E+04  0.00000000000E+00 0. -1.
         22    1    3    3    0    0 -0.20292894754E+02 -0.61738512074E+02  0.64959077609E+02  0.91886490925E+02  0.00000000000E+00 0. -1.
         22    1    3    3    0    0  0.84843367249E+02 -0.77171302363E+01  0.24167389217E+02  0.88555145343E+02  0.00000000000E+00 0. -1.
</event>
<event>
 7    1  0.6188600E-006  0.6991269E+02  0.7818608E-02  0.1412892E+00
          2   -1    0    0  502    0  0.00000000000E+00  0.00000000000E+00  0.25097213817E+04  0.25097213817E+04  0.00000000000E+00 0. -1.
          1   -1    0    0  501    0 -0.00000000000E+00 -0.00000000000E+00 -0.45511273023E+02  0.45511273023E+02  0.00000000000E+00 0. -1.
         25    2    1    2    0    0 -0.98857933575E+01  0.29640717282E+02  0.33960259823E+03  0.36322369306E+03  0.12500090176E+03 0.  0.
          2    1    1    2  501    0  0.16248862863E+01 -0.74635541771E+02  0.81945367269E+01  0.75101629696E+02  0.00000000000E+00 0. -1.
          1    1    1    2  502    0  0.82609070712E+01  0.44994824489E+02  0.21164129737E+04  0.21169073320E+04  0.00000000000E+00 0. -1.
         22    1    3    3    0    0  0.26091668332E+02  0.34981608988E+02  0.31787433574E+03  0.32085601358E+03  0.00000000000E+00 0. -1.
         22    1    3    3    0    0 -0.35977461690E+02 -0.53408917061E+01  0.21728262486E+02  0.42367679480E+02  0.00000000000E+00 0. -1.
</event>
<event>
 7    1  0.6188600E-006  0.5489876E+02  0.7818608E-02  0.1513993E+00
          2   -1    0    0  502    0  0.00000000000E+00  0.00000000000E+00  0.11910163525E+03  0.11910163525E+03  0.00000000000E+00 0. -1.
          1   -1    0    0  501    0 -0.00000000000E+00 -0.00000000000E+00 -0.20333621294E+04  0.20333621294E+04  0.00000000000E+00 0. -1.
         25    2    1    2    0    0 -0.69290401293E+02  0.32500050474E+02 -0.34135419683E+02  0.15048744566E+03  0.12499532565E+03 0.  0.
          2    1    1    2  501    0  0.41458558119E+02 -0.35795738008E+02 -0.19374199537E+04  0.19381940625E+04  0.00000000000E+00 0. -1.
          1    1    1    2  502    0  0.27831843174E+02  0.32956875338E+01  0.57294879258E+02  0.63782256467E+02  0.00000000000E+00 0. -1.
         22    1    3    3    0    0 -0.98216938938E+02 -0.59824515558E+01 -0.21643033577E+02  0.10075106810E+03  0.00000000000E+00 0. -1.
         22    1    3    3    0    0  0.28926537645E+02  0.38482502030E+02 -0.12492386106E+02  0.49736377564E+02  0.00000000000E+00 0. -1.
</event>
<event>
 7    1  0.6188600E-006  0.2577976E+02  0.7818608E-02  0.1669982E+00
          2   -1    0    0  502    0  0.00000000000E+00  0.00000000000E+00  0.81856555406E+03  0.81856555406E+03  0.00000000000E+00 0. -1.
          1   -1    0    0  501    0 -0.00000000000E+00 -0.00000000000E+00 -0.16282174784E+04  0.16282174784E+04  0.00000000000E+00 0. -1.
         25    2    1    2    0    0  0.30658980999E+02 -0.12520177823E+02 -0.27829416756E+02  0.13227334094E+03  0.12500012927E+03 0.  0.
          2    1    1    2  501    0 -0.67079147511E+01  0.22070548625E+02 -0.15478632435E+04  0.15480351178E+04  0.00000000000E+00 0. -1.
          1    1    1    2  502    0 -0.23951066248E+02 -0.95503708013E+01  0.76604073591E+03  0.76647457377E+03  0.00000000000E+00 0. -1.
         22    1    3    3    0    0  0.55909059204E+02  0.39792997837E+02 -0.18736752028E+01  0.68649954382E+02  0.00000000000E+00 0.  1.
         22    1    3    3    0    0 -0.25250078205E+02 -0.52313175660E+02 -0.25955741553E+02  0.63623386554E+02  0.00000000000E+00 0.  1.
</event>
<event>
 7    1  0.6188600E-006  0.1653514E+03  0.7818608E-02  0.1339601E+00
          2   -1    0    0  502    0  0.00000000000E+00  0.00000000000E+00  0.13450982950E+04  0.13450982950E+04  0.00000000000E+00 0. -1.
          1   -1    0    0  501    0 -0.00000000000E+00 -0.00000000000E+00 -0.15604349430E+03  0.15604349430E+03  0.00000000000E+00 0. -1.
         25    2    1    2    0    0  0.37842482532E+02 -0.14958938928E+03  0.34800575706E+03  0.40067747500E+03  0.12500157263E+03 0.  0.
          2    1    1    2  501    0  0.35171912412E+02 -0.29669797260E+01 -0.11977541192E+03  0.12486799307E+03  0.00000000000E+00 0. -1.
          1    1    1    2  502    0 -0.73014394943E+02  0.15255636901E+03  0.96082445561E+03  0.97559632128E+03  0.00000000000E+00 0. -1.
         22    1    3    3    0    0  0.26769863046E+02 -0.17080969006E+03  0.28582030679E+03  0.33404464306E+03  0.00000000000E+00 0. -1.
         22    1    3    3    0    0  0.11072619486E+02  0.21220300777E+02  0.62185450266E+02  0.66632831938E+02  0.00000000000E+00 0. -1.
</event>
<event>
 7    1  0.6188600E-006  0.3281389E+02  0.7818608E-02  0.1634273E+00
          2   -1    0    0  502    0  0.00000000000E+00  0.00000000000E+00  0.75395475193E+03  0.75395475193E+03  0.00000000000E+00 0. -1.
          1   -1    0    0  501    0 -0.00000000000E+00 -0.00000000000E+00 -0.49258187948E+02  0.49258187948E+02  0.00000000000E+00 0. -1.
         25    2    1    2    0    0 -0.41101693412E+02 -0.13492957251E+02  0.15898178846E+03  0.20681030385E+03  0.12499553439E+03 0.  0.
          2    1    1    2  501    0  0.90800297083E+01  0.20214151251E+02 -0.19935145080E+02  0.29807194764E+02  0.00000000000E+00 0. -1.
          1    1    1    2  502    0  0.32021663704E+02 -0.67211940002E+01  0.56564992060E+03  0.56659544127E+03  0.00000000000E+00 0. -1.
         22    1    3    3    0    0  0.41597334960E+02  0.15364527257E+02  0.60531782367E+02  0.75036682030E+02  0.00000000000E+00 0. -1.
         22    1    3    3    0    0 -0.82699028372E+02 -0.28857484508E+02  0.98450006097E+02  0.13177362182E+03  0.00000000000E+00 0. -1.
</event>
<event>
 7    1  0.6188600E-006  0.1071045E+03  0.7818608E-02  0.1337912E+00
          2   -1    0    0  502    0  0.00000000000E+00  0.00000000000E+00  0.20546665870E+04  0.20546665870E+04  0.00000000000E+00 0. -1.
          1   -1    0    0  501    0 -0.00000000000E+00 -0.00000000000E+00 -0.28195686345E+03  0.28195686345E+03  0.00000000000E+00 0. -1.
         25    2    1    2    0    0 -0.84223610170E+02 -0.26395032808E+02 -0.17735728945E+03  0.23424546948E+03  0.12500007034E+03 0.  0.
          2    1    1    2  501    0 -0.20118921417E+02  0.51507439309E+02 -0.64497316048E+02  0.84956995478E+02  0.00000000000E+00 0. -1.
          1    1    1    2  502    0  0.10434253159E+03 -0.25112406501E+02  0.20145643290E+04  0.20174209855E+04  0.00000000000E+00 0. -1.
         22    1    3    3    0    0  0.17711133600E+02 -0.31350286794E+02 -0.85853906380E+01  0.37016667434E+02  0.00000000000E+00 0. -1.
         22    1    3    3    0    0 -0.10193474377E+03  0.49552539862E+01 -0.16877189881E+03  0.19722880205E+03  0.00000000000E+00 0. -1.
</event>
<event>
 7    1  0.6188600E-006  0.9448529E+02  0.7818608E-02  0.1406019E+00
          2   -1    0    0  502    0  0.00000000000E+00  0.00000000000E+00  0.21771572724E+04  0.21771572724E+04  0.00000000000E+00 0. -1.
          1   -1    0    0  501    0 -0.00000000000E+00 -0.00000000000E+00 -0.17725878362E+02  0.17725878362E+02  0.00000000000E+00 0. -1.
         25    2    1    2    0    0 -0.53942402759E+02  0.84741446229E+02  0.94263861699E+03  0.95618193160E+03  0.12500171422E+03 0.  0.
          2    1    1    2  501    0 -0.21628103242E+02 -0.28422898251E+02  0.25982357241E+02  0.44166943325E+02  0.00000000000E+00 0. -1.
          1    1    1    2  502    0  0.75570506002E+02 -0.56318547978E+02  0.11908104198E+04  0.11945342758E+04  0.00000000000E+00 0. -1.
         22    1    3    3    0    0 -0.73236214401E+02  0.10480835273E+03  0.66726404602E+03  0.67940388651E+03  0.00000000000E+00 0. -1.
         22    1    3    3    0    0  0.19293811642E+02 -0.20066906506E+02  0.27537457097E+03  0.27677804509E+03  0.00000000000E+00 0. -1.
</event>
<event>
 7    1  0.6188600E-006  0.1720672E+03  0.7818608E-02  0.1199818E+00
          2   -1    0    0  502    0  0.00000000000E+00  0.00000000000E+00  0.61409770799E+03  0.61409770799E+03  0.00000000000E+00 0. -1.
          1   -1    0    0  501    0 -0.00000000000E+00 -0.00000000000E+00 -0.11592489647E+04  0.11592489647E+04  0.00000000000E+00 0. -1.
         25    2    1    2    0    0 -0.35299815916E+02  0.42627560469E+02 -0.37751029038E+03  0.40151822982E+03  0.12505872071E+03 0.  0.
          2    1    1    2  501    0 -0.13063009727E+03  0.16722821833E+02 -0.75098615798E+03  0.76244611912E+03  0.00000000000E+00 0. -1.
          1    1    1    2  502    0  0.16592991319E+03 -0.59350382302E+02  0.58334519161E+03  0.60938232378E+03  0.00000000000E+00 0. -1.
         22    1    3    3    0    0 -0.63081710840E+02  0.71688246015E+02 -0.28732570545E+03  0.30277808354E+03  0.00000000000E+00 0.  1.
         22    1    3    3    0    0  0.27781894924E+02 -0.29060685546E+02 -0.90184584926E+02  0.98740146285E+02  0.00000000000E+00 0.  1.
</event>
<event>
 7    1  0.6188600E-006  0.3126292E+03  0.7818608E-02  0.1234866E+00
          2   -1    0    0  502    0  0.00000000000E+00  0.00000000000E+00  0.13547492629E+03  0.13547492629E+03  0.00000000000E+00 0. -1.
          1   -1    0    0  501    0 -0.00000000000E+00 -0.00000000000E+00 -0.19101219945E+04  0.19101219945E+04  0.00000000000E+00 0. -1.
         25    2    1    2    0    0  0.15344413833E+03 -0.27229070127E+03 -0.43260654076E+03  0.54814335085E+03  0.12500153753E+03 0.  0.
          2    1    1    2  501    0  0.42458874261E+02  0.26562917452E+02 -0.10990934686E+04  0.11002339739E+04  0.00000000000E+00 0. -1.
          1    1    1    2  502    0 -0.19590301259E+03  0.24572778382E+03 -0.24294705885E+03  0.39721959605E+03  0.00000000000E+00 0. -1.
         22    1    3    3    0    0  0.36276312084E+02 -0.18491835179E+03 -0.27304164595E+03  0.33175670011E+03  0.00000000000E+00 0.  1.
         22    1    3    3    0    0  0.11716782625E+03 -0.87372349485E+02 -0.15956489481E+03  0.21638665074E+03  0.00000000000E+00 0.  1.
</event>
<event>
 7    1  0.6188600E-006  0.8485551E+02  0.7818608E-02  0.1341677E+00
          2   -1    0    0  502    0  0.00000000000E+00  0.00000000000E+00  0.82484324487E+03  0.82484324487E+03  0.00000000000E+00 0. -1.
          1   -1    0    0  501    0 -0.00000000000E+00 -0.00000000000E+00 -0.79290229392E+03  0.79290229392E+03  0.00000000000E+00 0. -1.
         25    2    1    2    0    0 -0.35484471681E+02 -0.24621494037E+02  0.82440047160E+02  0.15583636079E+03  0.12499297688E+03 0.  0.
          2    1    1    2  501    0  0.82713583233E+02 -0.23681087915E+02 -0.75212931105E+03  0.75703423392E+03  0.00000000000E+00 0. -1.
          1    1    1    2  502    0 -0.47229111552E+02  0.48302581952E+02  0.70163021485E+03  0.70487494408E+03  0.00000000000E+00 0. -1.
         22    1    3    3    0    0 -0.38249314800E+02 -0.65180763652E+02  0.14936774670E+02  0.77036674841E+02  0.00000000000E+00 0. -1.
         22    1    3    3    0    0  0.27648431190E+01  0.40559269615E+02  0.67503272490E+02  0.78799685951E+02  0.00000000000E+00 0. -1.
</event>
<event>
 7    1  0.6188600E-006  0.1717476E+03  0.7818608E-02  0.1189835E+00
          2   -1    0    0  502    0  0.00000000000E+00  0.00000000000E+00  0.28293291546E+03  0.28293291546E+03  0.00000000000E+00 0. -1.
          1   -1    0    0  501    0 -0.00000000000E+00 -0.00000000000E+00 -0.54624000063E+03  0.54624000063E+03  0.00000000000E+00 0. -1.
         25    2    1    2    0    0 -0.83635216474E+02  0.37082804545E+02 -0.18799645267E+03  0.24359390963E+03  0.12500137105E+03 0.  0.
          2    1    1    2  501    0  0.25219160142E+02  0.14501401949E+03 -0.27323562326E+03  0.31035911088E+03  0.00000000000E+00 0. -1.
          1    1    1    2  502    0  0.58416056332E+02 -0.18209682404E+03  0.19792499076E+03  0.27521989559E+03  0.00000000000E+00 0. -1.
         22    1    3    3    0    0  0.30472767835E+02  0.64148365157E+01 -0.69969550851E+02  0.76586407106E+02  0.00000000000E+00 0.  1.
         22    1    3    3    0    0 -0.11410798431E+03  0.30667968030E+02 -0.11802690181E+03  0.16700750252E+03  0.00000000000E+00 0.  1.
</event>
<event>
 7    1  0.6188600E-006  0.1855839E+03  0.7818608E-02  0.1245950E+00
          2   -1    0    0  502    0  0.00000000000E+00  0.00000000000E+00  0.31787846963E+03  0.31787846963E+03  0.00000000000E+00 0. -1.
          1   -1    0    0  501    0 -0.00000000000E+00 -0.00000000000E+00 -0.11451007489E+04  0.11451007489E+04  0.00000000000E+00 0. -1.
         25    2    1    2    0    0 -0.14008187731E+03  0.88743585764E+02 -0.62772174678E+03  0.66117847511E+03  0.12499611277E+03 0.  0.
          2    1    1    2  501    0  0.35597805805E+02  0.66460613643E+02 -0.46828189534E+03  0.47431229211E+03  0.00000000000E+00 0. -1.
          1    1    1    2  502    0  0.10448407151E+03 -0.15520419941E+03  0.26878136285E+03  0.32748845129E+03  0.00000000000E+00 0. -1.
         22    1    3    3    0    0 -0.59845470687E+02  0.88642966477E+02 -0.20832930280E+03  0.23417974778E+03  0.00000000000E+00 0. -1.
         22    1    3    3    0    0 -0.80236406627E+02  0.10061928739E+00 -0.41939244398E+03  0.42699872733E+03  0.00000000000E+00 0. -1.
</event>
<event>
 7    1  0.6188600E-006  0.6569147E+02  0.7818608E-02  0.1485040E+00
          2   -1    0    0  502    0  0.00000000000E+00  0.00000000000E+00  0.46862914056E+02  0.46862914056E+02  0.00000000000E+00 0. -1.
          1   -1    0    0  501    0 -0.00000000000E+00 -0.00000000000E+00 -0.13541801670E+04  0.13541801670E+04  0.00000000000E+00 0. -1.
         25    2    1    2    0    0 -0.34564261857E+02  0.70945641697E+02 -0.40800873143E+03  0.43396319557E+03  0.12499983164E+03 0.  0.
          2    1    1    2  501    0  0.46711695233E+02 -0.45074114644E+02 -0.92582179436E+03  0.92809463590E+03  0.00000000000E+00 0. -1.
          1    1    1    2  502    0 -0.12147433376E+02 -0.25871527053E+02  0.26513272834E+02  0.38985249596E+02  0.00000000000E+00 0. -1.
         22    1    3    3    0    0  0.30017704472E+01  0.36315306430E+02 -0.18037331317E+02  0.40659038699E+02  0.00000000000E+00 0. -1.
         22    1    3    3    0    0 -0.37566032305E+02  0.34630335267E+02 -0.38997140011E+03  0.39330415687E+03  0.00000000000E+00 0. -1.
</event>
<event>
 7    1  0.6188600E-006  0.6591729E+02  0.7818608E-02  0.1397089E+00
          2   -1    0    0  502    0  0.00000000000E+00  0.00000000000E+00  0.44057085263E+03  0.44057085263E+03  0.00000000000E+00 0. -1.
          1   -1    0    0  501    0 -0.00000000000E+00 -0.00000000000E+00 -0.10750718133E+04  0.10750718133E+04  0.00000000000E+00 0. -1.
         25    2    1    2    0    0 -0.89371062196E+01 -0.70457550866E+01  0.14708846701E+03  0.19336253640E+03  0.12499815528E+03 0.  0.
          2    1    1    2  501    0  0.55762556005E+02  0.35776543038E+02 -0.10480870244E+04  0.10501789535E+04  0.00000000000E+00 0. -1.
          1    1    1    2  502    0 -0.46825449786E+02 -0.28730787951E+02  0.26649759673E+03  0.27210117602E+03  0.00000000000E+00 0. -1.
         22    1    3    3    0    0  0.23516506436E+02 -0.49701766191E+02  0.12273979785E+03  0.13449293518E+03  0.00000000000E+00 0.  1.
         22    1    3    3    0    0 -0.32453612656E+02  0.42656011105E+02  0.24348669159E+02  0.58869601218E+02  0.00000000000E+00 0.  1.
</event>
<event>
 7    1  0.6188600E-006  0.1551876E+03  0.7818608E-02  0.1304241E+00
          2   -1    0    0  502    0  0.00000000000E+00  0.00000000000E+00  0.20682879278E+04  0.20682879278E+04  0.00000000000E+00 0. -1.
          1   -1    0    0  501    0 -0.00000000000E+00 -0.00000000000E+00 -0.82622410290E+03  0.82622410290E+03  0.00000000000E+00 0. -1.
         25    2    1    2    0    0  0.16043017335E+02  0.16195851152E+03 -0.64628037419E+03  0.67807736528E+03  0.12499061318E+03 0.  0.
          2    1    1    2  501    0 -0.50427127111E+02 -0.10624470325E+02 -0.15698447595E+03  0.16522681444E+03  0.00000000000E+00 0. -1.
          1    1    1    2  502    0  0.34384109776E+02 -0.15133404120E+03  0.20453286750E+04  0.20512078510E+04  0.00000000000E+00 0. -1.
         22    1    3    3    0    0 -0.19487255099E+02  0.16393400807E+03 -0.46757337275E+03  0.49586184671E+03  0.00000000000E+00 0. -1.
         22    1    3    3    0    0  0.35530272434E+02 -0.19754965471E+01 -0.17870700144E+03  0.18221551857E+03  0.00000000000E+00 0. -1.
</event>
<event>
 7    1  0.6188600E-006  0.5270394E+02  0.7818608E-02  0.1484858E+00
          2   -1    0    0  502    0  0.00000000000E+00  0.00000000000E+00  0.41297449578E+03  0.41297449578E+03  0.00000000000E+00 0. -1.
          1   -1    0    0  501    0 -0.00000000000E+00 -0.00000000000E+00 -0.26424410501E+03  0.26424410501E+03  0.00000000000E+00 0. -1.
         25    2    1    2    0    0 -0.21005323495E+01 -0.32285625079E+02 -0.11155356033E+03  0.17067704543E+03  0.12505871898E+03 0.  0.
          2    1    1    2  501    0 -0.35256689150E+02 -0.54143292459E+01 -0.11865669393E+03  0.12390221994E+03  0.00000000000E+00 0. -1.
          1    1    1    2  502    0  0.37357221499E+02  0.37699954325E+02  0.37894064503E+03  0.38263933542E+03  0.00000000000E+00 0. -1.
         22    1    3    3    0    0  0.21691765466E+02 -0.72659855972E+02 -0.93674207593E+02  0.12051906292E+03  0.00000000000E+00 0. -1.
         22    1    3    3    0    0 -0.23792297816E+02  0.40374230892E+02 -0.17879352732E+02  0.50157982512E+02  0.00000000000E+00 0. -1.
</event>
<event>
 7    1  0.6188600E-006  0.6097748E+02  0.7818608E-02  0.1468411E+00
          2   -1    0    0  502    0  0.00000000000E+00  0.00000000000E+00  0.13308493943E+04  0.13308493943E+04  0.00000000000E+00 0. -1.
          1   -1    0    0  501    0 -0.00000000000E+00 -0.00000000000E+00 -0.88661111982E+02  0.88661111982E+02  0.00000000000E+00 0. -1.
         25    2    1    2    0    0  0.41422527011E+02 -0.33823055366E+01  0.92389211206E+03  0.93323476730E+03  0.12499292156E+03 0.  0.
          2    1    1    2  501    0  0.34050137094E+02 -0.64048879867E+01 -0.76621974215E+02  0.84091386948E+02  0.00000000000E+00 0. -1.
          1    1    1    2  502    0 -0.75472664106E+02  0.97871935234E+01  0.39491814446E+03  0.40218435202E+03  0.00000000000E+00 0. -1.
         22    1    3    3    0    0  0.50047680898E+02 -0.53398227502E+02  0.38027006654E+03  0.38724858240E+03  0.00000000000E+00 0.  1.
         22    1    3    3    0    0 -0.86251538873E+01  0.50015921965E+02  0.54362204552E+03  0.54598618491E+03  0.00000000000E+00 0.  1.
</event>
<event>
 7    1  0.6188600E-006  0.7319891E+02  0.7818608E-02  0.1382945E+00
          2   -1    0    0  502    0  0.00000000000E+00  0.00000000000E+00  0.79947953523E+03  0.79947953523E+03  0.00000000000E+00 0. -1.
          1   -1    0    0  501    0 -0.00000000000E+00 -0.00000000000E+00 -0.45744077809E+03  0.45744077809E+03  0.00000000000E+00 0. -1.
         25    2    1    2    0    0 -0.74839747926E+02  0.51942924399E+02  0.16017841328E+02  0.15549933921E+03  0.12499767194E+03 0.  0.
          2    1    1    2  501    0  0.52499887907E+02  0.17773439690E+02 -0.38382682496E+03  0.38780815482E+03  0.00000000000E+00 0. -1.
          1    1    1    2  502    0  0.22339860019E+02 -0.69716364089E+02  0.70984774077E+03  0.71361281928E+03  0.00000000000E+00 0. -1.
         22    1    3    3    0    0 -0.13809384641E+02 -0.30815923394E+02 -0.27784692913E+02  0.43729959970E+02  0.00000000000E+00 0. -1.
         22    1    3    3    0    0 -0.61030363285E+02  0.82758847792E+02  0.43802534241E+02  0.11176937924E+03  0.00000000000E+00 0. -1.
</event>
<event>
 7    1  0.6188600E-006  0.5485737E+02  0.7818608E-02  0.1444104E+00
          2   -1    0    0  502    0  0.00000000000E+00  0.00000000000E+00  0.82508899908E+03  0.82508899908E+03  0.00000000000E+00 0. -1.
          1   -1    0    0  501    0 -0.00000000000E+00 -0.00000000000E+00 -0.43981798855E+03  0.43981798855E+03  0.00000000000E+00 0. -1.
         25    2    1    2    0    0  0.93522735616E+01  0.97380233318E+02  0.13994553371E+03  0.21161268148E+03  0.12499919878E+03 0.  0.
          2    1    1    2  501    0  0.61571023450E+01 -0.54080771745E+02 -0.40133052800E+03  0.40500473144E+03  0.00000000000E+00 0. -1.
          1    1    1    2  502    0 -0.15509375907E+02 -0.43299461574E+02  0.64665600483E+03  0.64828957472E+03  0.00000000000E+00 0. -1.
         22    1    3    3    0    0 -0.16128235443E+02  0.11145133240E+02 -0.20074011210E+02  0.28058864901E+02  0.00000000000E+00 0. -1.
         22    1    3    3    0    0  0.25480509005E+02  0.86235100078E+02  0.16001954492E+03  0.18355381658E+03  0.00000000000E+00 0. -1.
</event>
<event>
 7    1  0.6188600E-006  0.1431743E+03  0.7818608E-02  0.1243717E+00
          2   -1    0    0  502    0  0.00000000000E+00  0.00000000000E+00  0.12309787664E+04  0.12309787664E+04  0.00000000000E+00 0. -1.
          1   -1    0    0  501    0 -0.00000000000E+00 -0.00000000000E+00 -0.27891931457E+03  0.27891931457E+03  0.00000000000E+00 0. -1.
         25    2    1    2    0    0  0.33648019131E+02 -0.64005149564E+02  0.22830827327E+03  0.27014497734E+03  0.12499917110E+03 0.  0.
          2    1    1    2  501    0  0.78466752751E+02 -0.61910162126E+02 -0.24072612135E+03  0.26065104059E+03  0.00000000000E+00 0. -1.
          1    1    1    2  502    0 -0.11211477188E+03  0.12591531169E+03  0.96447729996E+03  0.97910206308E+03  0.00000000000E+00 0. -1.
         22    1    3    3    0    0  0.25012331460E+02 -0.72942368964E+02  0.24060626306E+03  0.25266099766E+03  0.00000000000E+00 0.  1.
         22    1    3    3    0    0  0.86356876704E+01  0.89372194009E+01 -0.12297989795E+02  0.17483979672E+02  0.00000000000E+00 0.  1.
</event>
<event>
 7    1  0.6188600E-006  0.7798334E+02  0.7818608E-02  0.1450534E+00
          2   -1    0    0  502    0  0.00000000000E+00  0.00000000000E+00  0.62615051414E+03  0.62615051414E+03  0.00000000000E+00 0. -1.
          1   -1    0    0  501    0 -0.00000000000E+00 -0.00000000000E+00 -0.97350621328E+03  0.97350621328E+03  0.00000000000E+00 0. -1.
         25    2    1    2    0    0 -0.54503258360E+02 -0.32350022178E+01 -0.21269959292E+03  0.25267536402E+03  0.12499060901E+03 0.  0.
          2    1    1    2  501    0  0.79299811997E+02 -0.15121160306E+02 -0.73822428260E+03  0.74262520903E+03  0.00000000000E+00 0. -1.
          1    1    1    2  502    0 -0.24796553637E+02  0.18356162524E+02  0.60356817638E+03  0.60435615436E+03  0.00000000000E+00 0. -1.
         22    1    3    3    0    0  0.21766884031E+02  0.30882175619E+02 -0.20241205554E+02  0.42862715892E+02  0.00000000000E+00 0. -1.
         22    1    3    3    0    0 -0.76270142391E+02 -0.34117177837E+02 -0.19245838737E+03  0.20981264812E+03  0.00000000000E+00 0. -1.
</event>
<event>
 7    1  0.6188600E-006  0.2387860E+03  0.7818608E-02  0.1216070E+00
          2   -1    0    0  502    0  0.00000000000E+00  0.00000000000E+00  0.14398335011E+04  0.14398335011E+04  0.00000000000E+00 0. -1.
          1   -1    0    0  501    0 -0.00000000000E+00 -0.00000000000E+00 -0.11696047668E+04  0.11696047668E+04  0.00000000000E+00 0. -1.
         25    2    1    2    0    0 -0.24278613865E+03  0.19066450323E+03 -0.12114424517E+03  0.35439892866E+03  0.12499844235E+03 0.  0.
          2    1    1    2  501    0  0.17314280934E+03 -0.15184266241E+03 -0.91637184687E+03  0.94486612188E+03  0.00000000000E+00 0. -1.
          1    1    1    2  502    0  0.69643329305E+02 -0.38821840818E+02  0.13077448263E+04  0.13101732173E+04  0.00000000000E+00 0. -1.
         22    1    3    3    0    0 -0.25287093202E+03  0.15657788116E+03 -0.10578019960E+03  0.31567355251E+03  0.00000000000E+00 0.  1.
         22    1    3    3    0    0  0.10084793375E+02  0.34086622070E+02 -0.15364045573E+02  0.38725376150E+02  0.00000000000E+00 0.  1.
</event>
<event>
 7    1  0.6188600E-006  0.7035312E+02  0.7818608E-02  0.1408554E+00
          2   -1    0    0  502    0  0.00000000000E+00  0.00000000000E+00  0.84086572622E+03  0.84086572622E+03  0.00000000000E+00 0. -1.
          1   -1    0    0  501    0 -0.00000000000E+00 -0.00000000000E+00 -0.27038341604E+02  0.27038341604E+02  0.00000000000E+00 0. -1.
         25    2    1    2    0    0  0.11267556737E+02 -0.29394734350E+02  0.50079665020E+03  0.51712146495E+03  0.12500526555E+03 0.  0.
          2    1    1    2  501    0 -0.42123757111E+02  0.64879428613E+02  0.73587381573E+02  0.10676541527E+03  0.00000000000E+00 0. -1.
          1    1    1    2  502    0  0.30856200374E+02 -0.35484694263E+02  0.23944335284E+03  0.24401718761E+03  0.00000000000E+00 0. -1.
         22    1    3    3    0    0  0.26071242188E+02  0.52778233645E+01  0.16377755384E+02  0.31237732954E+02  0.00000000000E+00 0.  1.
         22    1    3    3    0    0 -0.14803685451E+02 -0.34672557714E+02  0.48441889482E+03  0.48588373200E+03  0.00000000000E+00 0.  1.
</event>
<event>
 7    1  0.6188600E-006  0.2767062E+02  0.7818608E-02  0.1634136E+00
          2   -1    0    0  502    0  0.00000000000E+00  0.00000000000E+00  0.38443658780E+03  0.38443658780E+03  0.00000000000E+00 0. -1.
          1   -1    0    0  501    0 -0.00000000000E+00 -0.00000000000E+00 -0.35033414447E+03  0.35033414447E+03  0.00000000000E+00 0. -1.
         25    2    1    2    0    0 -0.32597388102E+02  0.42081815872E+02  0.84477866670E+02  0.15998560123E+03  0.12500165481E+03 0.  0.
          2    1    1    2  501    0  0.18128666983E+02 -0.19053114455E+02 -0.31131909972E+03  0.31242799425E+03  0.00000000000E+00 0. -1.
          1    1    1    2  502    0  0.14468721120E+02 -0.23028701417E+02  0.26094367638E+03  0.26235713679E+03  0.00000000000E+00 0. -1.
         22    1    3    3    0    0 -0.24964026999E+02 -0.34600773006E+02  0.69394533074E+02  0.81461753953E+02  0.00000000000E+00 0.  1.
         22    1    3    3    0    0 -0.76333611034E+01  0.76682588877E+02  0.15083333596E+02  0.78523847276E+02  0.00000000000E+00 0.  1.
</event>
<event>
 7    1  0.6188600E-006  0.4034056E+02  0.7818608E-02  0.1530544E+00
          2   -1    0    0  502    0  0.00000000000E+00  0.00000000000E+00  0.23924462183E+03  0.23924462183E+03  0.00000000000E+00 0. -1.
          1   -1    0    0  501    0 -0.00000000000E+00 -0.00000000000E+00 -0.21695326526E+04  0.21695326526E+04  0.00000000000E+00 0. -1.
         25    2    1    2    0    0 -0.14795654215E+02 -0.48818428771E+02 -0.12250411774E+03  0.18229392352E+03  0.12498666056E+03 0.  0.
          2    1    1    2  501    0  0.34507573774E+02  0.20924415618E+02 -0.20155371345E+04  0.20159411063E+04  0.00000000000E+00 0. -1.
          1    1    1    2  502    0 -0.19711919559E+02  0.27894013153E+02  0.20775322142E+03  0.21054224458E+03  0.00000000000E+00 0. -1.
         22    1    3    3    0    0 -0.17472747458E+02 -0.17603765649E+02 -0.14281767667E+03  0.14495543535E+03  0.00000000000E+00 0. -1.
         22    1    3    3    0    0  0.26770932430E+01 -0.31214663122E+02  0.20313558933E+02  0.37338488167E+02  0.00000000000E+00 0. -1.
</event>
<event>
 7    1  0.6188600E-006  0.4933006E+02  0.7818608E-02  0.1459574E+00
          2   -1    0    0  502    0  0.00000000000E+00  0.00000000000E+00  0.40708046172E+04  0.40708046172E+04  0.00000000000E+00 0. -1.
          1   -1    0    0  501    0 -0.00000000000E+00 -0.00000000000E+00 -0.10109473068E+04  0.10109473068E+04  0.00000000000E+00 0. -1.
         25    2    1    2    0    0  0.90362321442E+02 -0.21218956999E+02  0.69957206915E+03  0.71668773399E+03  0.12499853935E+03 0.  0.
          2    1    1    2  501    0 -0.49276811184E+02  0.13194899705E+01 -0.10016283778E+04  0.10028406416E+04  0.00000000000E+00 0. -1.
          1    1    1    2  502    0 -0.41085510259E+02  0.19899467028E+02  0.33619136191E+04  0.33622235485E+04  0.00000000000E+00 0. -1.
         22    1    3    3    0    0  0.70793425842E+02 -0.46842956996E+01  0.68186202176E+03  0.68554319228E+03  0.00000000000E+00 0. -1.
         22    1    3    3    0    0  0.19568895601E+02 -0.16534661299E+02  0.17710047392E+02  0.31144541704E+02  0.00000000000E+00 0. -1.
</event>
<event>
 7    1  0.6188600E-006  0.6848122E+02  0.7818608E-02  0.1387014E+00
          2   -1    0    0  502    0  0.00000000000E+00  0.00000000000E+00  0.60658874412E+03  0.60658874412E+03  0.00000000000E+00 0. -1.
          1   -1    0    0  501    0 -0.00000000000E+00 -0.00000000000E+00 -0.85636344450E+03  0.85636344450E+03  0.00000000000E+00 0. -1.
         25    2    1    2    0    0  0.11816308036E+02 -0.88509054361E+02  0.19048722323E+03  0.24471651101E+03  0.12500924249E+03 0.  0.
          2    1    1    2  501    0 -0.48304414328E+02  0.30869017759E+02 -0.82525587392E+03  0.82724450445E+03  0.00000000000E+00 0. -1.
          1    1    1    2  502    0  0.36488106292E+02  0.57640036602E+02  0.38499395030E+03  0.39099117316E+03  0.00000000000E+00 0. -1.
         22    1    3    3    0    0 -0.23825363410E+02  0.16803460458E+02  0.90882599148E+02  0.95444491999E+02  0.00000000000E+00 0.  1.
         22    1    3    3    0    0  0.35641671446E+02 -0.10531251482E+03  0.99604624086E+02  0.14927201901E+03  0.00000000000E+00 0.  1.
</event>
<event>
 7    1  0.6188600E-006  0.1594168E+03  0.7818608E-02  0.1227145E+00
          2   -1    0    0  502    0  0.00000000000E+00  0.00000000000E+00  0.19606466390E+04  0.19606466390E+04  0.00000000000E+00 0. -1.
          1   -1    0    0  501    0 -0.00000000000E+00 -0.00000000000E+00 -0.22175932595E+03  0.22175932595E+03  0.00000000000E+00 0. -1.
         25    2    1    2    0    0  0.31205808168E+02  0.51634899310E+02  0.70189431222E+01  0.13898203462E+03  0.12500710018E+03 0.  0.
          2    1    1    2  501    0  0.25515693719E+02  0.10324710415E+03 -0.13355214696E+03  0.17072548462E+03  0.00000000000E+00 0. -1.
          1    1    1    2  502    0 -0.56721501887E+02 -0.15488200346E+03  0.18654205169E+04  0.18726984457E+04  0.00000000000E+00 0. -1.
         22    1    3    3    0    0  0.13361443789E+02  0.82492667808E+02  0.37955692817E+02  0.91783457330E+02  0.00000000000E+00 0. -1.
         22    1    3    3    0    0  0.17844364379E+02 -0.30857768498E+02 -0.30936749695E+02  0.47198577293E+02  0.00000000000E+00 0. -1.
</event>
<event>
 7    1  0.6188600E-006  0.1180867E+03  0.7818608E-02  0.1278938E+00
          2   -1    0    0  502    0  0.00000000000E+00  0.00000000000E+00  0.96632994918E+03  0.96632994918E+03  0.00000000000E+00 0. -1.
          1   -1    0    0  501    0 -0.00000000000E+00 -0.00000000000E+00 -0.12476913058E+03  0.12476913058E+03  0.00000000000E+00 0. -1.
         25    2    1    2    0    0  0.62053273280E+02 -0.39273783714E+02  0.82902301005E+02  0.16700550306E+03  0.12500003092E+03 0.  0.
          2    1    1    2  501    0 -0.27835161257E+02 -0.81144409894E+02 -0.54317178041E+02  0.10153603936E+03  0.00000000000E+00 0. -1.
          1    1    1    2  502    0 -0.34218112023E+02  0.12041819361E+03  0.81297569563E+03  0.82255753733E+03  0.00000000000E+00 0. -1.
         22    1    3    3    0    0  0.87572228133E+02 -0.63428340029E+02  0.51031260387E+02  0.11956688085E+03  0.00000000000E+00 0.  1.
         22    1    3    3    0    0 -0.25518954853E+02  0.24154556315E+02  0.31871040617E+02  0.47438622214E+02  0.00000000000E+00 0.  1.
</event>
<event>
 7    1  0.6188600E-006  0.7214481E+02  0.7818608E-02  0.1418633E+00
          2   -1    0    0  502    0  0.00000000000E+00  0.00000000000E+00  0.62636497823E+02  0.62636497823E+02  0.00000000000E+00 0. -1.
          1   -1    0    0  501    0 -0.00000000000E+00 -0.00000000000E+00 -0.17316618356E+04  0.17316618356E+04  0.00000000000E+00 0. -1.
         25    2    1    2    0    0 -0.34533648541E+02  0.35902609667E+02 -0.36670269882E+03  0.39061124956E+03  0.12499883478E+03 0.  0.
          2    1    1    2  501    0  0.14551712270E+02 -0.73304858185E+02 -0.13429102362E+04  0.13449881996E+04  0.00000000000E+00 0. -1.
          1    1    1    2  502    0  0.19981936270E+02  0.37402248518E+02  0.40587597210E+02  0.58698884304E+02  0.00000000000E+00 0. -1.
         22    1    3    3    0    0 -0.50311617142E+01 -0.35610289105E+02 -0.35646625432E+02  0.50636816478E+02  0.00000000000E+00 0. -1.
         22    1    3    3    0    0 -0.29502486827E+02  0.71512898771E+02 -0.33105607339E+03  0.33997443308E+03  0.00000000000E+00 0. -1.
</event>
<event>
 7    1  0.6188600E-006  0.5372231E+02  0.7818608E-02  0.1530452E+00
          2   -1    0    0  502    0  0.00000000000E+00  0.00000000000E+00  0.53332551440E+03  0.53332551440E+03  0.00000000000E+00 0. -1.
          1   -1    0    0  501    0 -0.00000000000E+00 -0.00000000000E+00 -0.88072341601E+03  0.88072341601E+03  0.00000000000E+00 0. -1.
         25    2    1    2    0    0 -0.45099329845E+02  0.19747969762E+02 -0.14006271738E+03  0.19407714928E+03  0.12499777283E+03 0.  0.
          2    1    1    2  501    0  0.53933799460E+02  0.43472374229E+01 -0.71230152839E+03  0.71435370829E+03  0.00000000000E+00 0. -1.
          1    1    1    2  502    0 -0.88344696152E+01 -0.24095207185E+02  0.50496634415E+03  0.50561807285E+03  0.00000000000E+00 0. -1.
         22    1    3    3    0    0  0.24561136399E+02  0.38950771386E+02 -0.10309410748E+03  0.11291061514E+03  0.00000000000E+00 0. -1.
         22    1    3    3    0    0 -0.69660466244E+02 -0.19202801624E+02 -0.36968609896E+02  0.81166534145E+02  0.00000000000E+00 0. -1.
</event>
<event>
 7    1  0.6188600E-006  0.5223612E+02  0.7818608E-02  0.1521007E+00
          2   -1    0    0  502    0  0.00000000000E+00  0.00000000000E+00  0.15025987187E+03  0.15025987187E+03  0.00000000000E+00 0. -1.
          1   -1    0    0  501    0 -0.00000000000E+00 -0.00000000000E+00 -0.28356429034E+03  0.28356429034E+03  0.00000000000E+00 0. -1.
         25    2    1    2    0    0 -0.25081600288E+02  0.50861531578E+01 -0.84482180572E+02  0.15302586377E+03  0.12499888208E+03 0.  0.
          2    1    1    2  501    0 -0.26963851080E+02  0.79125826432E+01 -0.15729518546E+03  0.15978558633E+03  0.00000000000E+00 0. -1.
          1    1    1    2  502    0  0.52045451368E+02 -0.12998735801E+02  0.10847294756E+03  0.12101271211E+03  0.00000000000E+00 0. -1.
         22    1    3    3    0    0  0.10599978727E+02 -0.32397449955E+02  0.17756910823E+02  0.38435168721E+02  0.00000000000E+00 0.  1.
         22    1    3    3    0    0 -0.35681579014E+02  0.37483603113E+02 -0.10223909140E+03  0.11459069505E+03  0.00000000000E+00 0.  1.
</event>
<event>
 7    1  0.6188600E-006  0.1287454E+03  0.7818608E-02  0.1263327E+00
          2   -1    0    0  502    0  0.00000000000E+00  0.00000000000E+00  0.24284526169E+04  0.24284526169E+04  0.00000000000E+00 0. -1.
          1   -1    0    0  501    0 -0.00000000000E+00 -0.00000000000E+00 -0.36087153027E+03  0.36087153027E+03  0.00000000000E+00 0. -1.
         25    2    1    2    0    0  0.76122187626E+02 -0.58621568614E+02  0.88105027537E+03  0.89504489740E+03  0.12499881947E+03 0.  0.
          2    1    1    2  501    0 -0.12851711965E+03 -0.16366909805E+02 -0.34060174236E+03  0.36440921047E+03  0.00000000000E+00 0. -1.
          1    1    1    2  502    0  0.52394932021E+02  0.74988478419E+02  0.15271325536E+04  0.15298700393E+04  0.00000000000E+00 0. -1.
         22    1    3    3    0    0  0.69113448705E+02 -0.33786661534E+02  0.85472982761E+03  0.85818487839E+03  0.00000000000E+00 0.  1.
         22    1    3    3    0    0  0.70087389215E+01 -0.24834907079E+02  0.26320447761E+02  0.36860019008E+02  0.00000000000E+00 0.  1.
</event>
<event>
 7    1  0.6188600E-006  0.7496733E+02  0.7818608E-02  0.1374500E+00
          2   -1    0    0  502    0  0.00000000000E+00  0.00000000000E+00  0.17879202672E+04  0.17879202672E+04  0.00000000000E+00 0. -1.
          1   -1    0    0  501    0 -0.00000000000E+00 -0.00000000000E+00 -0.14610404790E+03  0.14610404790E+03  0.00000000000E+00 0. -1.
         25    2    1    2    0    0 -0.10875714884E+03 -0.50027835183E+02  0.18639650484E+03  0.25436127752E+03  0.12500040307E+03 0.  0.
          2    1    1    2  501    0  0.50817537214E+02  0.52335309642E+02 -0.99658599436E+02  0.12350402085E+03  0.00000000000E+00 0. -1.
          1    1    1    2  502    0  0.57939611630E+02 -0.23074744593E+01  0.15550783139E+04  0.15561590168E+04  0.00000000000E+00 0. -1.
         22    1    3    3    0    0 -0.91315923178E+02 -0.85035862428E+02  0.17240489106E+03  0.21282185551E+03  0.00000000000E+00 0.  1.
         22    1    3    3    0    0 -0.17441225666E+02  0.35008027245E+02  0.13991613784E+02  0.41539422006E+02  0.00000000000E+00 0.  1.
</event>
<event>
 7    1  0.6188600E-006  0.1396529E+03  0.7818608E-02  0.1373766E+00
          2   -1    0    0  502    0  0.00000000000E+00  0.00000000000E+00  0.23226400032E+04  0.23226400032E+04  0.00000000000E+00 0. -1.
          1   -1    0    0  501    0 -0.00000000000E+00 -0.00000000000E+00 -0.10142338850E+03  0.10142338850E+03  0.00000000000E+00 0. -1.
         25    2    1    2    0    0 -0.11940678317E+03  0.11691941118E+03  0.55777692045E+03  0.59554022392E+03  0.12499974696E+03 0.  0.
          2    1    1    2  501    0  0.22063443460E+02 -0.22223608071E+02 -0.76827690097E+02  0.82964921857E+02  0.00000000000E+00 0. -1.
          1    1    1    2  502    0  0.97343339714E+02 -0.94695803111E+02  0.17402673843E+04  0.17455582459E+04  0.00000000000E+00 0. -1.
         22    1    3    3    0    0 -0.11824289513E+03  0.79881442531E+02  0.27001560954E+03  0.30540277750E+03  0.00000000000E+00 0.  1.
         22    1    3    3    0    0 -0.11638880407E+01  0.37037968652E+02  0.28776131092E+03  0.29013744642E+03  0.00000000000E+00 0.  1.
</event>
<event>
 7    1  0.6188600E-006  0.7398239E+02  0.7818608E-02  0.1433956E+00
          2   -1    0    0  502    0  0.00000000000E+00  0.00000000000E+00  0.51182720142E+03  0.51182720142E+03  0.00000000000E+00 0. -1.
          1   -1    0    0  501    0 -0.00000000000E+00 -0.00000000000E+00 -0.38679619433E+03  0.38679619433E+03  0.00000000000E+00 0. -1.
         25    2    1    2    0    0  0.35516560279E+02 -0.65865157427E+02  0.85312343019E+02  0.16885794547E+03  0.12504065283E+03 0.  0.
          2    1    1    2  501    0  0.31345243363E+00  0.74233848715E+02 -0.34013109698E+03  0.34813779697E+03  0.00000000000E+00 0. -1.
          1    1    1    2  502    0 -0.35830012712E+02 -0.83686912874E+01  0.37984976105E+03  0.38162765331E+03  0.00000000000E+00 0. -1.
         22    1    3    3    0    0  0.36947687605E+02 -0.15949542782E+02  0.10707337640E+03  0.11438630804E+03  0.00000000000E+00 0. -1.
         22    1    3    3    0    0 -0.14311273269E+01 -0.49915614645E+02 -0.21761033378E+02  0.54471637432E+02  0.00000000000E+00 0. -1.
</event>
<event>
 7    1  0.6188600E-006  0.6156827E+02  0.7818608E-02  0.1534113E+00
          2   -1    0    0  502    0  0.00000000000E+00  0.00000000000E+00  0.53949257557E+02  0.53949257557E+02  0.00000000000E+00 0. -1.
          1   -1    0    0  501    0 -0.00000000000E+00 -0.00000000000E+00 -0.30979053922E+03  0.30979053922E+03  0.00000000000E+00 0. -1.
         25    2    1    2    0    0 -0.54550840410E+02  0.37015052002E+01 -0.22774637068E+03  0.26548614587E+03  0.12499995583E+03 0.  0.
          2    1    1    2  501    0 -0.58277370143E+01 -0.21069342898E+02 -0.27877429602E+02  0.35426414017E+02  0.00000000000E+00 0. -1.
          1    1    1    2  502    0  0.60378577424E+02  0.17367837697E+02 -0.21748138089E+00  0.62827236898E+02  0.00000000000E+00 0. -1.
         22    1    3    3    0    0  0.44143494956E+01  0.46302985484E+02 -0.15801257178E+03  0.16471619770E+03  0.00000000000E+00 0.  1.
         22    1    3    3    0    0 -0.58965189906E+02 -0.42601480284E+02 -0.69733798906E+02  0.10076994816E+03  0.00000000000E+00 0.  1.
</event>
<event>
 7    1  0.6188600E-006  0.1057654E+03  0.7818608E-02  0.1278350E+00
          2   -1    0    0  502    0  0.00000000000E+00  0.00000000000E+00  0.27937141952E+03  0.27937141952E+03  0.00000000000E+00 0. -1.
          1   -1    0    0  501    0 -0.00000000000E+00 -0.00000000000E+00 -0.10020415524E+04  0.10020415524E+04  0.00000000000E+00 0. -1.
         25    2    1    2    0    0 -0.30935055626E+02  0.12202673782E+03  0.10109798196E+02  0.17769347921E+03  0.12500104849E+03 0.  0.
          2    1    1    2  501    0  0.90991621750E+02 -0.31586806939E+02 -0.89956859384E+03  0.90471037168E+03  0.00000000000E+00 0. -1.
          1    1    1    2  502    0 -0.60056566124E+02 -0.90439930878E+02  0.16678866276E+03  0.19900912104E+03  0.00000000000E+00 0. -1.
         22    1    3    3    0    0 -0.77169696585E+02  0.69397955128E+02 -0.11409171734E+02  0.10440980532E+03  0.00000000000E+00 0. -1.
         22    1    3    3    0    0  0.46234640959E+02  0.52628782689E+02  0.21518969930E+02  0.73283673890E+02  0.00000000000E+00 0. -1.
</event>
<event>
 7    1  0.6188600E-006  0.8247823E+02  0.7818608E-02  0.1398544E+00
          2   -1    0    0  502    0  0.00000000000E+00  0.00000000000E+00  0.26279807563E+04  0.26279807563E+04  0.00000000000E+00 0. -1.
          1   -1    0    0  501    0 -0.00000000000E+00 -0.00000000000E+00 -0.22496403001E+03  0.22496403001E+03  0.00000000000E+00 0. -1.
         25    2    1    2    0    0 -0.46218220636E+02 -0.40150039934E+02  0.57531129492E+02  0.15060865404E+03  0.12499994475E+03 0.  0.
          2    1    1    2  501    0 -0.35336119287E+02  0.25200751800E+02 -0.17509411637E+03  0.18039309523E+03  0.00000000000E+00 0. -1.
          1    1    1    2  502    0  0.81554339924E+02  0.14949288134E+02  0.25205797131E+04  0.25219430370E+04  0.00000000000E+00 0. -1.
         22    1    3    3    0    0 -0.56070584964E+02 -0.54016627194E+02 -0.12222832325E+02  0.78810558567E+02  0.00000000000E+00 0.  1.
         22    1    3    3    0    0  0.98523643281E+01  0.13866587260E+02  0.69753961816E+02  0.71798095477E+02  0.00000000000E+00 0.  1.
</event>
<event>
 7    1  0.6188600E-006  0.1535481E+03  0.7818608E-02  0.1239223E+00
          2   -1    0    0  502    0  0.00000000000E+00  0.00000000000E+00  0.28313414137E+04  0.28313414137E+04  0.00000000000E+00 0. -1.
          1   -1    0    0  501    0 -0.00000000000E+00 -0.00000000000E+00 -0.22260901838E+03  0.22260901838E+03  0.00000000000E+00 0. -1.
         25    2    1    2    0    0 -0.68603189693E+02 -0.16776048258E+03 -0.55166099455E+02  0.22697598758E+03  0.12499929302E+03 0.  0.
          2    1    1    2  501    0 -0.25380490318E+02  0.14167176414E+03 -0.16438828525E+02  0.14486301504E+03  0.00000000000E+00 0. -1.
          1    1    1    2  502    0  0.93983680011E+02  0.26088718442E+02  0.26803373233E+04  0.26821114295E+04  0.00000000000E+00 0. -1.
         22    1    3    3    0    0 -0.65403641549E+01 -0.46059713820E+02  0.39286719902E+02  0.60891049926E+02  0.00000000000E+00 0.  1.
         22    1    3    3    0    0 -0.62062825538E+02 -0.12170076876E+03 -0.94452819357E+02  0.16608493766E+03  0.00000000000E+00 0.  1.
</event>
<event>
 7    1  0.6188600E-006  0.7181820E+02  0.7818608E-02  0.1478964E+00
          2   -1    0    0  502    0  0.00000000000E+00  0.00000000000E+00  0.63475210138E+03  0.63475210138E+03  0.00000000000E+00 0. -1.
          1   -1    0    0  501    0 -0.00000000000E+00 -0.00000000000E+00 -0.37038498359E+03  0.37038498359E+03  0.00000000000E+00 0. -1.
         25    2    1    2    0    0  0.43764565056E+02 -0.14570256482E+02  0.31903509011E+02  0.13700812592E+03  0.12500305257E+03 0.  0.
          2    1    1    2  501    0 -0.67562185149E+02  0.27920005716E+02 -0.31328370177E+03  0.32169994308E+03  0.00000000000E+00 0. -1.
          1    1    1    2  502    0  0.23797620093E+02 -0.13349749235E+02  0.54574731055E+03  0.54642901598E+03  0.00000000000E+00 0. -1.
         22    1    3    3    0    0 -0.58491967648E+01  0.12514132978E+02  0.68362956096E+02  0.69744608344E+02  0.00000000000E+00 0.  1.
         22    1    3    3    0    0  0.49613761821E+02 -0.27084389460E+02 -0.36459447085E+02  0.67263517572E+02  0.00000000000E+00 0.  1.
</event>
<event>
 7    1  0.6188600E-006  0.1344195E+03  0.7818608E-02  0.1369515E+00
          2   -1    0    0  502    0  0.00000000000E+00  0.00000000000E+00  0.36495386904E+04  0.36495386904E+04  0.00000000000E+00 0. -1.
          1   -1    0    0  501    0 -0.00000000000E+00 -0.00000000000E+00 -0.14726222089E+03  0.14726222089E+03  0.00000000000E+00 0. -1.
         25    2    1    2    0    0 -0.58576125964E+02  0.91829048555E+02  0.58946539584E+03  0.61233861549E+03  0.12500156174E+03 0.  0.
          2    1    1    2  501    0 -0.31011917504E+02  0.13182666471E+02 -0.13214769227E+03  0.13637644332E+03  0.00000000000E+00 0. -1.
          1    1    1    2  502    0  0.89588043468E+02 -0.10501171503E+03  0.30449587659E+04  0.30480858525E+04  0.00000000000E+00 0. -1.
         22    1    3    3    0    0 -0.20279182935E+02 -0.17401224857E+02  0.26633906863E+02  0.37728144425E+02  0.00000000000E+00 0.  1.
         22    1    3    3    0    0 -0.38296943029E+02  0.10923027341E+03  0.56283148898E+03  0.57461047107E+03  0.00000000000E+00 0.  1.
</event>
<event>
 7    1  0.6188600E-006  0.6635888E+02  0.7818608E-02  0.1380288E+00
          2   -1    0    0  502    0  0.00000000000E+00  0.00000000000E+00  0.15347037192E+03  0.15347037192E+03  0.00000000000E+00 0. -1.
          1   -1    0    0  501    0 -0.00000000000E+00 -0.00000000000E+00 -0.25968610804E+04  0.25968610804E+04  0.00000000000E+00 0. -1.
         25    2    1    2    0    0  0.17263378897E+02 -0.83511435341E+00 -0.13255913123E+04  0.13315840381E+04  0.12500000595E+03 0.  0.
          2    1    1    2  501    0  0.10112842688E+02  0.61652022018E+02 -0.12600710288E+04  0.12616188961E+04  0.00000000000E+00 0. -1.
          1    1    1    2  502    0 -0.27376221585E+02 -0.60816907664E+02  0.14227163263E+03  0.15712851815E+03  0.00000000000E+00 0. -1.
         22    1    3    3    0    0 -0.33432744360E+02  0.17806103928E+02 -0.10536275603E+04  0.10543082289E+04  0.00000000000E+00 0. -1.
         22    1    3    3    0    0  0.50696123257E+02 -0.18641218281E+02 -0.27196375201E+03  0.27727580915E+03  0.00000000000E+00 0. -1.
</event>
<event>
 7    1  0.6188600E-006  0.1587838E+03  0.7818608E-02  0.1313614E+00
          2   -1    0    0  502    0  0.00000000000E+00  0.00000000000E+00  0.66131920997E+03  0.66131920997E+03  0.00000000000E+00 0. -1.
          1   -1    0    0  501    0 -0.00000000000E+00 -0.00000000000E+00 -0.13983455677E+03  0.13983455677E+03  0.00000000000E+00 0. -1.
         25    2    1    2    0    0  0.11617311092E+03 -0.27158850735E+02  0.44574660387E+03  0.47806808968E+03  0.12500107454E+03 0.  0.
          2    1    1    2  501    0 -0.15506068669E+03  0.52202597703E+02 -0.64157699624E+02  0.17574168028E+03  0.00000000000E+00 0. -1.
          1    1    1    2  502    0  0.38887575777E+02 -0.25043746968E+02  0.13989574895E+03  0.14734399678E+03  0.00000000000E+00 0. -1.
         22    1    3    3    0    0  0.11083520406E+03 -0.60780882048E+01  0.44234234842E+03  0.45605716617E+03  0.00000000000E+00 0.  1.
         22    1    3    3    0    0  0.53379068532E+01 -0.21080762530E+02  0.34042554530E+01  0.22010923507E+02  0.00000000000E+00 0.  1.
</event>
<event>
 7    1  0.6188600E-006  0.1160977E+03  0.7818608E-02  0.1251085E+00
          2   -1    0    0  502    0  0.00000000000E+00  0.00000000000E+00  0.39880267890E+03  0.39880267890E+03  0.00000000000E+00 0. -1.
          1   -1    0    0  501    0 -0.00000000000E+00 -0.00000000000E+00 -0.33882616125E+04  0.33882616125E+04  0.00000000000E+00 0. -1.
         25    2    1    2    0    0 -0.15692284675E+03  0.16641169024E+03 -0.81841112586E+03  0.85891711490E+03  0.12499683535E+03 0.  0.
          2    1    1    2  501    0  0.71906826965E+02 -0.89075013500E+02 -0.25395550310E+04  0.25421338881E+04  0.00000000000E+00 0. -1.
          1    1    1    2  502    0  0.85016019783E+02 -0.77336676738E+02  0.36850722326E+03  0.38601328835E+03  0.00000000000E+00 0. -1.
         22    1    3    3    0    0 -0.19974772227E+02  0.50727930391E+02 -0.40028788929E+03  0.40398355011E+03  0.00000000000E+00 0.  1.
         22    1    3    3    0    0 -0.13694807452E+03  0.11568375985E+03 -0.41812323657E+03  0.45493356478E+03  0.00000000000E+00 0.  1.
</event>
<event>
 7    1  0.6188600E-006  0.1153624E+03  0.7818608E-02  0.1364307E+00
          2   -1    0    0  502    0  0.00000000000E+00  0.00000000000E+00  0.90061952307E+03  0.90061952307E+03  0.00000000000E+00 0. -1.
          1   -1    0    0  501    0 -0.00000000000E+00 -0.00000000000E+00 -0.59172189263E+03  0.59172189263E+03  0.00000000000E+00 0. -1.
         25    2    1    2    0    0  0.14533842861E+03  0.25001991500E+02 -0.24876413178E+03  0.31504978994E+03  0.12499767386E+03 0.  0.
          2    1    1    2  501    0 -0.10478949236E+03 -0.18924157960E+02 -0.30016099221E+03  0.31848953313E+03  0.00000000000E+00 0. -1.
          1    1    1    2  502    0 -0.40548936247E+02 -0.60778335392E+01  0.85782275443E+03  0.85880209264E+03  0.00000000000E+00 0. -1.
         22    1    3    3    0    0  0.12357416990E+03  0.59611777347E+02 -0.23461337631E+03  0.27178590068E+03  0.00000000000E+00 0. -1.
         22    1    3    3    0    0  0.21764258708E+02 -0.34609785847E+02 -0.14150755474E+02  0.43263889261E+02  0.00000000000E+00 0. -1.
</event>
<event>
 7    1  0.6188600E-006  0.9577698E+02  0.7818608E-02  0.1426577E+00
          2   -1    0    0  502    0  0.00000000000E+00  0.00000000000E+00  0.11442991595E+04  0.11442991595E+04  0.00000000000E+00 0. -1.
          1   -1    0    0  501    0 -0.00000000000E+00 -0.00000000000E+00 -0.31257173246E+03  0.31257173246E+03  0.00000000000E+00 0. -1.
         25    2    1    2    0    0  0.24917609076E+02 -0.12146358210E+03  0.17551663618E+03  0.24860709416E+03  0.12500043468E+03 0.  0.
          2    1    1    2  501    0 -0.67300981618E+01  0.29292785414E+02 -0.27283218824E+03  0.27448272157E+03  0.00000000000E+00 0. -1.
          1    1    1    2  502    0 -0.18187510915E+02  0.92170796690E+02  0.92904297906E+03  0.93378107620E+03  0.00000000000E+00 0. -1.
         22    1    3    3    0    0 -0.16453981735E+02 -0.13110868851E+03  0.11838521710E+03  0.17741274291E+03  0.00000000000E+00 0.  1.
         22    1    3    3    0    0  0.41371590811E+02  0.96451064091E+01  0.57131419074E+02  0.71194351246E+02  0.00000000000E+00 0.  1.
</event>
<event>
 7    1  0.6188600E-006  0.6776166E+02  0.7818608E-02  0.1451316E+00
          2   -1    0    0  502    0  0.00000000000E+00  0.00000000000E+00  0.10507038402E+04  0.10507038402E+04  0.00000000000E+00 0. -1.
          1   -1    0    0  501    0 -0.00000000000E+00 -0.00000000000E+00 -0.89511624365E+03  0.89511624365E+03  0.00000000000E+00 0. -1.
         25    2    1    2    0    0  0.56048245371E+02 -0.16399865240E+02 -0.10742297319E+03  0.17485619508E+03  0.12499852959E+03 0.  0.
          2    1    1    2  501    0 -0.46503330769E+02  0.50386635229E+02 -0.75211034807E+03  0.75522933500E+03  0.00000000000E+00 0. -1.
          1    1    1    2  502    0 -0.95449146023E+01 -0.33986769989E+02  0.10151209178E+04  0.10157345537E+04  0.00000000000E+00 0. -1.
         22    1    3    3    0    0 -0.83127910116E+01  0.44295054836E+02 -0.58227990463E+02  0.73631876594E+02  0.00000000000E+00 0.  1.
         22    1    3    3    0    0  0.64361036383E+02 -0.60694920076E+02 -0.49194982731E+02  0.10122431849E+03  0.00000000000E+00 0.  1.
</event>
<event>
 7    1  0.6188600E-006  0.8010949E+02  0.7818608E-02  0.1502945E+00
          2   -1    0    0  502    0  0.00000000000E+00  0.00000000000E+00  0.18758707959E+04  0.18758707959E+04  0.00000000000E+00 0. -1.
          1   -1    0    0  501    0 -0.00000000000E+00 -0.00000000000E+00 -0.42032347326E+03  0.42032347326E+03  0.00000000000E+00 0. -1.
         25    2    1    2    0    0 -0.70308600404E+02  0.67662792977E+01 -0.88516348782E+02  0.16866713904E+03  0.12499751183E+03 0.  0.
          2    1    1    2  501    0 -0.89946740037E+01 -0.18646946768E+02 -0.29048748313E+03  0.29122429610E+03  0.00000000000E+00 0. -1.
          1    1    1    2  502    0  0.79303274407E+02  0.11880667470E+02  0.18345511546E+04  0.18363028341E+04  0.00000000000E+00 0. -1.
         22    1    3    3    0    0 -0.10492527169E+03 -0.56131862129E+01 -0.76558052711E+02  0.13000752261E+03  0.00000000000E+00 0.  1.
         22    1    3    3    0    0  0.34616671291E+02  0.12379465511E+02 -0.11958296072E+02  0.38659616431E+02  0.00000000000E+00 0.  1.
</event>
<event>
 7    1  0.6188600E-006  0.1261317E+03  0.7818608E-02  0.1270918E+00
          2   -1    0    0  502    0  0.00000000000E+00  0.00000000000E+00  0.21171265389E+03  0.21171265389E+03  0.00000000000E+00 0. -1.
          1   -1    0    0  501    0 -0.00000000000E+00 -0.00000000000E+00 -0.13118761102E+04  0.13118761102E+04  0.00000000000E+00 0. -1.
         25    2    1    2    0    0  0.22325764652E+01 -0.51932246392E+02 -0.28008763977E+03  0.31108806188E+03  0.12499901470E+03 0.  0.
          2    1    1    2  501    0  0.54926649508E+02 -0.67128971292E+02 -0.99195505029E+03  0.99573995471E+03  0.00000000000E+00 0. -1.
          1    1    1    2  502    0 -0.57159225973E+02  0.11906121768E+03  0.17187923374E+03  0.21676074751E+03  0.00000000000E+00 0. -1.
         22    1    3    3    0    0 -0.37684166585E+02  0.26443565005E+02 -0.76025508395E+02  0.88877648867E+02  0.00000000000E+00 0. -1.
         22    1    3    3    0    0  0.39916743051E+02 -0.78375811398E+02 -0.20406213138E+03  0.22221041301E+03  0.00000000000E+00 0. -1.
</event>
<event>
 7    1  0.6188600E-006  0.6958690E+02  0.7818608E-02  0.1515170E+00
          2   -1    0    0  502    0  0.00000000000E+00  0.00000000000E+00  0.84549344568E+03  0.84549344568E+03  0.00000000000E+00 0. -1.
          1   -1    0    0  501    0 -0.00000000000E+00 -0.00000000000E+00 -0.79993399592E+02  0.79993399592E+02  0.00000000000E+00 0. -1.
         25    2    1    2    0    0  0.32107618204E+02 -0.42197443620E+02  0.14993855982E+03  0.20228247494E+03  0.12500041821E+03 0.  0.
          2    1    1    2  501    0 -0.53096142218E+02  0.48574618191E+02 -0.29496415575E+02  0.77773596950E+02  0.00000000000E+00 0. -1.
          1    1    1    2  502    0  0.20988524014E+02 -0.63771745704E+01  0.64505790185E+03  0.64543077338E+03  0.00000000000E+00 0. -1.
         22    1    3    3    0    0  0.59548374180E+02 -0.66863228242E+02  0.13602729845E+03  0.16285001100E+03  0.00000000000E+00 0. -1.
         22    1    3    3    0    0 -0.27440755976E+02  0.24665784622E+02  0.13911261368E+02  0.39432463940E+02  0.00000000000E+00 0. -1.
</event>
<event>
 7    1  0.6188600E-006  0.1999301E+03  0.7818608E-02  0.1199625E+00
          2   -1    0    0  502    0  0.00000000000E+00  0.00000000000E+00  0.31594609853E+04  0.31594609853E+04  0.00000000000E+00 0. -1.
          1   -1    0    0  501    0 -0.00000000000E+00 -0.00000000000E+00 -0.40457174235E+03  0.40457174235E+03  0.00000000000E+00 0. -1.
         25    2    1    2    0    0 -0.30116295968E+03 -0.65421634738E+02 -0.74998522093E+02  0.34092310427E+03  0.12499866455E+03 0.  0.
          2    1    1    2  501    0  0.11357368954E+03  0.12491261987E+01 -0.17666531310E+03  0.21002660813E+03  0.00000000000E+00 0. -1.
          1    1    1    2  502    0  0.18758927014E+03  0.64172508539E+02  0.30065530781E+04  0.30130830152E+04  0.00000000000E+00 0. -1.
         22    1    3    3    0    0 -0.19000915932E+02  0.23114271147E+02  0.12643465274E+02  0.32483250315E+02  0.00000000000E+00 0. -1.
         22    1    3    3    0    0 -0.28216204374E+03 -0.88535905885E+02 -0.87641987366E+02  0.30843985396E+03  0.00000000000E+00 0. -1.
</event>
<event>
 7    1  0.6188600E-006  0.8983125E+02  0.7818608E-02  0.1436268E+00
          2   -1    0    0  502    0  0.00000000000E+00  0.00000000000E+00  0.20348837454E+04  0.20348837454E+04  0.00000000000E+00 0. -1.
          1   -1    0    0  501    0 -0.00000000000E+00 -0.00000000000E+00 -0.42317374117E+02  0.42317374117E+02  0.00000000000E+00 0. -1.
         25    2    1    2    0    0 -0.51486236539E+02  0.94896892864E+02  0.11044704704E+04  0.11167524463E+04  0.12499901471E+03 0.  0.
          2    1    1    2  501    0  0.59555311075E+02 -0.66230769983E+02  0.19292196284E+02  0.91134728875E+02  0.00000000000E+00 0. -1.
          1    1    1    2  502    0 -0.80690745361E+01 -0.28666122881E+02  0.86880370460E+03  0.86931394427E+03  0.00000000000E+00 0. -1.
         22    1    3    3    0    0 -0.35667457635E+02  0.24021929302E+02  0.87520845238E+03  0.87626426136E+03  0.00000000000E+00 0.  1.
         22    1    3    3    0    0 -0.15818778904E+02  0.70874963562E+02  0.22926201799E+03  0.24048818499E+03  0.00000000000E+00 0.  1.
</event>
<event>
 7    1  0.6188600E-006  0.7901213E+02  0.7818608E-02  0.1430608E+00
          2   -1    0    0  502    0  0.00000000000E+00  0.00000000000E+00  0.63497527332E+03  0.63497527332E+03  0.00000000000E+00 0. -1.
          1   -1    0    0  501    0 -0.00000000000E+00 -0.00000000000E+00 -0.90105672873E+03  0.90105672873E+03  0.00000000000E+00 0. -1.
         25    2    1    2    0    0 -0.37076265550E+02  0.10622797339E+03 -0.19414190290E+03  0.25685574206E+03  0.12499904788E+03 0.  0.
          2    1    1    2  501    0  0.33849690615E+01 -0.35172252771E+02 -0.67253090586E+03  0.67345851002E+03  0.00000000000E+00 0. -1.
          1    1    1    2  502    0  0.33691296489E+02 -0.71055720617E+02  0.60059135336E+03  0.60571774997E+03  0.00000000000E+00 0. -1.
         22    1    3    3    0    0 -0.20749651930E+02  0.11035965599E+03 -0.20711437735E+03  0.23559746822E+03  0.00000000000E+00 0.  1.
         22    1    3    3    0    0 -0.16326613620E+02 -0.41316826004E+01  0.12972474450E+02  0.21258273842E+02  0.00000000000E+00 0.  1.
</event>
<event>
 7    1  0.6188600E-006  0.1533217E+03  0.7818608E-02  0.1238266E+00
          2   -1    0    0  502    0  0.00000000000E+00  0.00000000000E+00  0.21822307674E+04  0.21822307674E+04  0.00000000000E+00 0. -1.
          1   -1    0    0  501    0 -0.00000000000E+00 -0.00000000000E+00 -0.16559647086E+03  0.16559647086E+03  0.00000000000E+00 0. -1.
         25    2    1    2    0    0  0.12284563918E+03  0.98713105024E+01  0.70615150182E+03  0.72764235231E+03  0.12499982204E+03 0.  0.
          2    1    1    2  501    0 -0.11319729870E+03 -0.10803496752E+03 -0.11317391334E+03  0.19311529535E+03  0.00000000000E+00 0. -1.
          1    1    1    2  502    0 -0.96483404842E+01  0.98163657016E+02  0.14236567080E+04  0.14270695906E+04  0.00000000000E+00 0. -1.
         22    1    3    3    0    0  0.24048711521E+02  0.60868890510E+01  0.14039844758E+02  0.28504525693E+02  0.00000000000E+00 0.  1.
         22    1    3    3    0    0  0.98796927662E+02  0.37844214513E+01  0.69211165706E+03  0.69913782661E+03  0.00000000000E+00 0.  1.
</event>
<event>
 7    1  0.6188600E-006  0.2613248E+03  0.7818608E-02  0.1293620E+00
          2   -1    0    0  502    0  0.00000000000E+00  0.00000000000E+00  0.11581484301E+04  0.11581484301E+04  0.00000000000E+00 0. -1.
          1   -1    0    0  501    0 -0.00000000000E+00 -0.00000000000E+00 -0.43599952441E+03  0.43599952441E+03  0.00000000000E+00 0. -1.
         25    2    1    2    0    0  0.10643985145E+03 -0.24445945528E+03  0.35513113667E+03  0.46133823657E+03  0.12499990813E+03 0.  0.
          2    1    1    2  501    0 -0.73222615067E+02  0.25047143969E+03 -0.33798303523E+03  0.42700120089E+03  0.00000000000E+00 0. -1.
          1    1    1    2  502    0 -0.33217236385E+02 -0.60119844060E+01  0.70500080424E+03  0.70580851704E+03  0.00000000000E+00 0. -1.
         22    1    3    3    0    0  0.10740957003E+02 -0.17284008893E+03  0.18489008302E+03  0.25332470724E+03  0.00000000000E+00 0. -1.
         22    1    3    3    0    0  0.95698894449E+02 -0.71619366351E+02  0.17024105365E+03  0.20801352933E+03  0.00000000000E+00 0. -1.
</event>
<event>
 7    1  0.6188600E-006  0.9295711E+02  0.7818608E-02  0.1313746E+00
          2   -1    0    0  502    0  0.00000000000E+00  0.00000000000E+00  0.77365606862E+03  0.77365606862E+03  0.00000000000E+00 0. -1.
          1   -1    0    0  501    0 -0.00000000000E+00 -0.00000000000E+00 -0.30594976851E+03  0.30594976851E+03  0.00000000000E+00 0. -1.
         25    2    1    2    0    0 -0.14500878841E+02 -0.13425847653E+02  0.82158376864E+02  0.15088634427E+03  0.12500464442E+03 0.  0.
          2    1    1    2  501    0  0.68414631057E+02  0.71052035061E+02 -0.26014796304E+03  0.27821918716E+03  0.00000000000E+00 0. -1.
          1    1    1    2  502    0 -0.53913752216E+02 -0.57626187408E+02  0.64569588628E+03  0.65050030570E+03  0.00000000000E+00 0. -1.
         22    1    3    3    0    0  0.22661665244E+02 -0.58745961830E+02  0.21488554193E+02  0.66531173628E+02  0.00000000000E+00 0.  1.
         22    1    3    3    0    0 -0.37162544085E+02  0.45320114177E+02  0.60669822670E+02  0.84355170646E+02  0.00000000000E+00 0.  1.
</event>
<event>
 7    1  0.6188600E-006  0.1220204E+03  0.7818608E-02  0.1272986E+00
          2   -1    0    0  502    0  0.00000000000E+00  0.00000000000E+00  0.50891457995E+03  0.50891457995E+03  0.00000000000E+00 0. -1.
          1   -1    0    0  501    0 -0.00000000000E+00 -0.00000000000E+00 -0.19450082947E+04  0.19450082947E+04  0.00000000000E+00 0. -1.
         25    2    1    2    0    0  0.12022627758E+03  0.15297856784E+03 -0.24783695666E+03  0.33897598034E+03  0.12499903249E+03 0.  0.
          2    1    1    2  501    0 -0.97583646038E+02 -0.68055309548E+02 -0.16452666198E+04  0.16495624702E+04  0.00000000000E+00 0. -1.
          1    1    1    2  502    0 -0.22642631545E+02 -0.84923258287E+02  0.45700986164E+03  0.46538442410E+03  0.00000000000E+00 0. -1.
         22    1    3    3    0    0  0.84767760030E+02  0.61057896804E+02 -0.45539406991E+02  0.11396261445E+03  0.00000000000E+00 0.  1.
         22    1    3    3    0    0  0.35458517553E+02  0.91920671032E+02 -0.20229754966E+03  0.22501336589E+03  0.00000000000E+00 0.  1.
</event>
<event>
 7    1  0.6188600E-006  0.4402506E+02  0.7818608E-02  0.1579648E+00
          2   -1    0    0  502    0  0.00000000000E+00  0.00000000000E+00  0.16890401878E+04  0.16890401878E+04  0.00000000000E+00 0. -1.
          1   -1    0    0  501    0 -0.00000000000E+00 -0.00000000000E+00 -0.47706545847E+03  0.47706545847E+03  0.00000000000E+00 0. -1.
         25    2    1    2    0    0 -0.54736687656E+02  0.36122782846E+02  0.54985094927E+03  0.56768337753E+03  0.12500956084E+03 0.  0.
          2    1    1    2  501    0  0.20658596289E+02 -0.98305861825E+01 -0.46745961610E+03  0.46801913498E+03  0.00000000000E+00 0. -1.
          1    1    1    2  502    0  0.34078091367E+02 -0.26292196664E+02  0.11295833962E+04  0.11304031338E+04  0.00000000000E+00 0. -1.
         22    1    3    3    0    0 -0.79978679542E+02 -0.11392266606E+02  0.40908208057E+03  0.41698263940E+03  0.00000000000E+00 0.  1.
         22    1    3    3    0    0  0.25241991885E+02  0.47515049452E+02  0.14076886870E+03  0.15070073813E+03  0.00000000000E+00 0.  1.
</event>
<event>
 7    1  0.6188600E-006  0.7080134E+02  0.7818608E-02  0.1462079E+00
          2   -1    0    0  502    0  0.00000000000E+00  0.00000000000E+00  0.44202499264E+03  0.44202499264E+03  0.00000000000E+00 0. -1.
          1   -1    0    0  501    0 -0.00000000000E+00 -0.00000000000E+00 -0.69478521229E+03  0.69478521229E+03  0.00000000000E+00 0. -1.
         25    2    1    2    0    0  0.37097133058E+02 -0.93018167079E+02  0.16771269255E+03  0.23190085131E+03  0.12498752300E+03 0.  0.
          2    1    1    2  501    0 -0.33677848264E+02  0.61972090368E+02 -0.65979677020E+03  0.66355596253E+03  0.00000000000E+00 0. -1.
          1    1    1    2  502    0 -0.34192847947E+01  0.31046076711E+02  0.23932385799E+03  0.24135339109E+03  0.00000000000E+00 0. -1.
         22    1    3    3    0    0  0.38425460746E+02  0.13867557536E+02  0.92731544328E+02  0.10133096515E+03  0.00000000000E+00 0.  1.
         22    1    3    3    0    0 -0.13283276879E+01 -0.10688572461E+03  0.74981148226E+02  0.13056988615E+03  0.00000000000E+00 0.  1.
</event>
<event>
 7    1  0.6188600E-006  0.1573208E+03  0.7818608E-02  0.1237340E+00
          2   -1    0    0  502    0  0.00000000000E+00  0.00000000000E+00  0.71283181977E+03  0.71283181977E+03  0.00000000000E+00 0. -1.
          1   -1    0    0  501    0 -0.00000000000E+00 -0.00000000000E+00 -0.13807134682E+04  0.13807134682E+04  0.00000000000E+00 0. -1.
         25    2    1    2    0    0 -0.15702176322E+03  0.85362460812E+02  0.33133232911E+03  0.39667148496E+03  0.12499828328E+03 0.  0.
          2    1    1    2  501    0  0.19308672927E+01 -0.97022582276E+02 -0.13288502868E+04  0.13323889051E+04  0.00000000000E+00 0. -1.
          1    1    1    2  502    0  0.15509089592E+03  0.11660121464E+02  0.32963630925E+03  0.36448489792E+03  0.00000000000E+00 0. -1.
         22    1    3    3    0    0 -0.17417766143E+03  0.94348881175E+02  0.30973949338E+03  0.36766577605E+03  0.00000000000E+00 0.  1.
         22    1    3    3    0    0  0.17155898208E+02 -0.89864203629E+01  0.21592835734E+02  0.29005708909E+02  0.00000000000E+00 0.  1.
</event>
<event>
 7    1  0.6188600E-006  0.8247536E+02  0.7818608E-02  0.1341634E+00
          2   -1    0    0  502    0  0.00000000000E+00  0.00000000000E+00  0.24937283171E+04  0.24937283171E+04  0.00000000000E+00 0. -1.
          1   -1    0    0  501    0 -0.00000000000E+00 -0.00000000000E+00 -0.51050038699E+03  0.51050038699E+03  0.00000000000E+00 0. -1.
         25    2    1    2    0    0 -0.54638689203E+02  0.23624554711E+02  0.26430938725E+03  0.29837537205E+03  0.12499961807E+03 0.  0.
          2    1    1    2  501    0  0.16107511656E+02 -0.81502730143E+02 -0.48941958454E+03  0.49642086649E+03  0.00000000000E+00 0. -1.
          1    1    1    2  502    0  0.38531177548E+02  0.57878175432E+02  0.22083381274E+04  0.22094324655E+04  0.00000000000E+00 0. -1.
         22    1    3    3    0    0  0.23307812636E+02 -0.30350752618E+02  0.42711574545E+02  0.57347196222E+02  0.00000000000E+00 0.  1.
         22    1    3    3    0    0 -0.77946501840E+02  0.53975307330E+02  0.22159781270E+03  0.24102817583E+03  0.00000000000E+00 0.  1.
</event>
<event>
 7    1  0.6188600E-006  0.5900177E+02  0.7818608E-02  0.1445845E+00
          2   -1    0    0  502    0  0.00000000000E+00  0.00000000000E+00  0.80732348911E+03  0.80732348911E+03  0.00000000000E+00 0. -1.
          1   -1    0    0  501    0 -0.00000000000E+00 -0.00000000000E+00 -0.68903848882E+03  0.68903848882E+03  0.00000000000E+00 0. -1.
         25    2    1    2    0    0  0.60785707979E+02 -0.41486642725E+02  0.17891635510E+02  0.14615474298E+03  0.12500021782E+03 0.  0.
          2    1    1    2  501    0 -0.20850082655E+02  0.55166860797E+02 -0.62289870183E+03  0.62568434631E+03  0.00000000000E+00 0. -1.
          1    1    1    2  502    0 -0.39935625324E+02 -0.13680218072E+02  0.72329206661E+03  0.72452288864E+03  0.00000000000E+00 0. -1.
         22    1    3    3    0    0 -0.26018329493E+02  0.24564089029E+02  0.11442074800E+01  0.35800239527E+02  0.00000000000E+00 0. -1.
         22    1    3    3    0    0  0.86804037472E+02 -0.66050731754E+02  0.16747428030E+02  0.11035450345E+03  0.00000000000E+00 0. -1.
</event>
<event>
 7    1  0.6188600E-006  0.1084156E+03  0.7818608E-02  0.1409792E+00
          2   -1    0    0  502    0  0.00000000000E+00  0.00000000000E+00  0.97734912393E+03  0.97734912393E+03  0.00000000000E+00 0. -1.
          1   -1    0    0  501    0 -0.00000000000E+00 -0.00000000000E+00 -0.12390881482E+04  0.12390881482E+04  0.00000000000E+00 0. -1.
         25    2    1    2    0    0 -0.61133130474E+00  0.79701539917E+02 -0.20832567085E+03  0.25568176365E+03  0.12498347866E+03 0.  0.
          2    1    1    2  501    0  0.92990743360E+01  0.28754841121E+02 -0.10037529272E+04  0.10042077736E+04  0.00000000000E+00 0. -1.
          1    1    1    2  502    0 -0.86877430312E+01 -0.10845638104E+03  0.95033957382E+03  0.95654773485E+03  0.00000000000E+00 0. -1.
         22    1    3    3    0    0  0.10236337047E+02  0.93693918186E+02 -0.73033356448E+02  0.11923591764E+03  0.00000000000E+00 0.  1.
         22    1    3    3    0    0 -0.10847668352E+02 -0.13992378269E+02 -0.13529231440E+03  0.13644584601E+03  0.00000000000E+00 0.  1.
</event>
<event>
 7    1  0.6188600E-006  0.9074680E+02  0.7818608E-02  0.1384324E+00
          2   -1    0    0  502    0  0.00000000000E+00  0.00000000000E+00  0.30131011128E+03  0.30131011128E+03  0.00000000000E+00 0. -1.
          1   -1    0    0  501    0 -0.00000000000E+00 -0.00000000000E+00 -0.31751601196E+03  0.31751601196E+03  0.00000000000E+00 0. -1.
         25    2    1    2    0    0 -0.60039426638E+00  0.13099152675E+03 -0.15213808453E+03  0.23648058435E+03  0.12497171463E+03 0.  0.
          2    1    1    2  501    0  0.12008865067E+02 -0.42549126891E+02 -0.11117325877E+03  0.11964169217E+03  0.00000000000E+00 0. -1.
          1    1    1    2  502    0 -0.11408470801E+02 -0.88442399855E+02  0.24710544263E+03  0.26270384671E+03  0.00000000000E+00 0. -1.
         22    1    3    3    0    0 -0.19486490664E+02 -0.20498998130E+02 -0.26664504259E+02  0.38870657701E+02  0.00000000000E+00 0.  1.
         22    1    3    3    0    0  0.18886096398E+02  0.15149052488E+03 -0.12547358027E+03  0.19760992665E+03  0.00000000000E+00 0.  1.
</event>
<event>
 7    1  0.6188600E-006  0.8416111E+02  0.7818608E-02  0.1333581E+00
          2   -1    0    0  502    0  0.00000000000E+00  0.00000000000E+00  0.47293175397E+03  0.47293175397E+03  0.00000000000E+00 0. -1.
          1   -1    0    0  501    0 -0.00000000000E+00 -0.00000000000E+00 -0.46585103377E+03  0.46585103377E+03  0.00000000000E+00 0. -1.
         25    2    1    2    0    0 -0.33697021594E+02  0.13873988936E+03  0.21712530286E+03  0.28835484227E+03  0.12498348592E+03 0.  0.
          2    1    1    2  501    0 -0.10294950702E+01 -0.73072901381E+02 -0.42073035568E+03  0.42703014059E+03  0.00000000000E+00 0. -1.
          1    1    1    2  502    0  0.34726516664E+02 -0.65666987980E+02  0.21068577302E+03  0.22339780488E+03  0.00000000000E+00 0. -1.
         22    1    3    3    0    0  0.29963653053E+02  0.14913525609E+02  0.10307825196E+03  0.10837601108E+03  0.00000000000E+00 0. -1.
         22    1    3    3    0    0 -0.63660674647E+02  0.12382636375E+03  0.11404705090E+03  0.17997883119E+03  0.00000000000E+00 0. -1.
</event>
<event>
 7    1  0.6188600E-006  0.7415472E+02  0.7818608E-02  0.1369072E+00
          2   -1    0    0  502    0  0.00000000000E+00  0.00000000000E+00  0.57292302307E+03  0.57292302307E+03  0.00000000000E+00 0. -1.
          1   -1    0    0  501    0 -0.00000000000E+00 -0.00000000000E+00 -0.43357284987E+03  0.43357284987E+03  0.00000000000E+00 0. -1.
         25    2    1    2    0    0  0.98422547539E+02 -0.52058006436E+01  0.14199471734E+03  0.21331276634E+03  0.12500295319E+03 0.  0.
          2    1    1    2  501    0 -0.60406045410E+02 -0.42891848489E+02 -0.39204624069E+03  0.39898478145E+03  0.00000000000E+00 0. -1.
          1    1    1    2  502    0 -0.38016502129E+02  0.48097649132E+02  0.38940169655E+03  0.39419832516E+03  0.00000000000E+00 0. -1.
         22    1    3    3    0    0  0.10690522907E+03 -0.39193993710E+02  0.13665900733E+03  0.17787799591E+03  0.00000000000E+00 0. -1.
         22    1    3    3    0    0 -0.84826815318E+01  0.33988193067E+02  0.53357100146E+01  0.35434770428E+02  0.00000000000E+00 0. -1.
</event>
<event>
 7    1  0.6188600E-006  0.5101357E+02  0.7818608E-02  0.1471534E+00
          2   -1    0    0  502    0  0.00000000000E+00  0.00000000000E+00  0.16201047559E+04  0.16201047559E+04  0.00000000000E+00 0. -1.
          1   -1    0    0  501    0 -0.00000000000E+00 -0.00000000000E+00 -0.11719926519E+03  0.11719926519E+03  0.00000000000E+00 0. -1.
         25    2    1    2    0    0  0.18995363970E+02 -0.12989567697E+02  0.34533540818E+03  0.36798272599E+03  0.12500075905E+03 0.  0.
          2    1    1    2  501    0 -0.49955949464E+02 -0.13117158695E+02 -0.99230941861E+02  0.11186794251E+03  0.00000000000E+00 0. -1.
          1    1    1    2  502    0  0.30960585493E+02  0.26106726392E+02  0.12568010244E+04  0.12574533526E+04  0.00000000000E+00 0. -1.
         22    1    3    3    0    0 -0.36302267114E+02 -0.47788949055E+02  0.19594886655E+03  0.20493315142E+03  0.00000000000E+00 0. -1.
         22    1    3    3    0    0  0.55297631084E+02  0.34799381358E+02  0.14938654163E+03  0.16304957457E+03  0.00000000000E+00 0. -1.
</event>
<event>
 7    1  0.6188600E-006  0.1523599E+03  0.7818608E-02  0.1363900E+00
          2   -1    0    0  502    0  0.00000000000E+00  0.00000000000E+00  0.12873000452E+04  0.12873000452E+04  0.00000000000E+00 0. -1.
          1   -1    0    0  501    0 -0.00000000000E+00 -0.00000000000E+00 -0.27727937663E+03  0.27727937663E+03  0.00000000000E+00 0. -1.
         25    2    1    2    0    0  0.48817515700E+02 -0.17329436897E+03  0.17353642325E+03  0.27955752019E+03  0.12499371482E+03 0.  0.
          2    1    1    2  501    0 -0.14154503800E+02  0.27749515216E+02 -0.21787981129E+03  0.22009542871E+03  0.00000000000E+00 0. -1.
          1    1    1    2  502    0 -0.34663011900E+02  0.14554485376E+03  0.10543640566E+04  0.10649264729E+04  0.00000000000E+00 0. -1.
         22    1    3    3    0    0  0.32802504975E+02 -0.35260120952E+01  0.76613812194E+02  0.83415306227E+02  0.00000000000E+00 0.  1.
         22    1    3    3    0    0  0.16015010725E+02 -0.16976835688E+03  0.96922611051E+02  0.19614221396E+03  0.00000000000E+00 0.  1.
</event>
<event>
 7    1  0.6188600E-006  0.9513197E+02  0.7818608E-02  0.1363711E+00
          2   -1    0    0  502    0  0.00000000000E+00  0.00000000000E+00  0.77796958553E+03  0.77796958553E+03  0.00000000000E+00 0. -1.
          1   -1    0    0  501    0 -0.00000000000E+00 -0.00000000000E+00 -0.25579082312E+03  0.25579082312E+03  0.00000000000E+00 0. -1.
         25    2    1    2    0    0  0.33239246478E+02 -0.32674132571E+02 -0.69325459789E+02  0.15034326877E+03  0.12499853056E+03 0.  0.
          2    1    1    2  501    0  0.33505116759E+02 -0.37071874718E+02 -0.13840634371E+03  0.14715037452E+03  0.00000000000E+00 0. -1.
          1    1    1    2  502    0 -0.66744363237E+02  0.69746007290E+02  0.72991056591E+03  0.73626676536E+03  0.00000000000E+00 0. -1.
         22    1    3    3    0    0 -0.95043521520E+01  0.25880827070E+02  0.20902627177E+02  0.34598695677E+02  0.00000000000E+00 0. -1.
         22    1    3    3    0    0  0.42743598630E+02 -0.58554959641E+02 -0.90228086966E+02  0.11574457309E+03  0.00000000000E+00 0. -1.
</event>
<event>
 7    1  0.6188600E-006  0.3758805E+02  0.7818608E-02  0.1615666E+00
          2   -1    0    0  502    0  0.00000000000E+00  0.00000000000E+00  0.54565139896E+03  0.54565139896E+03  0.00000000000E+00 0. -1.
          1   -1    0    0  501    0 -0.00000000000E+00 -0.00000000000E+00 -0.58170648625E+03  0.58170648625E+03  0.00000000000E+00 0. -1.
         25    2    1    2    0    0  0.24027190123E+02  0.51465205469E+02 -0.60097916278E+02  0.14987319013E+03  0.12499696133E+03 0.  0.
          2    1    1    2  501    0 -0.22176432224E+02 -0.29983803481E+02 -0.47575878574E+03  0.47721823606E+03  0.00000000000E+00 0. -1.
          1    1    1    2  502    0 -0.18507578985E+01 -0.21481401989E+02  0.49980161473E+03  0.50026645902E+03  0.00000000000E+00 0. -1.
         22    1    3    3    0    0  0.18884160472E+02  0.54729097670E+02 -0.96733139219E+02  0.11273502504E+03  0.00000000000E+00 0. -1.
         22    1    3    3    0    0  0.51430296511E+01 -0.32638922004E+01  0.36635222941E+02  0.37138165090E+02  0.00000000000E+00 0. -1.
</event>
<event>
 7    1  0.6188600E-006  0.7292312E+02  0.7818608E-02  0.1392368E+00
          2   -1    0    0  502    0  0.00000000000E+00  0.00000000000E+00  0.49687802222E+03  0.49687802222E+03  0.00000000000E+00 0. -1.
          1   -1    0    0  501    0 -0.00000000000E+00 -0.00000000000E+00 -0.49538707992E+02  0.49538707992E+02  0.00000000000E+00 0. -1.
         25    2    1    2    0    0 -0.71360058112E+02 -0.35815039002E+01  0.12291577395E+03  0.18931362447E+03  0.12500510333E+03 0.  0.
          2    1    1    2  501    0  0.11932776417E+02  0.50165878528E+02  0.47637764097E+02  0.70202301171E+02  0.00000000000E+00 0. -1.
          1    1    1    2  502    0  0.59427281695E+02 -0.46584374628E+02  0.27678577618E+03  0.28690080457E+03  0.00000000000E+00 0. -1.
         22    1    3    3    0    0 -0.22339726499E+02 -0.63061409810E+02  0.57940948902E+02  0.88504001869E+02  0.00000000000E+00 0.  1.
         22    1    3    3    0    0 -0.49020331613E+02  0.59479905909E+02  0.64974825050E+02  0.10080962260E+03  0.00000000000E+00 0.  1.
</event>
<event>
 7    1  0.6188600E-006  0.6081949E+02  0.7818608E-02  0.1506139E+00
          2   -1    0    0  502    0  0.00000000000E+00  0.00000000000E+00  0.22788204814E+03  0.22788204814E+03  0.00000000000E+00 0. -1.
          1   -1    0    0  501    0 -0.00000000000E+00 -0.00000000000E+00 -0.42595561743E+03  0.42595561743E+03  0.00000000000E+00 0. -1.
         25    2    1    2    0    0  0.15816443588E+02  0.41531591716E+02 -0.23116699473E+03  0.26653050302E+03  0.12500118635E+03 0.  0.
          2    1    1    2  501    0 -0.39042374146E+02 -0.54662774731E+02 -0.16983255993E+03  0.18263467451E+03  0.00000000000E+00 0. -1.
          1    1    1    2  502    0  0.23225930558E+02  0.13131183015E+02  0.20292598538E+03  0.20467248804E+03  0.00000000000E+00 0. -1.
         22    1    3    3    0    0  0.42393773991E+02  0.76217068384E+02 -0.17340573763E+03  0.19410261056E+03  0.00000000000E+00 0. -1.
         22    1    3    3    0    0 -0.26577330404E+02 -0.34685476669E+02 -0.57761257103E+02  0.72427892453E+02  0.00000000000E+00 0. -1.
</event>
<event>
 7    1  0.6188600E-006  0.6055968E+02  0.7818608E-02  0.1434674E+00
          2   -1    0    0  502    0  0.00000000000E+00  0.00000000000E+00  0.32531414864E+04  0.32531414864E+04  0.00000000000E+00 0. -1.
          1   -1    0    0  501    0 -0.00000000000E+00 -0.00000000000E+00 -0.10744161888E+04  0.10744161888E+04  0.00000000000E+00 0. -1.
         25    2    1    2    0    0 -0.33224507755E+02 -0.98902208522E+02  0.41493793556E+02  0.16802530109E+03  0.12500100855E+03 0.  0.
          2    1    1    2  501    0  0.24175135334E+02  0.55120423842E+02 -0.10100958506E+04  0.10118875065E+04  0.00000000000E+00 0. -1.
          1    1    1    2  502    0  0.90493724205E+01  0.43781784680E+02  0.31473273546E+04  0.31476448676E+04  0.00000000000E+00 0. -1.
         22    1    3    3    0    0  0.24277589110E+02  0.13995901104E+02 -0.12016223250E+02  0.30490592022E+02  0.00000000000E+00 0.  1.
         22    1    3    3    0    0 -0.57502096864E+02 -0.11289810963E+03  0.53510016806E+02  0.13753470907E+03  0.00000000000E+00 0.  1.
</event>
<event>
 7    1  0.6188600E-006  0.9138736E+02  0.7818608E-02  0.1373945E+00
          2   -1    0    0  502    0  0.00000000000E+00  0.00000000000E+00  0.34005197540E+03  0.34005197540E+03  0.00000000000E+00 0. -1.
          1   -1    0    0  501    0 -0.00000000000E+00 -0.00000000000E+00 -0.59485050530E+03  0.59485050530E+03  0.00000000000E+00 0. -1.
         25    2    1    2    0    0  0.29438597568E+02  0.51064989315E+02  0.20858480224E+03  0.25021081052E+03  0.12499426312E+03 0.  0.
          2    1    1    2  501    0 -0.46242128950E+01 -0.91901380838E+02 -0.56497694340E+03  0.57242134282E+03  0.00000000000E+00 0. -1.
          1    1    1    2  502    0 -0.24814384673E+02  0.40836391523E+02  0.10159361125E+03  0.11227032737E+03  0.00000000000E+00 0. -1.
         22    1    3    3    0    0  0.30087445601E+02  0.44815301223E+02  0.22565485753E+03  0.23202107735E+03  0.00000000000E+00 0.  1.
         22    1    3    3    0    0 -0.64884803299E+00  0.62496880919E+01 -0.17070055290E+02  0.18189733166E+02  0.00000000000E+00 0.  1.
</event>
<event>
 7    1  0.6188600E-006  0.7728761E+02  0.7818608E-02  0.1459099E+00
          2   -1    0    0  502    0  0.00000000000E+00  0.00000000000E+00  0.80183751894E+03  0.80183751894E+03  0.00000000000E+00 0. -1.
          1   -1    0    0  501    0 -0.00000000000E+00 -0.00000000000E+00 -0.33421258833E+03  0.33421258833E+03  0.00000000000E+00 0. -1.
         25    2    1    2    0    0  0.86440401269E+01  0.98406747708E+02  0.94210807189E+02  0.18509431200E+03  0.12500248285E+03 0.  0.
          2    1    1    2  501    0 -0.23131790044E+02 -0.73010460603E+02 -0.28336178729E+03  0.29352940154E+03  0.00000000000E+00 0. -1.
          1    1    1    2  502    0  0.14487749918E+02 -0.25396287105E+02  0.65677591071E+03  0.65742639374E+03  0.00000000000E+00 0. -1.
         22    1    3    3    0    0 -0.34057935815E+02  0.63054237658E+02 -0.45815401115E+01  0.71810656510E+02  0.00000000000E+00 0.  1.
         22    1    3    3    0    0  0.42701975942E+02  0.35352510051E+02  0.98792347300E+02  0.11328365549E+03  0.00000000000E+00 0.  1.
</event>
<event>
 7    1  0.6188600E-006  0.4030080E+02  0.7818608E-02  0.1532350E+00
          2   -1    0    0  502    0  0.00000000000E+00  0.00000000000E+00  0.13360728745E+04  0.13360728745E+04  0.00000000000E+00 0. -1.
          1   -1    0    0  501    0 -0.00000000000E+00 -0.00000000000E+00 -0.77149463909E+03  0.77149463909E+03  0.00000000000E+00 0. -1.
         25    2    1    2    0    0  0.19304885593E+02  0.26090802457E+02  0.30462143089E+03  0.33086790183E+03  0.12500377482E+03 0.  0.
          2    1    1    2  501    0  0.21643526194E+02 -0.25942879866E+02 -0.75758310160E+03  0.75833609374E+03  0.00000000000E+00 0. -1.
          1    1    1    2  502    0 -0.40948411787E+02 -0.14792259147E+00  0.10175399062E+04  0.10183635181E+04  0.00000000000E+00 0. -1.
         22    1    3    3    0    0  0.24493006078E+02  0.30868041227E+02  0.16597588027E+02  0.42757727305E+02  0.00000000000E+00 0. -1.
         22    1    3    3    0    0 -0.51881204850E+01 -0.47772387699E+01  0.28802384286E+03  0.28811017452E+03  0.00000000000E+00 0. -1.
</event>
<event>
 7    1  0.6188600E-006  0.7391626E+02  0.7818608E-02  0.1513454E+00
          2   -1    0    0  502    0  0.00000000000E+00  0.00000000000E+00  0.37788816344E+04  0.37788816344E+04  0.00000000000E+00 0. -1.
          1   -1    0    0  501    0 -0.00000000000E+00 -0.00000000000E+00 -0.15754118195E+03  0.15754118195E+03  0.00000000000E+00 0. -1.
         25    2    1    2    0    0 -0.11882744873E+02  0.51953582916E+02  0.61257575003E+02  0.14905650295E+03  0.12499990469E+03 0.  0.
          2    1    1    2  501    0 -0.23478703239E+01  0.20758972176E+02 -0.11230473980E+03  0.11423135298E+03  0.00000000000E+00 0. -1.
          1    1    1    2  502    0  0.14230615197E+02 -0.72712555092E+02  0.36723876172E+04  0.36731349604E+04  0.00000000000E+00 0. -1.
         22    1    3    3    0    0 -0.39716121088E+02 -0.29186463287E+02  0.14582539784E+02  0.51399128203E+02  0.00000000000E+00 0. -1.
         22    1    3    3    0    0  0.27833376215E+02  0.81140046203E+02  0.46675035219E+02  0.97657374745E+02  0.00000000000E+00 0. -1.
</event>
<event>
 7    1  0.6188600E-006  0.6066219E+02  0.7818608E-02  0.1410140E+00
          2   -1    0    0  502    0  0.00000000000E+00  0.00000000000E+00  0.12217235579E+03  0.12217235579E+03  0.00000000000E+00 0. -1.
          1   -1    0    0  501    0 -0.00000000000E+00 -0.00000000000E+00 -0.11390252212E+04  0.11390252212E+04  0.00000000000E+00 0. -1.
         25    2    1    2    0    0  0.73911547993E+02  0.75809934149E+02 -0.90612120853E+02  0.18720350602E+03  0.12499813270E+03 0.  0.
          2    1    1    2  501    0 -0.23513694105E+02 -0.48461791126E+02 -0.98814611702E+03  0.98961315048E+03  0.00000000000E+00 0. -1.
          1    1    1    2  502    0 -0.50397853888E+02 -0.27348143023E+02  0.61905372460E+02  0.84380920490E+02  0.00000000000E+00 0. -1.
         22    1    3    3    0    0  0.69965822721E+02 -0.12759162902E+02 -0.61106146919E+02  0.93765525532E+02  0.00000000000E+00 0. -1.
         22    1    3    3    0    0  0.39457252717E+01  0.88569097051E+02 -0.29505973934E+02  0.93437980490E+02  0.00000000000E+00 0. -1.
</event>
<event>
 7    1  0.6188600E-006  0.3495402E+03  0.7818608E-02  0.1281008E+00
          2   -1    0    0  502    0  0.00000000000E+00  0.00000000000E+00  0.17137668059E+04  0.17137668059E+04  0.00000000000E+00 0. -1.
          1   -1    0    0  501    0 -0.00000000000E+00 -0.00000000000E+00 -0.51918706071E+03  0.51918706071E+03  0.00000000000E+00 0. -1.
         25    2    1    2    0    0  0.33973465647E+03  0.46863760260E+02  0.48583880169E+03  0.60768405125E+03  0.12499886434E+03 0.  0.
          2    1    1    2  501    0 -0.34987574793E+03 -0.20318828870E+02 -0.39104805503E+03  0.52511377352E+03  0.00000000000E+00 0. -1.
          1    1    1    2  502    0  0.10141091460E+02 -0.26544931389E+02  0.10997889985E+04  0.11001560418E+04  0.00000000000E+00 0. -1.
         22    1    3    3    0    0 -0.66991551174E+01  0.15140348825E+02  0.29970991867E+02  0.34239877268E+02  0.00000000000E+00 0.  1.
         22    1    3    3    0    0  0.34643381159E+03  0.31723411435E+02  0.45586780982E+03  0.57344417398E+03  0.00000000000E+00 0.  1.
</event>
<event>
 7    1  0.6188600E-006  0.5390553E+02  0.7818608E-02  0.1503153E+00
          2   -1    0    0  502    0  0.00000000000E+00  0.00000000000E+00  0.18056640065E+04  0.18056640065E+04  0.00000000000E+00 0. -1.
          1   -1    0    0  501    0 -0.00000000000E+00 -0.00000000000E+00 -0.31982131514E+03  0.31982131514E+03  0.00000000000E+00 0. -1.
         25    2    1    2    0    0  0.59287254838E+02 -0.49756750894E+00  0.60081397392E+03  0.61653679051E+03  0.12499982655E+03 0.  0.
          2    1    1    2  501    0 -0.12690434640E+02  0.27979640036E+02 -0.31059037319E+03  0.31210621158E+03  0.00000000000E+00 0. -1.
          1    1    1    2  502    0 -0.46596820197E+02 -0.27482072527E+02  0.11956190906E+04  0.11968423196E+04  0.00000000000E+00 0. -1.
         22    1    3    3    0    0  0.75545878630E+02  0.24468711157E+02  0.56212110558E+03  0.56770241759E+03  0.00000000000E+00 0.  1.
         22    1    3    3    0    0 -0.16258623793E+02 -0.24966278666E+02  0.38692868344E+02  0.48834372923E+02  0.00000000000E+00 0.  1.
</event>
<event>
 7    1  0.6188600E-006  0.1943161E+03  0.7818608E-02  0.1271916E+00
          2   -1    0    0  502    0  0.00000000000E+00  0.00000000000E+00  0.65663351585E+03  0.65663351585E+03  0.00000000000E+00 0. -1.
          1   -1    0    0  501    0 -0.00000000000E+00 -0.00000000000E+00 -0.11441904120E+04  0.11441904120E+04  0.00000000000E+00 0. -1.
         25    2    1    2    0    0  0.23228915242E+02 -0.21915688929E+03  0.26063924112E+03  0.36349266412E+03  0.12499911293E+03 0.  0.
          2    1    1    2  501    0 -0.41937527378E+02  0.36751449925E+02 -0.10675902634E+04  0.10690455537E+04  0.00000000000E+00 0. -1.
          1    1    1    2  502    0  0.18708612136E+02  0.18240543937E+03  0.31939412610E+03  0.36828571011E+03  0.00000000000E+00 0. -1.
         22    1    3    3    0    0 -0.26286570078E+02 -0.30207999074E+02  0.29676149866E+01  0.40153626402E+02  0.00000000000E+00 0. -1.
         22    1    3    3    0    0  0.49515485320E+02 -0.18894889022E+03  0.25767162613E+03  0.32333903772E+03  0.00000000000E+00 0. -1.
</event>
<event>
 7    1  0.6188600E-006  0.1329275E+03  0.7818608E-02  0.1263610E+00
          2   -1    0    0  502    0  0.00000000000E+00  0.00000000000E+00  0.95360243308E+03  0.95360243308E+03  0.00000000000E+00 0. -1.
          1   -1    0    0  501    0 -0.00000000000E+00 -0.00000000000E+00 -0.88636644619E+03  0.88636644619E+03  0.00000000000E+00 0. -1.
         25    2    1    2    0    0  0.19783967707E+03  0.67878072681E+02  0.55308756769E+03  0.60438258743E+03  0.12499793550E+03 0.  0.
          2    1    1    2  501    0 -0.10969486403E+03 -0.73990656922E+02 -0.85032392836E+03  0.86055700779E+03  0.00000000000E+00 0. -1.
          1    1    1    2  502    0 -0.88144813047E+02  0.61125842410E+01  0.36447234758E+03  0.37502928406E+03  0.00000000000E+00 0. -1.
         22    1    3    3    0    0  0.14289364597E+03 -0.26134118352E+01  0.24546703977E+03  0.28404135542E+03  0.00000000000E+00 0. -1.
         22    1    3    3    0    0  0.54946031107E+02  0.70491484517E+02  0.30762052792E+03  0.32034123200E+03  0.00000000000E+00 0. -1.
</event>
<event>
 7    1  0.6188600E-006  0.7831979E+02  0.7818608E-02  0.1336916E+00
          2   -1    0    0  502    0  0.00000000000E+00  0.00000000000E+00  0.41523582295E+02  0.41523582295E+02  0.00000000000E+00 0. -1.
          1   -1    0    0  501    0 -0.00000000000E+00 -0.00000000000E+00 -0.24765077429E+04  0.24765077429E+04  0.00000000000E+00 0. -1.
         25    2    1    2    0    0 -0.29624193405E+02 -0.63235037240E+02 -0.43931821271E+03  0.46206239047E+03  0.12499959159E+03 0.  0.
          2    1    1    2  501    0  0.79238731131E+02  0.26348130511E+01 -0.19727819358E+04  0.19743744035E+04  0.00000000000E+00 0. -1.
          1    1    1    2  502    0 -0.49614537725E+02  0.60600224189E+02 -0.22884012092E+02  0.81594531281E+02  0.00000000000E+00 0. -1.
         22    1    3    3    0    0  0.46478807414E+02 -0.39680933956E+01 -0.13623226812E+03  0.14399741727E+03  0.00000000000E+00 0.  1.
         22    1    3    3    0    0 -0.76103000819E+02 -0.59266943845E+02 -0.30308594459E+03  0.31806497320E+03  0.00000000000E+00 0.  1.
</event>
<event>
 7    1  0.6188600E-006  0.2197472E+03  0.7818608E-02  0.1216834E+00
          2   -1    0    0  502    0  0.00000000000E+00  0.00000000000E+00  0.16498473479E+04  0.16498473479E+04  0.00000000000E+00 0. -1.
          1   -1    0    0  501    0 -0.00000000000E+00 -0.00000000000E+00 -0.13235295054E+03  0.13235295054E+03  0.00000000000E+00 0. -1.
         25    2    1    2    0    0 -0.11805155702E+03 -0.93726995800E+02  0.17061012652E+03  0.25971929184E+03  0.12500150170E+03 0.  0.
          2    1    1    2  501    0 -0.78308492927E+02 -0.35415533342E+02 -0.54340946220E+02  0.10168293123E+03  0.00000000000E+00 0. -1.
          1    1    1    2  502    0  0.19636004995E+03  0.12914252914E+03  0.14012252171E+04  0.14207980754E+04  0.00000000000E+00 0. -1.
         22    1    3    3    0    0 -0.75026497591E+02 -0.10558570428E+03  0.64694609329E+02  0.14478504331E+03  0.00000000000E+00 0.  1.
         22    1    3    3    0    0 -0.43025059429E+02  0.11858708478E+02  0.10591551719E+03  0.11493424854E+03  0.00000000000E+00 0.  1.
</event>
<event>
 7    1  0.6188600E-006  0.6546715E+02  0.7818608E-02  0.1403214E+00
          2   -1    0    0  502    0  0.00000000000E+00  0.00000000000E+00  0.15036387132E+04  0.15036387132E+04  0.00000000000E+00 0. -1.
          1   -1    0    0  501    0 -0.00000000000E+00 -0.00000000000E+00 -0.30581470834E+02  0.30581470834E+02  0.00000000000E+00 0. -1.
         25    2    1    2    0    0  0.10269482405E+03 -0.20158366561E+02  0.40943753876E+03  0.44070030073E+03  0.12500028117E+03 0.  0.
          2    1    1    2  501    0 -0.51309609513E+02  0.31842407397E+02  0.49638580805E+02  0.78170350143E+02  0.00000000000E+00 0. -1.
          1    1    1    2  502    0 -0.51385214540E+02 -0.11684040836E+02  0.10139811228E+04  0.10153495332E+04  0.00000000000E+00 0. -1.
         22    1    3    3    0    0 -0.27577107913E+02 -0.14257260944E+02  0.10538942559E+03  0.10986672562E+03  0.00000000000E+00 0. -1.
         22    1    3    3    0    0  0.13027193197E+03 -0.59011056172E+01  0.30404811317E+03  0.33083357512E+03  0.00000000000E+00 0. -1.
</event>
<event>
 7    1  0.6188600E-006  0.8784689E+02  0.7818608E-02  0.1340746E+00
          2   -1    0    0  502    0  0.00000000000E+00  0.00000000000E+00  0.88212211499E+03  0.88212211499E+03  0.00000000000E+00 0. -1.
          1   -1    0    0  501    0 -0.00000000000E+00 -0.00000000000E+00 -0.24958545342E+04  0.24958545342E+04  0.00000000000E+00 0. -1.
         25    2    1    2    0    0  0.98299666553E+02 -0.67938804439E+01  0.80674807498E+02  0.17845040176E+03  0.12500855998E+03 0.  0.
          2    1    1    2  501    0 -0.35401529570E+02 -0.55444246511E+02 -0.24439215803E+04  0.24448067456E+04  0.00000000000E+00 0. -1.
          1    1    1    2  502    0 -0.62898136983E+02  0.62238126955E+02  0.74951435362E+03  0.75471950178E+03  0.00000000000E+00 0. -1.
         22    1    3    3    0    0  0.27673808095E+02  0.25304774719E+02 -0.26663650744E+02  0.46012189136E+02  0.00000000000E+00 0. -1.
         22    1    3    3    0    0  0.70625858458E+02 -0.32098655163E+02  0.10733845824E+03  0.13243821263E+03  0.00000000000E+00 0. -1.
</event>
<event>
 7    1  0.6188600E-006  0.6267351E+02  0.7818608E-02  0.1501542E+00
          2   -1    0    0  502    0  0.00000000000E+00  0.00000000000E+00  0.47419036186E+03  0.47419036186E+03  0.00000000000E+00 0. -1.
          1   -1    0    0  501    0 -0.00000000000E+00 -0.00000000000E+00 -0.59996081811E+03  0.59996081811E+03  0.00000000000E+00 0. -1.
         25    2    1    2    0    0 -0.41550857764E+02 -0.42518861924E+02  0.14824236763E+03  0.20282012812E+03  0.12500350958E+03 0.  0.
          2    1    1    2  501    0  0.20203221041E+02 -0.17483946771E+02 -0.56895965039E+03  0.56958664162E+03  0.00000000000E+00 0. -1.
          1    1    1    2  502    0  0.21347636723E+02  0.60002808695E+02  0.29494682651E+03  0.30174441024E+03  0.00000000000E+00 0. -1.
         22    1    3    3    0    0 -0.79026538605E+01  0.26202107809E+02 -0.82825613908E+01  0.28593761818E+02  0.00000000000E+00 0. -1.
         22    1    3    3    0    0 -0.33648203904E+02 -0.68720969734E+02  0.15652492902E+03  0.17422636630E+03  0.00000000000E+00 0. -1.
</event>
<event>
 7    1  0.6188600E-006  0.5004883E+02  0.7818608E-02  0.1497735E+00
          2   -1    0    0  502    0  0.00000000000E+00  0.00000000000E+00  0.54605905208E+02  0.54605905208E+02  0.00000000000E+00 0. -1.
          1   -1    0    0  501    0 -0.00000000000E+00 -0.00000000000E+00 -0.92156710131E+03  0.92156710131E+03  0.00000000000E+00 0. -1.
         25    2    1    2    0    0  0.31539432920E+02  0.10823448922E+02 -0.13879936354E+03  0.18973048690E+03  0.12498204457E+03 0.  0.
          2    1    1    2  501    0  0.19024977626E+02 -0.28594054623E+02 -0.73191003034E+03  0.73271540331E+03  0.00000000000E+00 0. -1.
          1    1    1    2  502    0 -0.50564410545E+02  0.17770605701E+02  0.37481977706E+01  0.53727116313E+02  0.00000000000E+00 0. -1.
         22    1    3    3    0    0  0.64832887934E+02  0.54246934188E+01 -0.22818699500E+02  0.68945077441E+02  0.00000000000E+00 0.  1.
         22    1    3    3    0    0 -0.33293455015E+02  0.53987555033E+01 -0.11598066404E+03  0.12078540946E+03  0.00000000000E+00 0.  1.
</event>
<event>
 7    1  0.6188600E-006  0.6941504E+02  0.7818608E-02  0.1424687E+00
          2   -1    0    0  502    0  0.00000000000E+00  0.00000000000E+00  0.15417485191E+03  0.15417485191E+03  0.00000000000E+00 0. -1.
          1   -1    0    0  501    0 -0.00000000000E+00 -0.00000000000E+00 -0.14033409746E+04  0.14033409746E+04  0.00000000000E+00 0. -1.
         25    2    1    2    0    0  0.48553234892E+02  0.93785431693E+02 -0.10706639061E+04  0.10830969574E+04  0.12499878191E+03 0.  0.
          2    1    1    2  501    0 -0.32710846675E+02 -0.26459512275E+02 -0.31691064230E+03  0.31969119550E+03  0.00000000000E+00 0. -1.
          1    1    1    2  502    0 -0.15842388217E+02 -0.67325919418E+02  0.13840842568E+03  0.15472767364E+03  0.00000000000E+00 0. -1.
         22    1    3    3    0    0  0.27691499318E+02  0.11850855183E+03 -0.96353891235E+03  0.97119428108E+03  0.00000000000E+00 0.  1.
         22    1    3    3    0    0  0.20861735574E+02 -0.24723120136E+02 -0.10712499373E+03  0.11190267629E+03  0.00000000000E+00 0.  1.
</event>
<event>
 7    1  0.6188600E-006  0.1128255E+03  0.7818608E-02  0.1291249E+00
          2   -1    0    0  502    0  0.00000000000E+00  0.00000000000E+00  0.20194529764E+04  0.20194529764E+04  0.00000000000E+00 0. -1.
          1   -1    0    0  501    0 -0.00000000000E+00 -0.00000000000E+00 -0.35392200424E+03  0.35392200424E+03  0.00000000000E+00 0. -1.
         25    2    1    2    0    0  0.15244356906E+02  0.82252697504E+02  0.51541525067E+03  0.53691213589E+03  0.12499545744E+03 0.  0.
          2    1    1    2  501    0  0.63792054844E+02 -0.94212911925E+02 -0.33263658733E+03  0.35155738971E+03  0.00000000000E+00 0. -1.
          1    1    1    2  502    0 -0.79036411750E+02  0.11960214421E+02  0.14827523088E+04  0.14849054551E+04  0.00000000000E+00 0. -1.
         22    1    3    3    0    0  0.57369756323E+02 -0.42879969055E+00  0.21183332506E+03  0.21946487285E+03  0.00000000000E+00 0. -1.
         22    1    3    3    0    0 -0.42125399417E+02  0.82681497195E+02  0.30358192561E+03  0.31744726304E+03  0.00000000000E+00 0. -1.
</event>
<event>
 7    1  0.6188600E-006  0.8008184E+02  0.7818608E-02  0.1385034E+00
          2   -1    0    0  502    0  0.00000000000E+00  0.00000000000E+00  0.16408058026E+04  0.16408058026E+04  0.00000000000E+00 0. -1.
          1   -1    0    0  501    0 -0.00000000000E+00 -0.00000000000E+00 -0.25749720427E+04  0.25749720427E+04  0.00000000000E+00 0. -1.
         25    2    1    2    0    0  0.95058549507E+02 -0.34893255359E+02  0.91101452208E+03  0.92510847837E+03  0.12499828079E+03 0.  0.
          2    1    1    2  501    0 -0.52375398082E+02  0.60572212853E+02 -0.25664415796E+04  0.25676905103E+04  0.00000000000E+00 0. -1.
          1    1    1    2  502    0 -0.42683151424E+02 -0.25678957494E+02  0.72126081748E+03  0.72297885661E+03  0.00000000000E+00 0. -1.
         22    1    3    3    0    0 -0.28688662094E+02  0.64337873827E+01  0.21118329472E+03  0.21322011379E+03  0.00000000000E+00 0.  1.
         22    1    3    3    0    0  0.12374721160E+03 -0.41327042742E+02  0.69983122736E+03  0.71188836458E+03  0.00000000000E+00 0.  1.
</event>
<event>
 7    1  0.6188600E-006  0.3925681E+02  0.7818608E-02  0.1567962E+00
          2   -1    0    0  502    0  0.00000000000E+00  0.00000000000E+00  0.70730788064E+01  0.70730788064E+01  0.00000000000E+00 0. -1.
          1   -1    0    0  501    0 -0.00000000000E+00 -0.00000000000E+00 -0.14683573358E+04  0.14683573358E+04  0.00000000000E+00 0. -1.
         25    2    1    2    0    0  0.11771596940E+02 -0.47555462792E+02 -0.11036576999E+04  0.11117940425E+04  0.12500232725E+03 0.  0.
          2    1    1    2  501    0  0.12680583443E+02  0.34769866296E+02 -0.16921905311E+03  0.17321901955E+03  0.00000000000E+00 0. -1.
          1    1    1    2  502    0 -0.24452180382E+02  0.12785596496E+02 -0.18840750399E+03  0.19041735257E+03  0.00000000000E+00 0. -1.
         22    1    3    3    0    0 -0.48226367110E+02 -0.45161845083E+02 -0.76555236838E+03  0.76839820632E+03  0.00000000000E+00 0. -1.
         22    1    3    3    0    0  0.59997964050E+02 -0.23936177093E+01 -0.33810533155E+03  0.34339583620E+03  0.00000000000E+00 0. -1.
</event>
<event>
 7    1  0.6188600E-006  0.7987589E+02  0.7818608E-02  0.1419614E+00
          2   -1    0    0  502    0  0.00000000000E+00  0.00000000000E+00  0.11962902094E+03  0.11962902094E+03  0.00000000000E+00 0. -1.
          1   -1    0    0  501    0 -0.00000000000E+00 -0.00000000000E+00 -0.69468928500E+03  0.69468928500E+03  0.00000000000E+00 0. -1.
         25    2    1    2    0    0 -0.41259522191E+02  0.18289846021E+02 -0.38163491019E+03  0.40411186220E+03  0.12499730339E+03 0.  0.
          2    1    1    2  501    0 -0.38011155924E+02 -0.36575291538E+00 -0.28514068265E+03  0.28766332865E+03  0.00000000000E+00 0. -1.
          1    1    1    2  502    0  0.79270678114E+02 -0.17924093105E+02  0.91715328785E+02  0.12254311509E+03  0.00000000000E+00 0. -1.
         22    1    3    3    0    0 -0.32701420493E+02  0.57325824945E+02 -0.34021114339E+03  0.34655339444E+03  0.00000000000E+00 0.  1.
         22    1    3    3    0    0 -0.85581016977E+01 -0.39035978924E+02 -0.41423766798E+02  0.57558467761E+02  0.00000000000E+00 0.  1.
</event>
<event>
 7    1  0.6188600E-006  0.7743244E+02  0.7818608E-02  0.1483012E+00
          2   -1    0    0  502    0  0.00000000000E+00  0.00000000000E+00  0.77914753047E+03  0.77914753047E+03  0.00000000000E+00 0. -1.
          1   -1    0    0  501    0 -0.00000000000E+00 -0.00000000000E+00 -0.19759438948E+03  0.19759438948E+03  0.00000000000E+00 0. -1.
         25    2    1    2    0    0 -0.50413724878E+02 -0.54709927316E+02  0.18692704393E+03  0.23685645468E+03  0.12499816225E+03 0.  0.
          2    1    1    2  501    0  0.31874146139E+02  0.70872381385E+02 -0.16359976456E+03  0.18111802395E+03  0.00000000000E+00 0. -1.
          1    1    1    2  502    0  0.18539578740E+02 -0.16162454070E+02  0.55822586162E+03  0.55876744133E+03  0.00000000000E+00 0. -1.
         22    1    3    3    0    0 -0.30620195202E+01 -0.61316230124E+02  0.17790803950E+03  0.18820288669E+03  0.00000000000E+00 0. -1.
         22    1    3    3    0    0 -0.47351705358E+02  0.66063028087E+01  0.90190044332E+01  0.48653567989E+02  0.00000000000E+00 0. -1.
</event>
<event>
 7    1  0.6188600E-006  0.8452009E+02  0.7818608E-02  0.1319014E+00
          2   -1    0    0  502    0  0.00000000000E+00  0.00000000000E+00  0.70587580497E+03  0.70587580497E+03  0.00000000000E+00 0. -1.
          1   -1    0    0  501    0 -0.00000000000E+00 -0.00000000000E+00 -0.41228919370E+03  0.41228919370E+03  0.00000000000E+00 0. -1.
         25    2    1    2    0    0  0.74121526826E+02  0.25769187899E+02  0.21897727238E+03  0.26407274629E+03  0.12500127092E+03 0.  0.
          2    1    1    2  501    0 -0.15659397720E+01 -0.82764421851E+02 -0.38066567588E+03  0.38956226522E+03  0.00000000000E+00 0. -1.
          1    1    1    2  502    0 -0.72555587054E+02  0.56995233952E+02  0.45527501477E+03  0.46452998717E+03  0.00000000000E+00 0. -1.
         22    1    3    3    0    0  0.96557873281E+02 -0.12407175387E+02  0.18192393499E+03  0.20633390176E+03  0.00000000000E+00 0.  1.
         22    1    3    3    0    0 -0.22436346456E+02  0.38176363287E+02  0.37053337395E+02  0.57738844534E+02  0.00000000000E+00 0.  1.
</event>
<event>
 7    1  0.6188600E-006  0.1234156E+03  0.7818608E-02  0.1279527E+00
          2   -1    0    0  502    0  0.00000000000E+00  0.00000000000E+00  0.82270026200E+03  0.82270026200E+03  0.00000000000E+00 0. -1.
          1   -1    0    0  501    0 -0.00000000000E+00 -0.00000000000E+00 -0.44196268360E+03  0.44196268360E+03  0.00000000000E+00 0. -1.
         25    2    1    2    0    0  0.70062416093E+02  0.19849341838E+02  0.40154953924E+02  0.15013331918E+03  0.12499941874E+03 0.  0.
          2    1    1    2  501    0  0.12577223346E+02  0.80647255216E+02 -0.37675120636E+03  0.38549142379E+03  0.00000000000E+00 0. -1.
          1    1    1    2  502    0 -0.82639639440E+02 -0.10049659705E+03  0.71733383083E+03  0.72903820262E+03  0.00000000000E+00 0. -1.
         22    1    3    3    0    0  0.31723597407E+02 -0.32916684161E+02 -0.29736297709E+02  0.54535695925E+02  0.00000000000E+00 0. -1.
         22    1    3    3    0    0  0.38338818686E+02  0.52766025999E+02  0.69891251633E+02  0.95597623259E+02  0.00000000000E+00 0. -1.
</event>
<event>
 7    1  0.6188600E-006  0.1476443E+03  0.7818608E-02  0.1367719E+00
          2   -1    0    0  502    0  0.00000000000E+00  0.00000000000E+00  0.40985835686E+03  0.40985835686E+03  0.00000000000E+00 0. -1.
          1   -1    0    0  501    0 -0.00000000000E+00 -0.00000000000E+00 -0.55937848844E+03  0.55937848844E+03  0.00000000000E+00 0. -1.
         25    2    1    2    0    0 -0.14976253155E+03  0.86945848173E+02 -0.14046834175E+03  0.25562433900E+03  0.12499620508E+03 0.  0.
          2    1    1    2  501    0  0.31047587681E+02 -0.23900369487E+01 -0.34552666361E+03  0.34692699556E+03  0.00000000000E+00 0. -1.
          1    1    1    2  502    0  0.11871494386E+03 -0.84555811225E+02  0.33647487378E+03  0.36668551075E+03  0.00000000000E+00 0. -1.
         22    1    3    3    0    0 -0.10932425021E+03  0.11736866103E+03 -0.88951756876E+02  0.18341103928E+03  0.00000000000E+00 0.  1.
         22    1    3    3    0    0 -0.40438281336E+02 -0.30422812861E+02 -0.51516584872E+02  0.72213299722E+02  0.00000000000E+00 0.  1.
</event>
<event>
 7    1  0.6188600E-006  0.1287355E+03  0.7818608E-02  0.1292912E+00
          2   -1    0    0  502    0  0.00000000000E+00  0.00000000000E+00  0.25994709712E+02  0.25994709712E+02  0.00000000000E+00 0. -1.
          1   -1    0    0  501    0 -0.00000000000E+00 -0.00000000000E+00 -0.36631226323E+04  0.36631226323E+04  0.00000000000E+00 0. -1.
         25    2    1    2    0    0 -0.87622114222E+02  0.12306114307E+03 -0.15189007455E+04  0.15315033806E+04  0.12498580033E+03 0.  0.
          2    1    1    2  501    0  0.11131604380E+03 -0.58279775551E+02 -0.20691420452E+04  0.20729535926E+04  0.00000000000E+00 0. -1.
          1    1    1    2  502    0 -0.23693929580E+02 -0.64781367520E+02 -0.49085131915E+02  0.84660368838E+02  0.00000000000E+00 0. -1.
         22    1    3    3    0    0 -0.55439131873E+02  0.67275155202E+02 -0.34520743917E+03  0.35604440721E+03  0.00000000000E+00 0. -1.
         22    1    3    3    0    0 -0.32182982349E+02  0.55785987868E+02 -0.11736933064E+04  0.11754589734E+04  0.00000000000E+00 0. -1.
</event>
<event>
 7    1  0.6188600E-006  0.1029941E+03  0.7818608E-02  0.1358855E+00
          2   -1    0    0  502    0  0.00000000000E+00  0.00000000000E+00  0.58740424905E+02  0.58740424905E+02  0.00000000000E+00 0. -1.
          1   -1    0    0  501    0 -0.00000000000E+00 -0.00000000000E+00 -0.13226649880E+04  0.13226649880E+04  0.00000000000E+00 0. -1.
         25    2    1    2    0    0 -0.33397464697E+02  0.11253256839E+03 -0.81312627785E+03  0.83101034574E+03  0.12499952565E+03 0.  0.
          2    1    1    2  501    0 -0.33408165639E+02 -0.34568001858E+02 -0.44496872534E+03  0.44755806195E+03  0.00000000000E+00 0. -1.
          1    1    1    2  502    0  0.66805630336E+02 -0.77964566527E+02 -0.58295599387E+01  0.10283700524E+03  0.00000000000E+00 0. -1.
         22    1    3    3    0    0 -0.58993710726E+02  0.12606416262E+03 -0.72532356797E+03  0.73855718076E+03  0.00000000000E+00 0. -1.
         22    1    3    3    0    0  0.25596246029E+02 -0.13531594238E+02 -0.87802709882E+02  0.92453164986E+02  0.00000000000E+00 0. -1.
</event>
<event>
 7    1  0.6188600E-006  0.1162930E+03  0.7818608E-02  0.1404206E+00
          2   -1    0    0  502    0  0.00000000000E+00  0.00000000000E+00  0.11306059157E+04  0.11306059157E+04  0.00000000000E+00 0. -1.
          1   -1    0    0  501    0 -0.00000000000E+00 -0.00000000000E+00 -0.41263739844E+03  0.41263739844E+03  0.00000000000E+00 0. -1.
         25    2    1    2    0    0  0.43284825879E+02 -0.11435117097E+03 -0.17309195822E+02  0.17570542215E+03  0.12499208238E+03 0.  0.
          2    1    1    2  501    0  0.22723889238E+02  0.18709346835E+02 -0.31222471167E+03  0.31360912834E+03  0.00000000000E+00 0. -1.
          1    1    1    2  502    0 -0.66008715117E+02  0.95641824139E+02  0.10475024247E+04  0.10539287636E+04  0.00000000000E+00 0. -1.
         22    1    3    3    0    0  0.38343245733E+02 -0.11812424700E+03  0.30184040931E+02  0.12780695814E+03  0.00000000000E+00 0. -1.
         22    1    3    3    0    0  0.49415801454E+01  0.37730760266E+01 -0.47493236753E+02  0.47898464008E+02  0.00000000000E+00 0. -1.
</event>
<event>
 7    1  0.6188600E-006  0.6361750E+02  0.7818608E-02  0.1423790E+00
          2   -1    0    0  502    0  0.00000000000E+00  0.00000000000E+00  0.32635001166E+03  0.32635001166E+03  0.00000000000E+00 0. -1.
          1   -1    0    0  501    0 -0.00000000000E+00 -0.00000000000E+00 -0.55739147497E+03  0.55739147497E+03  0.00000000000E+00 0. -1.
         25    2    1    2    0    0  0.67442675222E+02  0.85797067699E+02  0.76506631157E+02  0.18272407167E+03  0.12500068195E+03 0.  0.
          2    1    1    2  501    0 -0.39606856091E+02 -0.48895867246E+02 -0.49956657580E+03  0.50351392487E+03  0.00000000000E+00 0. -1.
          1    1    1    2  502    0 -0.27835819130E+02 -0.36901200453E+02  0.19201848134E+03  0.19750349009E+03  0.00000000000E+00 0. -1.
         22    1    3    3    0    0  0.18994841709E+02 -0.32577931609E+02  0.12743831433E+02  0.39806166345E+02  0.00000000000E+00 0. -1.
         22    1    3    3    0    0  0.48447833513E+02  0.11837499931E+03  0.63762799724E+02  0.14291790532E+03  0.00000000000E+00 0. -1.
</event>
<event>
 7    1  0.6188600E-006  0.1071561E+03  0.7818608E-02  0.1392046E+00
          2   -1    0    0  502    0  0.00000000000E+00  0.00000000000E+00  0.15793531132E+03  0.15793531132E+03  0.00000000000E+00 0. -1.
          1   -1    0    0  501    0 -0.00000000000E+00 -0.00000000000E+00 -0.21927713267E+04  0.21927713267E+04  0.00000000000E+00 0. -1.
         25    2    1    2    0    0  0.21335775895E+02 -0.83038264092E+02 -0.36096044140E+03  0.39149487095E+03  0.12500090035E+03 0.  0.
          2    1    1    2  501    0 -0.54259288682E+02  0.95442606238E+02 -0.18126882194E+04  0.18160098959E+04  0.00000000000E+00 0. -1.
          1    1    1    2  502    0  0.32923512787E+02 -0.12404342147E+02  0.13881264536E+03  0.14320187118E+03  0.00000000000E+00 0. -1.
         22    1    3    3    0    0  0.55277120517E+02  0.80840864317E+00 -0.87876688896E+02  0.10381968035E+03  0.00000000000E+00 0. -1.
         22    1    3    3    0    0 -0.33941344621E+02 -0.83846672735E+02 -0.27308375251E+03  0.28767519060E+03  0.00000000000E+00 0. -1.
</event>
<event>
 7    1  0.6188600E-006  0.7758804E+02  0.7818608E-02  0.1434944E+00
          2   -1    0    0  502    0  0.00000000000E+00  0.00000000000E+00  0.13281545136E+04  0.13281545136E+04  0.00000000000E+00 0. -1.
          1   -1    0    0  501    0 -0.00000000000E+00 -0.00000000000E+00 -0.31888144520E+02  0.31888144520E+02  0.00000000000E+00 0. -1.
         25    2    1    2    0    0  0.63877118467E+02 -0.28247671704E+02  0.22725641450E+03  0.26860364110E+03  0.12499688340E+03 0.  0.
          2    1    1    2  501    0  0.14677449986E+02  0.31580044444E+02  0.21381678325E+02  0.40864445588E+02  0.00000000000E+00 0. -1.
          1    1    1    2  502    0 -0.78554568453E+02 -0.33323727400E+01  0.10476282763E+04  0.10505745715E+04  0.00000000000E+00 0. -1.
         22    1    3    3    0    0 -0.28828659792E+02  0.22688906961E+02  0.70882107434E+02  0.79813227468E+02  0.00000000000E+00 0. -1.
         22    1    3    3    0    0  0.92705778259E+02 -0.50936578665E+02  0.15637430707E+03  0.18879041363E+03  0.00000000000E+00 0. -1.
</event>
<event>
 7    1  0.6188600E-006  0.1269726E+03  0.7818608E-02  0.1396380E+00
          2   -1    0    0  502    0  0.00000000000E+00  0.00000000000E+00  0.13990665904E+04  0.13990665904E+04  0.00000000000E+00 0. -1.
          1   -1    0    0  501    0 -0.00000000000E+00 -0.00000000000E+00 -0.77874517132E+03  0.77874517132E+03  0.00000000000E+00 0. -1.
         25    2    1    2    0    0 -0.85691845872E+02  0.10503694107E+03  0.18189018845E+03  0.25900756025E+03  0.12500009670E+03 0.  0.
          2    1    1    2  501    0 -0.12764099014E+02 -0.25685146100E+02 -0.73651480622E+03  0.73707306879E+03  0.00000000000E+00 0. -1.
          1    1    1    2  502    0  0.98455944886E+02 -0.79351794966E+02  0.11749460369E+04  0.11817311327E+04  0.00000000000E+00 0. -1.
         22    1    3    3    0    0 -0.57664241067E+02 -0.62343006773E+01  0.21628134952E+02  0.61901594683E+02  0.00000000000E+00 0. -1.
         22    1    3    3    0    0 -0.28027604805E+02  0.11127124174E+03  0.16026205350E+03  0.19710596556E+03  0.00000000000E+00 0. -1.
</event>
<event>
 7    1  0.6188600E-006  0.1153656E+03  0.7818608E-02  0.1395392E+00
          2   -1    0    0  502    0  0.00000000000E+00  0.00000000000E+00  0.16768758569E+04  0.16768758569E+04  0.00000000000E+00 0. -1.
          1   -1    0    0  501    0 -0.00000000000E+00 -0.00000000000E+00 -0.66250064852E+03  0.66250064852E+03  0.00000000000E+00 0. -1.
         25    2    1    2    0    0 -0.63567799019E+02 -0.12018925418E+03  0.93715269596E+03  0.95517827084E+03  0.12499612652E+03 0.  0.
          2    1    1    2  501    0  0.33310454747E+02  0.11035046678E+03 -0.64805333832E+03  0.65822484094E+03  0.00000000000E+00 0. -1.
          1    1    1    2  502    0  0.30257344272E+02  0.98387874064E+01  0.72527585074E+03  0.72597339365E+03  0.00000000000E+00 0. -1.
         22    1    3    3    0    0  0.11024496990E+01 -0.11742054847E+03  0.67601141602E+03  0.68613426906E+03  0.00000000000E+00 0.  1.
         22    1    3    3    0    0 -0.64670248718E+02 -0.27687057094E+01  0.26114127995E+03  0.26904400178E+03  0.00000000000E+00 0.  1.
</event>
<event>
 7    1  0.6188600E-006  0.7975587E+02  0.7818608E-02  0.1375084E+00
          2   -1    0    0  502    0  0.00000000000E+00  0.00000000000E+00  0.21899726136E+04  0.21899726136E+04  0.00000000000E+00 0. -1.
          1   -1    0    0  501    0 -0.00000000000E+00 -0.00000000000E+00 -0.61394208942E+03  0.61394208942E+03  0.00000000000E+00 0. -1.
         25    2    1    2    0    0  0.73708419302E+02  0.10200408245E+03 -0.11538383443E+03  0.21160158675E+03  0.12499615336E+03 0.  0.
          2    1    1    2  501    0 -0.58350754842E+02 -0.49980717992E+02 -0.44682681496E+03  0.45338403735E+03  0.00000000000E+00 0. -1.
          1    1    1    2  502    0 -0.15357664460E+02 -0.52023364456E+02  0.21382411735E+04  0.21389290789E+04  0.00000000000E+00 0. -1.
         22    1    3    3    0    0  0.32676196359E+02  0.12214339666E+03 -0.10587944333E+03  0.16491573507E+03  0.00000000000E+00 0.  1.
         22    1    3    3    0    0  0.41032222943E+02 -0.20139314211E+02 -0.95043911021E+01  0.46685851677E+02  0.00000000000E+00 0.  1.
</event>
<event>
 7    1  0.6188600E-006  0.2484405E+03  0.7818608E-02  0.1115301E+00
          2   -1    0    0  502    0  0.00000000000E+00  0.00000000000E+00  0.17281261593E+04  0.17281261593E+04  0.00000000000E+00 0. -1.
          1   -1    0    0  501    0 -0.00000000000E+00 -0.00000000000E+00 -0.51750283532E+03  0.51750283532E+03  0.00000000000E+00 0. -1.
         25    2    1    2    0    0 -0.18378407859E+02 -0.67621816990E+02 -0.23633142343E+02  0.14523933928E+03  0.12500185698E+03 0.  0.
          2    1    1    2  501    0 -0.24430866988E+03 -0.22057439097E+02 -0.38555109517E+03  0.45697144745E+03  0.00000000000E+00 0. -1.
          1    1    1    2  502    0  0.26268707774E+03  0.89679256087E+02  0.16198075615E+04  0.16434182079E+04  0.00000000000E+00 0. -1.
         22    1    3    3    0    0 -0.39753850942E+02  0.78865315597E+01  0.29795364284E+02  0.50302383418E+02  0.00000000000E+00 0.  1.
         22    1    3    3    0    0  0.21375443083E+02 -0.75508348550E+02 -0.53428506627E+02  0.94936955861E+02  0.00000000000E+00 0.  1.
</event>
<event>
 7    1  0.6188600E-006  0.1662804E+03  0.7818608E-02  0.1290953E+00
          2   -1    0    0  502    0  0.00000000000E+00  0.00000000000E+00  0.68702501937E+03  0.68702501937E+03  0.00000000000E+00 0. -1.
          1   -1    0    0  501    0 -0.00000000000E+00 -0.00000000000E+00 -0.77528640292E+02  0.77528640292E+02  0.00000000000E+00 0. -1.
         25    2    1    2    0    0 -0.39874582671E+02 -0.18365877365E+03  0.40498106889E+03  0.46363160975E+03  0.12499630362E+03 0.  0.
          2    1    1    2  501    0  0.72349179942E+02  0.14002853732E+03  0.18523441703E+03  0.24321633242E+03  0.00000000000E+00 0. -1.
          1    1    1    2  502    0 -0.32474597272E+02  0.43630236328E+02  0.19280893157E+02  0.57705717489E+02  0.00000000000E+00 0. -1.
         22    1    3    3    0    0 -0.66646267572E+02 -0.50352737438E+02  0.10420613187E+03  0.13355164195E+03  0.00000000000E+00 0. -1.
         22    1    3    3    0    0  0.26771684901E+02 -0.13330603621E+03  0.30077493702E+03  0.33007996780E+03  0.00000000000E+00 0. -1.
</event>
<event>
 7    1  0.6188600E-006  0.1488000E+03  0.7818608E-02  0.1377258E+00
          2   -1    0    0  502    0  0.00000000000E+00  0.00000000000E+00  0.15151638071E+04  0.15151638071E+04  0.00000000000E+00 0. -1.
          1   -1    0    0  501    0 -0.00000000000E+00 -0.00000000000E+00 -0.57790334968E+02  0.57790334968E+02  0.00000000000E+00 0. -1.
         25    2    1    2    0    0  0.94999710970E+01 -0.16052435051E+03  0.44997799339E+03  0.49392588108E+03  0.12499705961E+03 0.  0.
          2    1    1    2  501    0 -0.31303434772E+02  0.14207732392E+03  0.11309664818E+03  0.18427350008E+03  0.00000000000E+00 0. -1.
          1    1    1    2  502    0  0.21803463676E+02  0.18447026584E+02  0.89429883054E+03  0.89475476088E+03  0.00000000000E+00 0. -1.
         22    1    3    3    0    0  0.22833040393E+02 -0.17085200105E+03  0.32561799584E+03  0.36842751419E+03  0.00000000000E+00 0.  1.
         22    1    3    3    0    0 -0.13333069296E+02  0.10327650541E+02  0.12435999755E+03  0.12549836690E+03  0.00000000000E+00 0.  1.
</event>
<event>
 7    1  0.6188600E-006  0.3772797E+02  0.7818608E-02  0.1542386E+00
          2   -1    0    0  502    0  0.00000000000E+00  0.00000000000E+00  0.75892033163E+01  0.75892033163E+01  0.00000000000E+00 0. -1.
          1   -1    0    0  501    0 -0.00000000000E+00 -0.00000000000E+00 -0.15429421699E+04  0.15429421699E+04  0.00000000000E+00 0. -1.
         25    2    1    2    0    0  0.26138718668E+02 -0.10688302401E+02 -0.84007392134E+03  0.84979235401E+03  0.12500151678E+03 0.  0.
          2    1    1    2  501    0 -0.25745628967E+02 -0.27578293900E+02 -0.51822234386E+03  0.51959387735E+03  0.00000000000E+00 0. -1.
          1    1    1    2  502    0 -0.39308970101E+00  0.38266596301E+02 -0.17705670134E+03  0.18114514181E+03  0.00000000000E+00 0. -1.
         22    1    3    3    0    0  0.28478519958E+02  0.17359391132E+01 -0.37505330240E+02  0.47124191028E+02  0.00000000000E+00 0. -1.
         22    1    3    3    0    0 -0.23398012898E+01 -0.12424241514E+02 -0.80256859110E+03  0.80266816298E+03  0.00000000000E+00 0. -1.
</event>
<event>
 7    1  0.6188600E-006  0.9336013E+02  0.7818608E-02  0.1420308E+00
          2   -1    0    0  502    0  0.00000000000E+00  0.00000000000E+00  0.22478705602E+03  0.22478705602E+03  0.00000000000E+00 0. -1.
          1   -1    0    0  501    0 -0.00000000000E+00 -0.00000000000E+00 -0.22028105814E+04  0.22028105814E+04  0.00000000000E+00 0. -1.
         25    2    1    2    0    0  0.38456587348E+02 -0.97411328804E+02 -0.10567358433E+03  0.19431691964E+03  0.12499713094E+03 0.  0.
          2    1    1    2  501    0  0.20064806868E+02  0.25374804843E+02 -0.20407456011E+04  0.20410019808E+04  0.00000000000E+00 0. -1.
          1    1    1    2  502    0 -0.58521394216E+02  0.72036523961E+02  0.16839566006E+03  0.19227873698E+03  0.00000000000E+00 0. -1.
         22    1    3    3    0    0  0.22167501065E+02 -0.11086108851E+03 -0.31742673442E+02  0.11742732377E+03  0.00000000000E+00 0. -1.
         22    1    3    3    0    0  0.16289086283E+02  0.13449759711E+02 -0.73930910886E+02  0.76889595868E+02  0.00000000000E+00 0. -1.
</event>
<event>
 7    1  0.6188600E-006  0.9547316E+02  0.7818608E-02  0.1356391E+00
          2   -1    0    0  502    0  0.00000000000E+00  0.00000000000E+00  0.26495525190E+03  0.26495525190E+03  0.00000000000E+00 0. -1.
          1   -1    0    0  501    0 -0.00000000000E+00 -0.00000000000E+00 -0.38414655278E+03  0.38414655278E+03  0.00000000000E+00 0. -1.
         25    2    1    2    0    0 -0.11272286631E+03 -0.45873019783E+02 -0.96529046076E+02  0.19937656981E+03  0.12498952484E+03 0.  0.
          2    1    1    2  501    0  0.63983763071E+02  0.66564493809E+02 -0.22360823093E+03  0.24192022386E+03  0.00000000000E+00 0. -1.
          1    1    1    2  502    0  0.48739103239E+02 -0.20691474026E+02  0.20094597612E+03  0.20780501101E+03  0.00000000000E+00 0. -1.
         22    1    3    3    0    0 -0.81529670316E+02  0.32409311870E+02 -0.32572930242E+02  0.93586571805E+02  0.00000000000E+00 0.  1.
         22    1    3    3    0    0 -0.31193195994E+02 -0.78282331652E+02 -0.63956115835E+02  0.10578999801E+03  0.00000000000E+00 0.  1.
</event>
<event>
 7    1  0.6188600E-006  0.5622038E+02  0.7818608E-02  0.1558591E+00
          2   -1    0    0  502    0  0.00000000000E+00  0.00000000000E+00  0.56280342057E+03  0.56280342057E+03  0.00000000000E+00 0. -1.
          1   -1    0    0  501    0 -0.00000000000E+00 -0.00000000000E+00 -0.25843828510E+03  0.25843828510E+03  0.00000000000E+00 0. -1.
         25    2    1    2    0    0 -0.28388373015E+02 -0.28320113662E+02  0.26131086033E+02  0.13385227171E+03  0.12500267366E+03 0.  0.
          2    1    1    2  501    0 -0.67823320895E+00 -0.20429957931E+02 -0.20239303217E+03  0.20342266996E+03  0.00000000000E+00 0. -1.
          1    1    1    2  502    0  0.29066606224E+02  0.48750071593E+02  0.48062708162E+03  0.48396676400E+03  0.00000000000E+00 0. -1.
         22    1    3    3    0    0 -0.19755003569E+02  0.33024110538E+02 -0.31127153519E+02  0.49494966704E+02  0.00000000000E+00 0.  1.
         22    1    3    3    0    0 -0.86333694462E+01 -0.61344224200E+02  0.57258239552E+02  0.84357305002E+02  0.00000000000E+00 0.  1.
</event>
<event>
 7    1  0.6188600E-006  0.1697501E+03  0.7818608E-02  0.1260373E+00
          2   -1    0    0  502    0  0.00000000000E+00  0.00000000000E+00  0.14651679977E+04  0.14651679977E+04  0.00000000000E+00 0. -1.
          1   -1    0    0  501    0 -0.00000000000E+00 -0.00000000000E+00 -0.55458962364E+03  0.55458962364E+03  0.00000000000E+00 0. -1.
         25    2    1    2    0    0 -0.14085224225E+03 -0.66447115642E+01  0.16949351720E+03  0.25344914549E+03  0.12499964256E+03 0.  0.
          2    1    1    2  501    0  0.16102843093E+03 -0.61865272306E+02 -0.49704087742E+03  0.52612460626E+03  0.00000000000E+00 0. -1.
          1    1    1    2  502    0 -0.20176188686E+02  0.68509983871E+02  0.12381257343E+04  0.12401838696E+04  0.00000000000E+00 0. -1.
         22    1    3    3    0    0 -0.14451569796E+03 -0.43515479810E+02  0.14288034612E+03  0.20782968326E+03  0.00000000000E+00 0. -1.
         22    1    3    3    0    0  0.36634557098E+01  0.36870768246E+02  0.26613171078E+02  0.45619462224E+02  0.00000000000E+00 0. -1.
</event>
<event>
 7    1  0.6188600E-006  0.8293004E+02  0.7818608E-02  0.1362790E+00
          2   -1    0    0  502    0  0.00000000000E+00  0.00000000000E+00  0.74488129019E+02  0.74488129019E+02  0.00000000000E+00 0. -1.
          1   -1    0    0  501    0 -0.00000000000E+00 -0.00000000000E+00 -0.34230054325E+03  0.34230054325E+03  0.00000000000E+00 0. -1.
         25    2    1    2    0    0 -0.70847814747E+02  0.56429510796E+01 -0.64116909949E+02  0.15743996982E+03  0.12500044081E+03 0.  0.
          2    1    1    2  501    0  0.72244466036E+02  0.52105060764E+02 -0.17141305513E+03  0.19317514255E+03  0.00000000000E+00 0. -1.
          1    1    1    2  502    0 -0.13966512897E+01 -0.57748011843E+02 -0.32282449152E+02  0.66173559901E+02  0.00000000000E+00 0. -1.
         22    1    3    3    0    0 -0.24660597624E+02 -0.16478623150E+02  0.34998733344E+02  0.45875935214E+02  0.00000000000E+00 0.  1.
         22    1    3    3    0    0 -0.46187217123E+02  0.22121574230E+02 -0.99115643292E+02  0.11156403460E+03  0.00000000000E+00 0.  1.
</event>
<event>
 7    1  0.6188600E-006  0.1572421E+03  0.7818608E-02  0.1226550E+00
          2   -1    0    0  502    0  0.00000000000E+00  0.00000000000E+00  0.11289699971E+04  0.11289699971E+04  0.00000000000E+00 0. -1.
          1   -1    0    0  501    0 -0.00000000000E+00 -0.00000000000E+00 -0.40706967184E+03  0.40706967184E+03  0.00000000000E+00 0. -1.
         25    2    1    2    0    0 -0.23972348965E+03 -0.92393418880E+01  0.16561061752E+03  0.31718250820E+03  0.12500059977E+03 0.  0.
          2    1    1    2  501    0  0.14159003023E+03  0.55503407646E+02 -0.31026751241E+03  0.34553479446E+03  0.00000000000E+00 0. -1.
          1    1    1    2  502    0  0.98133459418E+02 -0.46264065758E+02  0.86655722013E+03  0.87332236626E+03  0.00000000000E+00 0. -1.
         22    1    3    3    0    0 -0.23098219816E+03  0.94276890530E+01  0.17919741355E+03  0.29249507724E+03  0.00000000000E+00 0.  1.
         22    1    3    3    0    0 -0.87412914915E+01 -0.18667030941E+02 -0.13586796028E+02  0.24687430960E+02  0.00000000000E+00 0.  1.
</event>
<event>
 7    1  0.6188600E-006  0.3685846E+02  0.7818608E-02  0.1546240E+00
          2   -1    0    0  502    0  0.00000000000E+00  0.00000000000E+00  0.11805950614E+04  0.11805950614E+04  0.00000000000E+00 0. -1.
          1   -1    0    0  501    0 -0.00000000000E+00 -0.00000000000E+00 -0.17244840051E+03  0.17244840051E+03  0.00000000000E+00 0. -1.
         25    2    1    2    0    0  0.52698692382E+02 -0.90499336715E+01  0.10963879222E+02  0.13639209440E+03  0.12499417302E+03 0.  0.
          2    1    1    2  501    0 -0.32085523552E+02 -0.17667224412E+02 -0.10641269816E+03  0.11254009939E+03  0.00000000000E+00 0. -1.
          1    1    1    2  502    0 -0.20613168831E+02  0.26717158084E+02  0.11035954799E+04  0.11041112681E+04  0.00000000000E+00 0. -1.
         22    1    3    3    0    0  0.36518084776E+02 -0.66698470859E+02  0.46347824398E+01  0.76182266564E+02  0.00000000000E+00 0.  1.
         22    1    3    3    0    0  0.16180607606E+02  0.57648537187E+02  0.63290967827E+01  0.60209827839E+02  0.00000000000E+00 0.  1.
</event>
<event>
 7    1  0.6188600E-006  0.1277001E+03  0.7818608E-02  0.1323215E+00
          2   -1    0    0  502    0  0.00000000000E+00  0.00000000000E+00  0.17788564348E+04  0.17788564348E+04  0.00000000000E+00 0. -1.
          1   -1    0    0  501    0 -0.00000000000E+00 -0.00000000000E+00 -0.45085106752E+03  0.45085106752E+03  0.00000000000E+00 0. -1.
         25    2    1    2    0    0  0.11133769384E+03  0.75894537030E+02 -0.15975090522E+03  0.24351923013E+03  0.12500080361E+03 0.  0.
          2    1    1    2  501    0 -0.12545682564E+03 -0.25044423278E+02 -0.23236648612E+03  0.26525614434E+03  0.00000000000E+00 0. -1.
          1    1    1    2  502    0  0.14119131801E+02 -0.50850113751E+02  0.17201227586E+04  0.17209321279E+04  0.00000000000E+00 0. -1.
         22    1    3    3    0    0  0.23082682788E+02  0.71128774839E+02 -0.13052475942E+03  0.15042880600E+03  0.00000000000E+00 0. -1.
         22    1    3    3    0    0  0.88255011051E+02  0.47657621913E+01 -0.29226145803E+02  0.93090424123E+02  0.00000000000E+00 0. -1.
</event>
<event>
 7    1  0.6188600E-006  0.5389844E+02  0.7818608E-02  0.1437528E+00
          2   -1    0    0  502    0  0.00000000000E+00  0.00000000000E+00  0.21861507556E+03  0.21861507556E+03  0.00000000000E+00 0. -1.
          1   -1    0    0  501    0 -0.00000000000E+00 -0.00000000000E+00 -0.34132404025E+03  0.34132404025E+03  0.00000000000E+00 0. -1.
         25    2    1    2    0    0 -0.82295871470E+02 -0.59482637353E+02  0.53989196221E+01  0.16112780971E+03  0.12498891199E+03 0.  0.
          2    1    1    2  501    0  0.42800264590E+02  0.30200487499E+02 -0.25625596129E+03  0.26155506073E+03  0.00000000000E+00 0. -1.
          1    1    1    2  502    0  0.39495606880E+02  0.29282149853E+02  0.12814807698E+03  0.13725624538E+03  0.00000000000E+00 0. -1.
         22    1    3    3    0    0 -0.70677047789E+01  0.36153107201E+02 -0.10772174250E+02  0.38380194752E+02  0.00000000000E+00 0. -1.
         22    1    3    3    0    0 -0.75228166691E+02 -0.95635744553E+02  0.16171093872E+02  0.12274761495E+03  0.00000000000E+00 0. -1.
</event>
<event>
 7    1  0.6188600E-006  0.1267794E+03  0.7818608E-02  0.1234557E+00
          2   -1    0    0  502    0  0.00000000000E+00  0.00000000000E+00  0.72380339362E+03  0.72380339362E+03  0.00000000000E+00 0. -1.
          1   -1    0    0  501    0 -0.00000000000E+00 -0.00000000000E+00 -0.36538189546E+03  0.36538189546E+03  0.00000000000E+00 0. -1.
         25    2    1    2    0    0 -0.61715332237E+02 -0.19747775242E+02  0.18537036069E+03  0.23277794390E+03  0.12499857474E+03 0.  0.
          2    1    1    2  501    0  0.10935587752E+02  0.13275722577E+03 -0.32074494116E+03  0.34730589594E+03  0.00000000000E+00 0. -1.
          1    1    1    2  502    0  0.50779744485E+02 -0.11300945053E+03  0.49379607862E+03  0.50910144924E+03  0.00000000000E+00 0. -1.
         22    1    3    3    0    0 -0.88678175052E+02 -0.46217439408E+02  0.15424643608E+03  0.18382555176E+03  0.00000000000E+00 0. -1.
         22    1    3    3    0    0  0.26962842815E+02  0.26469664166E+02  0.31123924607E+02  0.48952392145E+02  0.00000000000E+00 0. -1.
</event>
<event>
 7    1  0.6188600E-006  0.1596512E+03  0.7818608E-02  0.1357263E+00
          2   -1    0    0  502    0  0.00000000000E+00  0.00000000000E+00  0.99706319648E+03  0.99706319648E+03  0.00000000000E+00 0. -1.
          1   -1    0    0  501    0 -0.00000000000E+00 -0.00000000000E+00 -0.90381421311E+03  0.90381421311E+03  0.00000000000E+00 0. -1.
         25    2    1    2    0    0  0.10645263237E+03 -0.10661704961E+03  0.32436075976E+03  0.37885687538E+03  0.12499308517E+03 0.  0.
          2    1    1    2  501    0 -0.13265956454E+03  0.89262994311E+02 -0.86888425036E+03  0.88347398532E+03  0.00000000000E+00 0. -1.
          1    1    1    2  502    0  0.26206932162E+02  0.17354055303E+02  0.63777247398E+03  0.63854654889E+03  0.00000000000E+00 0. -1.
         22    1    3    3    0    0  0.11269398722E+03 -0.10603116612E+03  0.33357308946E+03  0.36771394990E+03  0.00000000000E+00 0.  1.
         22    1    3    3    0    0 -0.62413548470E+01 -0.58588349490E+00 -0.92123296932E+01  0.11142925476E+02  0.00000000000E+00 0.  1.
</event>
<event>
 7    1  0.6188600E-006  0.7243491E+02  0.7818608E-02  0.1362570E+00
          2   -1    0    0  502    0  0.00000000000E+00  0.00000000000E+00  0.14560947683E+04  0.14560947683E+04  0.00000000000E+00 0. -1.
          1   -1    0    0  501    0 -0.00000000000E+00 -0.00000000000E+00 -0.10549412359E+04  0.10549412359E+04  0.00000000000E+00 0. -1.
         25    2    1    2    0    0  0.79972964636E+02 -0.86739824051E+02  0.67501465653E+02  0.18466438317E+03  0.12500005759E+03 0.  0.
          2    1    1    2  501    0 -0.68870431670E+02  0.21420562449E+02 -0.99422748076E+03  0.99684013782E+03  0.00000000000E+00 0. -1.
          1    1    1    2  502    0 -0.11102532966E+02  0.65319261601E+02  0.13278795475E+04  0.13295314832E+04  0.00000000000E+00 0. -1.
         22    1    3    3    0    0  0.36695191494E+02 -0.78967250352E+01  0.85107752129E+02  0.93017336113E+02  0.00000000000E+00 0.  1.
         22    1    3    3    0    0  0.43277773142E+02 -0.78843099015E+02 -0.17606286476E+02  0.91647047055E+02  0.00000000000E+00 0.  1.
</event>
<event>
 7    1  0.6188600E-006  0.1898489E+03  0.7818608E-02  0.1191654E+00
          2   -1    0    0  502    0  0.00000000000E+00  0.00000000000E+00  0.39864982608E+03  0.39864982608E+03  0.00000000000E+00 0. -1.
          1   -1    0    0  501    0 -0.00000000000E+00 -0.00000000000E+00 -0.19850355165E+04  0.19850355165E+04  0.00000000000E+00 0. -1.
         25    2    1    2    0    0  0.14956253933E+02 -0.22371256192E+03 -0.81258816403E+03  0.85217094164E+03  0.12499915826E+03 0.  0.
          2    1    1    2  501    0 -0.11917276651E+03  0.14514921872E+03 -0.11334553505E+04  0.11489088196E+04  0.00000000000E+00 0. -1.
          1    1    1    2  502    0  0.10421651258E+03  0.78563343198E+02  0.35965782418E+03  0.38260558135E+03  0.00000000000E+00 0. -1.
         22    1    3    3    0    0  0.27880963972E+02 -0.28224879006E+02 -0.45074971794E+02  0.60047856158E+02  0.00000000000E+00 0.  1.
         22    1    3    3    0    0 -0.12924710040E+02 -0.19548768291E+03 -0.76751319224E+03  0.79212308549E+03  0.00000000000E+00 0.  1.
</event>
<event>
 7    1  0.6188600E-006  0.6377799E+02  0.7818608E-02  0.1403670E+00
          2   -1    0    0  502    0  0.00000000000E+00  0.00000000000E+00  0.75212961754E+03  0.75212961754E+03  0.00000000000E+00 0. -1.
          1   -1    0    0  501    0 -0.00000000000E+00 -0.00000000000E+00 -0.22542152858E+03  0.22542152858E+03  0.00000000000E+00 0. -1.
         25    2    1    2    0    0 -0.62928399560E+02 -0.93009055835E+02  0.33220081648E+03  0.37228091997E+03  0.12500013186E+03 0.  0.
          2    1    1    2  501    0  0.32606297944E+02  0.42917276670E+02 -0.19964485194E+03  0.20679248102E+03  0.00000000000E+00 0. -1.
          1    1    1    2  502    0  0.30322101616E+02  0.50091779165E+02  0.39415212441E+03  0.39847774513E+03  0.00000000000E+00 0. -1.
         22    1    3    3    0    0 -0.82161553110E+02 -0.16589952097E+02  0.12405686710E+03  0.14971924925E+03  0.00000000000E+00 0. -1.
         22    1    3    3    0    0  0.19233153550E+02 -0.76419103738E+02  0.20814394938E+03  0.22256167072E+03  0.00000000000E+00 0. -1.
</event>
<event>
 7    1  0.6188600E-006  0.1340726E+03  0.7818608E-02  0.1275948E+00
          2   -1    0    0  502    0  0.00000000000E+00  0.00000000000E+00  0.82465073132E+02  0.82465073132E+02  0.00000000000E+00 0. -1.
          1   -1    0    0  501    0 -0.00000000000E+00 -0.00000000000E+00 -0.25805886269E+04  0.25805886269E+04  0.00000000000E+00 0. -1.
         25    2    1    2    0    0 -0.15785822682E+03  0.72355240690E+02 -0.14575929006E+04  0.14732128919E+04  0.12499864091E+03 0.  0.
          2    1    1    2  501    0  0.12070328630E+03 -0.40610909399E+01 -0.10906649341E+04  0.10973312053E+04  0.00000000000E+00 0. -1.
          1    1    1    2  502    0  0.37154940516E+02 -0.68294149750E+02  0.50134280907E+02  0.92509602837E+02  0.00000000000E+00 0. -1.
         22    1    3    3    0    0  0.11169658396E+02  0.25770035787E+02 -0.86266166878E+02  0.90723247082E+02  0.00000000000E+00 0.  1.
         22    1    3    3    0    0 -0.16902788522E+03  0.46585204903E+02 -0.13713267337E+04  0.13824896448E+04  0.00000000000E+00 0.  1.
</event>
<event>
 7    1  0.6188600E-006  0.5446682E+02  0.7818608E-02  0.1436293E+00
          2   -1    0    0  502    0  0.00000000000E+00  0.00000000000E+00  0.11049412882E+03  0.11049412882E+03  0.00000000000E+00 0. -1.
          1   -1    0    0  501    0 -0.00000000000E+00 -0.00000000000E+00 -0.14986432197E+03  0.14986432197E+03  0.00000000000E+00 0. -1.
         25    2    1    2    0    0 -0.29269958016E+02 -0.56860059383E+01  0.29431336195E+01  0.12853812063E+03  0.12499730123E+03 0.  0.
          2    1    1    2  501    0  0.77572266976E+01  0.55724359861E+02 -0.51867379642E+02  0.76521917899E+02  0.00000000000E+00 0. -1.
          1    1    1    2  502    0  0.21512731318E+02 -0.50038353923E+02  0.95540528774E+01  0.55298412260E+02  0.00000000000E+00 0. -1.
         22    1    3    3    0    0  0.39429642640E+02  0.30530575700E+02 -0.65599243409E+01  0.50297568317E+02  0.00000000000E+00 0. -1.
         22    1    3    3    0    0 -0.68699600656E+02 -0.36216581638E+02  0.95030579604E+01  0.78240552314E+02  0.00000000000E+00 0. -1.
</event>
<event>
 7    1  0.6188600E-006  0.2757592E+03  0.7818608E-02  0.1245441E+00
          2   -1    0    0  502    0  0.00000000000E+00  0.00000000000E+00  0.86781303796E+03  0.86781303796E+03  0.00000000000E+00 0. -1.
          1   -1    0    0  501    0 -0.00000000000E+00 -0.00000000000E+00 -0.14038088954E+04  0.14038088954E+04  0.00000000000E+00 0. -1.
         25    2    1    2    0    0 -0.17634377774E+03  0.19602845237E+03 -0.67305225557E+03  0.73358551806E+03  0.12499636595E+03 0.  0.
          2    1    1    2  501    0  0.22529745259E+03 -0.18172857093E+03 -0.66974845989E+03  0.72962128201E+03  0.00000000000E+00 0. -1.
          1    1    1    2  502    0 -0.48953674855E+02 -0.14299881442E+02  0.80680485799E+03  0.80841513332E+03  0.00000000000E+00 0. -1.
         22    1    3    3    0    0 -0.23943898115E+02  0.57220619611E+02 -0.30952985654E+03  0.31568376844E+03  0.00000000000E+00 0.  1.
         22    1    3    3    0    0 -0.15239987962E+03  0.13880783276E+03 -0.36352239903E+03  0.41790174962E+03  0.00000000000E+00 0.  1.
</event>
<event>
 7    1  0.6188600E-006  0.1059994E+03  0.7818608E-02  0.1319637E+00
          2   -1    0    0  502    0  0.00000000000E+00  0.00000000000E+00  0.40109695817E+03  0.40109695817E+03  0.00000000000E+00 0. -1.
          1   -1    0    0  501    0 -0.00000000000E+00 -0.00000000000E+00 -0.11755957688E+04  0.11755957688E+04  0.00000000000E+00 0. -1.
         25    2    1    2    0    0 -0.48425763500E+02  0.12525750378E+03 -0.14710720502E+03  0.23515994982E+03  0.12500070162E+03 0.  0.
          2    1    1    2  501    0 -0.13764056641E+02 -0.10426167290E+03 -0.97860438469E+03  0.98423903978E+03  0.00000000000E+00 0. -1.
          1    1    1    2  502    0  0.62189820141E+02 -0.20995830880E+02  0.35121277903E+03  0.35729373742E+03  0.00000000000E+00 0. -1.
         22    1    3    3    0    0  0.22596754342E+02  0.78476264836E+02 -0.23239288897E+02  0.84907019721E+02  0.00000000000E+00 0. -1.
         22    1    3    3    0    0 -0.71022517842E+02  0.46781238944E+02 -0.12386791613E+03  0.15025293010E+03  0.00000000000E+00 0. -1.
</event>
<event>
 7    1  0.6188600E-006  0.6980097E+02  0.7818608E-02  0.1496845E+00
          2   -1    0    0  502    0  0.00000000000E+00  0.00000000000E+00  0.37888584302E+03  0.37888584302E+03  0.00000000000E+00 0. -1.
          1   -1    0    0  501    0 -0.00000000000E+00 -0.00000000000E+00 -0.50595209292E+02  0.50595209292E+02  0.00000000000E+00 0. -1.
         25    2    1    2    0    0 -0.38095711809E+02 -0.60782041193E+02  0.20256521029E+03  0.24860189150E+03  0.12499798498E+03 0.  0.
          2    1    1    2  501    0 -0.17378110279E+02  0.17661626235E+02 -0.11036426138E+02  0.27124425525E+02  0.00000000000E+00 0. -1.
          1    1    1    2  502    0  0.55473822089E+02  0.43120414958E+02  0.13676184957E+03  0.15375473528E+03  0.00000000000E+00 0. -1.
         22    1    3    3    0    0 -0.79580468232E+02 -0.20372710439E+02  0.88957721900E+02  0.12108498891E+03  0.00000000000E+00 0.  1.
         22    1    3    3    0    0  0.41484756422E+02 -0.40409330754E+02  0.11360748839E+03  0.12751690259E+03  0.00000000000E+00 0.  1.
</event>
<event>
 7    1  0.6188600E-006  0.9899808E+02  0.7818608E-02  0.1301662E+00
          2   -1    0    0  502    0  0.00000000000E+00  0.00000000000E+00  0.29630981476E+04  0.29630981476E+04  0.00000000000E+00 0. -1.
          1   -1    0    0  501    0 -0.00000000000E+00 -0.00000000000E+00 -0.21808274837E+02  0.21808274837E+02  0.00000000000E+00 0. -1.
         25    2    1    2    0    0  0.13120354176E+03  0.39841006877E+02  0.14429164673E+04  0.14547979913E+04  0.12501035413E+03 0.  0.
          2    1    1    2  501    0 -0.42484905230E+02 -0.70974568896E+02  0.10548444211E+03  0.13404970768E+03  0.00000000000E+00 0. -1.
          1    1    1    2  502    0 -0.88718636531E+02  0.31133562019E+02  0.13928889633E+04  0.13960587235E+04  0.00000000000E+00 0. -1.
         22    1    3    3    0    0  0.44802458447E+02 -0.38462364421E+02  0.28675252393E+03  0.29276889135E+03  0.00000000000E+00 0. -1.
         22    1    3    3    0    0  0.86401083314E+02  0.78303371298E+02  0.11561639434E+04  0.11620291000E+04  0.00000000000E+00 0. -1.
</event>
<event>
 7    1  0.6188600E-006  0.3235696E+02  0.7818608E-02  0.1614038E+00
          2   -1    0    0  502    0  0.00000000000E+00  0.00000000000E+00  0.17392340051E+03  0.17392340051E+03  0.00000000000E+00 0. -1.
          1   -1    0    0  501    0 -0.00000000000E+00 -0.00000000000E+00 -0.59666143109E+03  0.59666143109E+03  0.00000000000E+00 0. -1.
         25    2    1    2    0    0  0.15342282309E+02 -0.14887449292E+00 -0.93696122684E+02  0.15696477743E+03  0.12499428050E+03 0.  0.
          2    1    1    2  501    0 -0.22032193833E+02 -0.24238775627E+02 -0.46963237905E+03  0.47077330772E+03  0.00000000000E+00 0. -1.
          1    1    1    2  502    0  0.66899115237E+01  0.24387650120E+02  0.14059047115E+03  0.14284674646E+03  0.00000000000E+00 0. -1.
         22    1    3    3    0    0 -0.49661402671E+02 -0.18323759381E+02 -0.18877195281E+02  0.56199320056E+02  0.00000000000E+00 0.  1.
         22    1    3    3    0    0  0.65003684980E+02  0.18174884888E+02 -0.74818927402E+02  0.10076545737E+03  0.00000000000E+00 0.  1.
</event>
<event>
 7    1  0.6188600E-006  0.4230582E+02  0.7818608E-02  0.1591078E+00
          2   -1    0    0  502    0  0.00000000000E+00  0.00000000000E+00  0.25982523487E+02  0.25982523487E+02  0.00000000000E+00 0. -1.
          1   -1    0    0  501    0 -0.00000000000E+00 -0.00000000000E+00 -0.53950040824E+03  0.53950040824E+03  0.00000000000E+00 0. -1.
         25    2    1    2    0    0  0.26101728792E+02 -0.18371427652E+02 -0.30183527284E+03  0.32824991448E+03  0.12499865930E+03 0.  0.
          2    1    1    2  501    0  0.36498847484E+01 -0.21894562327E+02 -0.27272308565E+01  0.22363615681E+02  0.00000000000E+00 0. -1.
          1    1    1    2  502    0 -0.29751613540E+02  0.40265989979E+02 -0.20895538106E+03  0.21486940157E+03  0.00000000000E+00 0. -1.
         22    1    3    3    0    0 -0.50671740050E+02 -0.11214010880E+02 -0.12290639244E+03  0.13341424430E+03  0.00000000000E+00 0. -1.
         22    1    3    3    0    0  0.76773468842E+02 -0.71574167724E+01 -0.17892888040E+03  0.19483567018E+03  0.00000000000E+00 0. -1.
</event>
<event>
 7    1  0.6188600E-006  0.5882161E+02  0.7818608E-02  0.1413941E+00
          2   -1    0    0  502    0  0.00000000000E+00  0.00000000000E+00  0.55812524981E+03  0.55812524981E+03  0.00000000000E+00 0. -1.
          1   -1    0    0  501    0 -0.00000000000E+00 -0.00000000000E+00 -0.28682066552E+03  0.28682066552E+03  0.00000000000E+00 0. -1.
         25    2    1    2    0    0  0.58530732002E+02  0.52159030566E+02 -0.19807011308E+02  0.14887663735E+03  0.12500209755E+03 0.  0.
          2    1    1    2  501    0 -0.49887661861E+01 -0.58632581616E+02 -0.19668570592E+03  0.20529962087E+03  0.00000000000E+00 0. -1.
          1    1    1    2  502    0 -0.53541965816E+02  0.64735510499E+01  0.48779730152E+03  0.49076965711E+03  0.00000000000E+00 0. -1.
         22    1    3    3    0    0 -0.31820562018E+02  0.20701607287E+02  0.22652711215E+02  0.44206900330E+02  0.00000000000E+00 0.  1.
         22    1    3    3    0    0  0.90351294020E+02  0.31457423278E+02 -0.42459722523E+02  0.10466973702E+03  0.00000000000E+00 0.  1.
</event>
<event>
 7    1  0.6188600E-006  0.2455882E+03  0.7818608E-02  0.1355096E+00
          2   -1    0    0  502    0  0.00000000000E+00  0.00000000000E+00  0.19764203497E+04  0.19764203497E+04  0.00000000000E+00 0. -1.
          1   -1    0    0  501    0 -0.00000000000E+00 -0.00000000000E+00 -0.53141770255E+03  0.53141770255E+03  0.00000000000E+00 0. -1.
         25    2    1    2    0    0  0.51663896914E+02  0.23630066693E+03  0.15765515155E+04  0.15998897698E+04  0.12500172410E+03 0.  0.
          2    1    1    2  501    0 -0.73731832781E+01  0.19461025950E+02 -0.47610599539E+03  0.47656060917E+03  0.00000000000E+00 0. -1.
          1    1    1    2  502    0 -0.44290713636E+02 -0.25576169288E+03  0.34455712705E+03  0.43138767328E+03  0.00000000000E+00 0. -1.
         22    1    3    3    0    0  0.71902421792E+02  0.20570048254E+03  0.10672285756E+04  0.10892472077E+04  0.00000000000E+00 0.  1.
         22    1    3    3    0    0 -0.20238524878E+02  0.30600184391E+02  0.50932293983E+03  0.51064256208E+03  0.00000000000E+00 0.  1.
</event>
<event>
 7    1  0.6188600E-006  0.1098183E+03  0.7818608E-02  0.1275859E+00
          2   -1    0    0  502    0  0.00000000000E+00  0.00000000000E+00  0.28999498331E+03  0.28999498331E+03  0.00000000000E+00 0. -1.
          1   -1    0    0  501    0 -0.00000000000E+00 -0.00000000000E+00 -0.15367502695E+04  0.15367502695E+04  0.00000000000E+00 0. -1.
         25    2    1    2    0    0 -0.33634833610E+02 -0.17108978078E+02  0.22056019751E+02  0.13242139915E+03  0.12499975913E+03 0.  0.
          2    1    1    2  501    0  0.10011089684E+03 -0.50756087838E+02 -0.14687138830E+04  0.14729965520E+04  0.00000000000E+00 0. -1.
          1    1    1    2  502    0 -0.66476063230E+02  0.67865065916E+02  0.19990257704E+03  0.22132730167E+03  0.00000000000E+00 0. -1.
         22    1    3    3    0    0  0.21180299837E+02 -0.32889260714E+01 -0.41899280440E+02  0.47063487304E+02  0.00000000000E+00 0. -1.
         22    1    3    3    0    0 -0.54815133448E+02 -0.13820052006E+02  0.63955300191E+02  0.85357911847E+02  0.00000000000E+00 0. -1.
</event>
<event>
 7    1  0.6188600E-006  0.6461856E+02  0.7818608E-02  0.1435441E+00
          2   -1    0    0  502    0  0.00000000000E+00  0.00000000000E+00  0.12320756474E+04  0.12320756474E+04  0.00000000000E+00 0. -1.
          1   -1    0    0  501    0 -0.00000000000E+00 -0.00000000000E+00 -0.70034402582E+03  0.70034402582E+03  0.00000000000E+00 0. -1.
         25    2    1    2    0    0 -0.39663490883E+02  0.21870446327E+02  0.14749436389E+03  0.19857109755E+03  0.12499753786E+03 0.  0.
          2    1    1    2  501    0  0.63743831220E+02  0.12122453687E+02 -0.67283465436E+03  0.67595613912E+03  0.00000000000E+00 0. -1.
          1    1    1    2  502    0 -0.24080340337E+02 -0.33992900015E+02  0.10570719121E+04  0.10578924366E+04  0.00000000000E+00 0. -1.
         22    1    3    3    0    0 -0.70037821609E+02  0.52958944091E+02  0.83196892938E+02  0.12096143687E+03  0.00000000000E+00 0. -1.
         22    1    3    3    0    0  0.30374330726E+02 -0.31088497763E+02  0.64297470956E+02  0.77609660685E+02  0.00000000000E+00 0. -1.
</event>
<event>
 7    1  0.6188600E-006  0.5334155E+02  0.7818608E-02  0.1473716E+00
          2   -1    0    0  502    0  0.00000000000E+00  0.00000000000E+00  0.49634027867E+03  0.49634027867E+03  0.00000000000E+00 0. -1.
          1   -1    0    0  501    0 -0.00000000000E+00 -0.00000000000E+00 -0.85125629598E+03  0.85125629598E+03  0.00000000000E+00 0. -1.
         25    2    1    2    0    0 -0.12771791058E+02 -0.49046119505E+02  0.17907661557E+03  0.22419993479E+03  0.12501414332E+03 0.  0.
          2    1    1    2  501    0  0.38131667151E+02  0.23586885746E+00 -0.82568413781E+03  0.82656419903E+03  0.00000000000E+00 0. -1.
          1    1    1    2  502    0 -0.25359876093E+02  0.48810250648E+02  0.29169150493E+03  0.29683244084E+03  0.00000000000E+00 0. -1.
         22    1    3    3    0    0  0.11595667424E+02 -0.10962205502E+02  0.17826758369E+03  0.17898033648E+03  0.00000000000E+00 0. -1.
         22    1    3    3    0    0 -0.24367458482E+02 -0.38083914004E+02  0.80903188199E+00  0.45219598310E+02  0.00000000000E+00 0. -1.
</event>
<event>
 7    1  0.6188600E-006  0.1534949E+03  0.7818608E-02  0.1256341E+00
          2   -1    0    0  502    0  0.00000000000E+00  0.00000000000E+00  0.76226348717E+03  0.76226348717E+03  0.00000000000E+00 0. -1.
          1   -1    0    0  501    0 -0.00000000000E+00 -0.00000000000E+00 -0.92714584310E+03  0.92714584310E+03  0.00000000000E+00 0. -1.
         25    2    1    2    0    0 -0.82721874178E+02  0.88498837056E+02 -0.17107399011E+03  0.24406735509E+03  0.12501044396E+03 0.  0.
          2    1    1    2  501    0  0.51710936688E+02  0.63876107472E+02 -0.70884462508E+03  0.71359293759E+03  0.00000000000E+00 0. -1.
          1    1    1    2  502    0  0.31010937491E+02 -0.15237494453E+03  0.71503625925E+03  0.73174903759E+03  0.00000000000E+00 0. -1.
         22    1    3    3    0    0 -0.47634934973E+02  0.31639527562E+02  0.33513598258E+01  0.57283316480E+02  0.00000000000E+00 0.  1.
         22    1    3    3    0    0 -0.35086939206E+02  0.56859309494E+02 -0.17442534994E+03  0.18678403861E+03  0.00000000000E+00 0.  1.
</event>
<event>
 7    1  0.6188600E-006  0.3809839E+02  0.7818608E-02  0.1566248E+00
          2   -1    0    0  502    0  0.00000000000E+00  0.00000000000E+00  0.13461751695E+02  0.13461751695E+02  0.00000000000E+00 0. -1.
          1   -1    0    0  501    0 -0.00000000000E+00 -0.00000000000E+00 -0.18312126564E+04  0.18312126564E+04  0.00000000000E+00 0. -1.
         25    2    1    2    0    0 -0.34916922781E+02  0.12657002895E+02 -0.11644700477E+04  0.11717486417E+04  0.12499998456E+03 0.  0.
          2    1    1    2  501    0  0.17678107707E+02 -0.35652591466E+02 -0.64005138318E+03  0.64128729590E+03  0.00000000000E+00 0. -1.
          1    1    1    2  502    0  0.17238815074E+02  0.22995588571E+02 -0.13229473873E+02  0.31638470535E+02  0.00000000000E+00 0. -1.
         22    1    3    3    0    0  0.27748899155E+02  0.31889756069E+01 -0.68891130328E+02  0.74338138312E+02  0.00000000000E+00 0. -1.
         22    1    3    3    0    0 -0.62665821935E+02  0.94680272885E+01 -0.10955789174E+04  0.10974105034E+04  0.00000000000E+00 0. -1.
</event>
<event>
 7    1  0.6188600E-006  0.1618771E+03  0.7818608E-02  0.1234583E+00
          2   -1    0    0  502    0  0.00000000000E+00  0.00000000000E+00  0.14062327257E+04  0.14062327257E+04  0.00000000000E+00 0. -1.
          1   -1    0    0  501    0 -0.00000000000E+00 -0.00000000000E+00 -0.48851981862E+03  0.48851981862E+03  0.00000000000E+00 0. -1.
         25    2    1    2    0    0 -0.49230529853E+02 -0.13551774750E+03  0.78497230608E+03  0.80783369960E+03  0.12500023972E+03 0.  0.
          2    1    1    2  501    0  0.75049614368E+02 -0.61462843440E+02 -0.45566697546E+03  0.46587822257E+03  0.00000000000E+00 0. -1.
          1    1    1    2  502    0 -0.25819084515E+02  0.19698059094E+03  0.58840757648E+03  0.62104062218E+03  0.00000000000E+00 0. -1.
         22    1    3    3    0    0  0.44544850355E+01 -0.11160234069E+03  0.31529071835E+03  0.33448940486E+03  0.00000000000E+00 0. -1.
         22    1    3    3    0    0 -0.53685014888E+02 -0.23915406811E+02  0.46968158773E+03  0.47334429474E+03  0.00000000000E+00 0. -1.
</event>
<event>
 7    1  0.6188600E-006  0.1565994E+03  0.7818608E-02  0.1348928E+00
          2   -1    0    0  502    0  0.00000000000E+00  0.00000000000E+00  0.74551239517E+03  0.74551239517E+03  0.00000000000E+00 0. -1.
          1   -1    0    0  501    0 -0.00000000000E+00 -0.00000000000E+00 -0.12493116794E+04  0.12493116794E+04  0.00000000000E+00 0. -1.
         25    2    1    2    0    0 -0.12514270370E+03 -0.10946183341E+03  0.88569489807E+02  0.22608058354E+03  0.12500114586E+03 0.  0.
          2    1    1    2  501    0  0.94328320955E+02  0.12474187976E+03 -0.11748672018E+04  0.11852304883E+04  0.00000000000E+00 0. -1.
          1    1    1    2  502    0  0.30814382746E+02 -0.15280046351E+02  0.58249842773E+03  0.58351300269E+03  0.00000000000E+00 0. -1.
         22    1    3    3    0    0 -0.80258913732E+02 -0.10917096252E+03  0.11168415328E+03  0.17559368549E+03  0.00000000000E+00 0.  1.
         22    1    3    3    0    0 -0.44883789969E+02 -0.29087089650E+00 -0.23114663470E+02  0.50486898055E+02  0.00000000000E+00 0.  1.
</event>
<event>
 7    1  0.6188600E-006  0.9389507E+02  0.7818608E-02  0.1353493E+00
          2   -1    0    0  502    0  0.00000000000E+00  0.00000000000E+00  0.10858298531E+04  0.10858298531E+04  0.00000000000E+00 0. -1.
          1   -1    0    0  501    0 -0.00000000000E+00 -0.00000000000E+00 -0.82595129865E+03  0.82595129865E+03  0.00000000000E+00 0. -1.
         25    2    1    2    0    0 -0.34126930170E+02 -0.13848724321E+03  0.20041971049E+02  0.19072078949E+03  0.12501749895E+03 0.  0.
          2    1    1    2  501    0  0.35397000238E+01  0.92564122045E+02 -0.73693376073E+03  0.74273280113E+03  0.00000000000E+00 0. -1.
          1    1    1    2  502    0  0.30587230146E+02  0.45923121164E+02  0.97677034415E+03  0.97832756115E+03  0.00000000000E+00 0. -1.
         22    1    3    3    0    0 -0.73640580303E+02 -0.11601897661E+03  0.36826906336E+02  0.14226580416E+03  0.00000000000E+00 0.  1.
         22    1    3    3    0    0  0.39513650133E+02 -0.22468266594E+02 -0.16784935288E+02  0.48454985329E+02  0.00000000000E+00 0.  1.
</event>
<event>
 7    1  0.6188600E-006  0.3949036E+02  0.7818608E-02  0.1535528E+00
          2   -1    0    0  502    0  0.00000000000E+00  0.00000000000E+00  0.32904619894E+03  0.32904619894E+03  0.00000000000E+00 0. -1.
          1   -1    0    0  501    0 -0.00000000000E+00 -0.00000000000E+00 -0.68770182263E+03  0.68770182263E+03  0.00000000000E+00 0. -1.
         25    2    1    2    0    0  0.21837530786E+02  0.99019761628E+01 -0.29710352656E+03  0.32321853167E+03  0.12499914734E+03 0.  0.
          2    1    1    2  501    0 -0.16682155271E+02  0.29358830825E+02 -0.37553973424E+03  0.37705480668E+03  0.00000000000E+00 0. -1.
          1    1    1    2  502    0 -0.51553755151E+01 -0.39260806988E+02  0.31398763711E+03  0.31647468322E+03  0.00000000000E+00 0. -1.
         22    1    3    3    0    0  0.57151218987E+02 -0.71155039946E+01 -0.26871771512E+03  0.27482012781E+03  0.00000000000E+00 0.  1.
         22    1    3    3    0    0 -0.35313688201E+02  0.17017480157E+02 -0.28385811444E+02  0.48398403864E+02  0.00000000000E+00 0.  1.
</event>
<event>
 7    1  0.6188600E-006  0.5904220E+02  0.7818608E-02  0.1539967E+00
          2   -1    0    0  502    0  0.00000000000E+00  0.00000000000E+00  0.17064762442E+03  0.17064762442E+03  0.00000000000E+00 0. -1.
          1   -1    0    0  501    0 -0.00000000000E+00 -0.00000000000E+00 -0.25148073017E+03  0.25148073017E+03  0.00000000000E+00 0. -1.
         25    2    1    2    0    0  0.33548622316E+02 -0.53920165954E+02 -0.97064251573E+02  0.17053214690E+03  0.12500739913E+03 0.  0.
          2    1    1    2  501    0 -0.21597502331E+02 -0.38625483735E+01 -0.11004679370E+03  0.11221260264E+03  0.00000000000E+00 0. -1.
          1    1    1    2  502    0 -0.11951119985E+02  0.57782714328E+02  0.12627793953E+03  0.13938360505E+03  0.00000000000E+00 0. -1.
         22    1    3    3    0    0  0.39847906353E+02  0.29598400133E+02 -0.11818695632E+02  0.51025508303E+02  0.00000000000E+00 0. -1.
         22    1    3    3    0    0 -0.62992840368E+01 -0.83518566087E+02 -0.85245555942E+02  0.11950663860E+03  0.00000000000E+00 0. -1.
</event>
<event>
 7    1  0.6188600E-006  0.5543969E+02  0.7818608E-02  0.1537758E+00
          2   -1    0    0  502    0  0.00000000000E+00  0.00000000000E+00  0.92391312122E+03  0.92391312122E+03  0.00000000000E+00 0. -1.
          1   -1    0    0  501    0 -0.00000000000E+00 -0.00000000000E+00 -0.73118762647E+03  0.73118762647E+03  0.00000000000E+00 0. -1.
         25    2    1    2    0    0 -0.75617562045E+02 -0.21854720311E+02 -0.74779652915E+02  0.16556684750E+03  0.12499896005E+03 0.  0.
          2    1    1    2  501    0  0.21773420207E+02  0.93722136535E+01 -0.60991454623E+03  0.61037502727E+03  0.00000000000E+00 0. -1.
          1    1    1    2  502    0  0.53844141838E+02  0.12482506657E+02  0.87741969389E+03  0.87915887291E+03  0.00000000000E+00 0. -1.
         22    1    3    3    0    0 -0.10327760577E+03 -0.20363948442E+02 -0.85751480829E+02  0.13577286443E+03  0.00000000000E+00 0.  1.
         22    1    3    3    0    0  0.27660043729E+02 -0.14907718688E+01  0.10971827914E+02  0.29793983077E+02  0.00000000000E+00 0.  1.
</event>
<event>
 7    1  0.6188600E-006  0.1219803E+03  0.7818608E-02  0.1308859E+00
          2   -1    0    0  502    0  0.00000000000E+00  0.00000000000E+00  0.82746000204E+03  0.82746000204E+03  0.00000000000E+00 0. -1.
          1   -1    0    0  501    0 -0.00000000000E+00 -0.00000000000E+00 -0.44569395735E+03  0.44569395735E+03  0.00000000000E+00 0. -1.
         25    2    1    2    0    0 -0.80032922261E+02 -0.32546990413E+01  0.23919417767E+03  0.28153547446E+03  0.12503002453E+03 0.  0.
          2    1    1    2  501    0  0.11306442919E+03 -0.50225515747E+02 -0.41370171084E+03  0.43180467012E+03  0.00000000000E+00 0. -1.
          1    1    1    2  502    0 -0.33031506933E+02  0.53480214788E+02  0.55627357786E+03  0.55981381480E+03  0.00000000000E+00 0. -1.
         22    1    3    3    0    0  0.28789271133E+02 -0.23759110577E+01  0.15520152324E+02  0.32792410919E+02  0.00000000000E+00 0. -1.
         22    1    3    3    0    0 -0.10882219339E+03 -0.87878798352E+00  0.22367402535E+03  0.24874306354E+03  0.00000000000E+00 0. -1.
</event>
<event>
 7    1  0.6188600E-006  0.1247727E+03  0.7818608E-02  0.1344796E+00
          2   -1    0    0  502    0  0.00000000000E+00  0.00000000000E+00  0.15593759034E+04  0.15593759034E+04  0.00000000000E+00 0. -1.
          1   -1    0    0  501    0 -0.00000000000E+00 -0.00000000000E+00 -0.87237979344E+03  0.87237979344E+03  0.00000000000E+00 0. -1.
         25    2    1    2    0    0  0.84824978219E+02 -0.14178809939E+03  0.32823509210E+03  0.38815113567E+03  0.12499554545E+03 0.  0.
          2    1    1    2  501    0 -0.25863038022E+02  0.36488407130E+02 -0.83879321610E+03  0.83998473794E+03  0.00000000000E+00 0. -1.
          1    1    1    2  502    0 -0.58961940197E+02  0.10529969226E+03  0.11975542340E+04  0.12036198233E+04  0.00000000000E+00 0. -1.
         22    1    3    3    0    0  0.19202847623E+01 -0.94185298468E+02  0.24090200604E+03  0.25866645406E+03  0.00000000000E+00 0. -1.
         22    1    3    3    0    0  0.82904693456E+02 -0.47602800925E+02  0.87333086055E+02  0.12948468161E+03  0.00000000000E+00 0. -1.
</event>
<event>
 7    1  0.6188600E-006  0.6320150E+02  0.7818608E-02  0.1470122E+00
          2   -1    0    0  502    0  0.00000000000E+00  0.00000000000E+00  0.16319561910E+03  0.16319561910E+03  0.00000000000E+00 0. -1.
          1   -1    0    0  501    0 -0.00000000000E+00 -0.00000000000E+00 -0.66470673240E+03  0.66470673240E+03  0.00000000000E+00 0. -1.
         25    2    1    2    0    0  0.12527434354E+02  0.34433484477E+02 -0.24624260458E+03  0.27855048302E+03  0.12494938902E+03 0.  0.
          2    1    1    2  501    0 -0.99406390054E+01 -0.67352329849E+02 -0.39752523635E+03  0.40331311183E+03  0.00000000000E+00 0. -1.
          1    1    1    2  502    0 -0.25867953486E+01  0.32918845372E+02  0.14225672762E+03  0.14603875665E+03  0.00000000000E+00 0. -1.
         22    1    3    3    0    0  0.52740834320E+00 -0.28477752497E+02 -0.19349415271E+03  0.19557926188E+03  0.00000000000E+00 0.  1.
         22    1    3    3    0    0  0.12000026011E+02  0.62911236974E+02 -0.52748451869E+02  0.82971221134E+02  0.00000000000E+00 0.  1.
</event>
<event>
 7    1  0.6188600E-006  0.1543872E+03  0.7818608E-02  0.1279218E+00
          2   -1    0    0  502    0  0.00000000000E+00  0.00000000000E+00  0.95425138467E+03  0.95425138467E+03  0.00000000000E+00 0. -1.
          1   -1    0    0  501    0 -0.00000000000E+00 -0.00000000000E+00 -0.17063460094E+04  0.17063460094E+04  0.00000000000E+00 0. -1.
         25    2    1    2    0    0  0.21364255423E+03  0.31568233768E+02  0.11313945804E+03  0.27397947915E+03  0.12499809466E+03 0.  0.
          2    1    1    2  501    0 -0.14850623550E+03 -0.37867631288E+02 -0.16208972356E+04  0.16281265024E+04  0.00000000000E+00 0. -1.
          1    1    1    2  502    0 -0.65136318732E+02  0.62993975200E+01  0.75566315279E+03  0.75849141255E+03  0.00000000000E+00 0. -1.
         22    1    3    3    0    0  0.12726020841E+03 -0.30708483742E+02  0.19857466028E+02  0.13241031144E+03  0.00000000000E+00 0.  1.
         22    1    3    3    0    0  0.86382345820E+02  0.62276717510E+02  0.93281992013E+02  0.14156916771E+03  0.00000000000E+00 0.  1.
</event>
<event>
 7    1  0.6188600E-006  0.4289928E+02  0.7818608E-02  0.1497225E+00
          2   -1    0    0  502    0  0.00000000000E+00  0.00000000000E+00  0.24936684931E+03  0.24936684931E+03  0.00000000000E+00 0. -1.
          1   -1    0    0  501    0 -0.00000000000E+00 -0.00000000000E+00 -0.25220566114E+03  0.25220566114E+03  0.00000000000E+00 0. -1.
         25    2    1    2    0    0 -0.41049723755E+01  0.68878510663E+02  0.36013390632E+00  0.14278177506E+03  0.12500162224E+03 0.  0.
          2    1    1    2  501    0 -0.20478486046E+02 -0.37058956020E+02 -0.17618069511E+03  0.18119705279E+03  0.00000000000E+00 0. -1.
          1    1    1    2  502    0  0.24583458421E+02 -0.31819554643E+02  0.17298174937E+03  0.17759368260E+03  0.00000000000E+00 0. -1.
         22    1    3    3    0    0 -0.34735347539E+02  0.71915561349E+01  0.47527722110E+02  0.59305541202E+02  0.00000000000E+00 0.  1.
         22    1    3    3    0    0  0.30630375164E+02  0.61686954528E+02 -0.47167588204E+02  0.83476233855E+02  0.00000000000E+00 0.  1.
</event>
<event>
 7    1  0.6188600E-006  0.4938394E+02  0.7818608E-02  0.1480429E+00
          2   -1    0    0  502    0  0.00000000000E+00  0.00000000000E+00  0.64269168878E+03  0.64269168878E+03  0.00000000000E+00 0. -1.
          1   -1    0    0  501    0 -0.00000000000E+00 -0.00000000000E+00 -0.69210984172E+03  0.69210984172E+03  0.00000000000E+00 0. -1.
         25    2    1    2    0    0  0.10123525794E+02 -0.86823391401E+01 -0.23786290686E+02  0.12794135350E+03  0.12500133408E+03 0.  0.
          2    1    1    2  501    0 -0.15953930002E+02  0.47520408098E+02 -0.61457156712E+03  0.61661246190E+03  0.00000000000E+00 0. -1.
          1    1    1    2  502    0  0.58304042086E+01 -0.38838068958E+02  0.58893970486E+03  0.59024771510E+03  0.00000000000E+00 0. -1.
         22    1    3    3    0    0 -0.58638352364E+01  0.48884441621E+02  0.20743948675E+02  0.53426441046E+02  0.00000000000E+00 0.  1.
         22    1    3    3    0    0  0.15987361030E+02 -0.57566780761E+02 -0.44530239362E+02  0.74514912450E+02  0.00000000000E+00 0.  1.
</event>
<event>
 7    1  0.6188600E-006  0.1049247E+03  0.7818608E-02  0.1349674E+00
          2   -1    0    0  502    0  0.00000000000E+00  0.00000000000E+00  0.16791752463E+03  0.16791752463E+03  0.00000000000E+00 0. -1.
          1   -1    0    0  501    0 -0.00000000000E+00 -0.00000000000E+00 -0.14720907873E+04  0.14720907873E+04  0.00000000000E+00 0. -1.
         25    2    1    2    0    0 -0.70301905196E+02  0.26549993483E+02 -0.44997672330E+02  0.15264054405E+03  0.12500834030E+03 0.  0.
          2    1    1    2  501    0  0.10588457177E+03  0.99972468900E+01 -0.13653975219E+04  0.13695334535E+04  0.00000000000E+00 0. -1.
          1    1    1    2  502    0 -0.35582666576E+02 -0.36547240373E+02  0.10622193147E+03  0.11783431446E+03  0.00000000000E+00 0. -1.
         22    1    3    3    0    0 -0.21108745901E+02 -0.47952761415E+02  0.59002644886E+00  0.52396513358E+02  0.00000000000E+00 0. -1.
         22    1    3    3    0    0 -0.49193159295E+02  0.74502754898E+02 -0.45587698779E+02  0.10024403069E+03  0.00000000000E+00 0. -1.
</event>
<event>
 7    1  0.6188600E-006  0.9682411E+02  0.7818608E-02  0.1346697E+00
          2   -1    0    0  502    0  0.00000000000E+00  0.00000000000E+00  0.26979308029E+04  0.26979308029E+04  0.00000000000E+00 0. -1.
          1   -1    0    0  501    0 -0.00000000000E+00 -0.00000000000E+00 -0.15308059969E+03  0.15308059969E+03  0.00000000000E+00 0. -1.
         25    2    1    2    0    0  0.76733420937E+02 -0.85109321744E+01  0.24537802347E+03  0.28600009791E+03  0.12500091098E+03 0.  0.
          2    1    1    2  501    0 -0.87134737370E+02 -0.47228025298E+02 -0.11389382231E+03  0.15097930849E+03  0.00000000000E+00 0. -1.
          1    1    1    2  502    0  0.10401316433E+02  0.55738957473E+02  0.24133660021E+04  0.24140319962E+04  0.00000000000E+00 0. -1.
         22    1    3    3    0    0 -0.26236202127E+02 -0.31041445818E+02  0.54970942330E+02  0.68364568025E+02  0.00000000000E+00 0. -1.
         22    1    3    3    0    0  0.10296962306E+03  0.22530513644E+02  0.19040708114E+03  0.21763552988E+03  0.00000000000E+00 0. -1.
</event>
<event>
 7    1  0.6188600E-006  0.7857241E+02  0.7818608E-02  0.1424593E+00
          2   -1    0    0  502    0  0.00000000000E+00  0.00000000000E+00  0.19506973738E+04  0.19506973738E+04  0.00000000000E+00 0. -1.
          1   -1    0    0  501    0 -0.00000000000E+00 -0.00000000000E+00 -0.61400231971E+02  0.61400231971E+02  0.00000000000E+00 0. -1.
         25    2    1    2    0    0  0.81008776396E+01  0.55342002208E+02  0.17869708391E+03  0.22513455221E+03  0.12499822947E+03 0.  0.
          2    1    1    2  501    0 -0.30663465471E+02  0.21054679421E+02 -0.27988832564E+02  0.46550213625E+02  0.00000000000E+00 0. -1.
          1    1    1    2  502    0  0.22562587831E+02 -0.76396681629E+02  0.17385888905E+04  0.17404128400E+04  0.00000000000E+00 0. -1.
         22    1    3    3    0    0  0.60459260764E+02  0.71803814624E+00  0.91660308216E+02  0.10980642009E+03  0.00000000000E+00 0.  1.
         22    1    3    3    0    0 -0.52358383124E+02  0.54623964062E+02  0.87036775698E+02  0.11532813211E+03  0.00000000000E+00 0.  1.
</event>
<event>
 7    1  0.6188600E-006  0.9652784E+02  0.7818608E-02  0.1310985E+00
          2   -1    0    0  502    0  0.00000000000E+00  0.00000000000E+00  0.23704634999E+04  0.23704634999E+04  0.00000000000E+00 0. -1.
          1   -1    0    0  501    0 -0.00000000000E+00 -0.00000000000E+00 -0.68438731380E+03  0.68438731380E+03  0.00000000000E+00 0. -1.
         25    2    1    2    0    0  0.45896859486E+02  0.34709406982E+02  0.16376345991E+03  0.21390412207E+03  0.12500095197E+03 0.  0.
          2    1    1    2  501    0  0.50177316143E+02 -0.59607408584E+02 -0.65588114510E+03  0.66049290891E+03  0.00000000000E+00 0. -1.
          1    1    1    2  502    0 -0.96074175629E+02  0.24898001601E+02  0.21781938713E+04  0.21804537827E+04  0.00000000000E+00 0. -1.
         22    1    3    3    0    0  0.18701221610E+02 -0.32299331086E+02  0.12779957216E+03  0.13313794772E+03  0.00000000000E+00 0.  1.
         22    1    3    3    0    0  0.27195637876E+02  0.67008738068E+02  0.35963887752E+02  0.80766174351E+02  0.00000000000E+00 0.  1.
</event>
<event>
 7    1  0.6188600E-006  0.1161663E+03  0.7818608E-02  0.1302919E+00
          2   -1    0    0  502    0  0.00000000000E+00  0.00000000000E+00  0.57753842040E+02  0.57753842040E+02  0.00000000000E+00 0. -1.
          1   -1    0    0  501    0 -0.00000000000E+00 -0.00000000000E+00 -0.18348003010E+04  0.18348003010E+04  0.00000000000E+00 0. -1.
         25    2    1    2    0    0  0.75189800977E+02 -0.63524548948E+02 -0.43863718443E+03  0.46660287794E+03  0.12500716639E+03 0.  0.
          2    1    1    2  501    0 -0.12212241016E+03  0.12014903090E+02 -0.13497788859E+04  0.13553454474E+04  0.00000000000E+00 0. -1.
          1    1    1    2  502    0  0.46932609179E+02  0.51509645858E+02  0.11369611431E+02  0.70605817641E+02  0.00000000000E+00 0. -1.
         22    1    3    3    0    0  0.37729123384E+02 -0.20895061537E+02 -0.38847294024E+03  0.39085971351E+03  0.00000000000E+00 0. -1.
         22    1    3    3    0    0  0.37460677593E+02 -0.42629487411E+02 -0.50164244189E+02  0.75743164429E+02  0.00000000000E+00 0. -1.
</event>
<event>
 7    1  0.6188600E-006  0.2512193E+03  0.7818608E-02  0.1198719E+00
          2   -1    0    0  502    0  0.00000000000E+00  0.00000000000E+00  0.68314569085E+03  0.68314569085E+03  0.00000000000E+00 0. -1.
          1   -1    0    0  501    0 -0.00000000000E+00 -0.00000000000E+00 -0.27369650480E+03  0.27369650480E+03  0.00000000000E+00 0. -1.
         25    2    1    2    0    0 -0.29004916213E+02 -0.17343883486E+03 -0.83265105118E+02  0.23126023634E+03  0.12500361827E+03 0.  0.
          2    1    1    2  501    0  0.43667501126E+01 -0.91182083229E+02 -0.62094654254E+02  0.11040374493E+03  0.00000000000E+00 0. -1.
          1    1    1    2  502    0  0.24638166101E+02  0.26462091809E+03  0.55480894542E+03  0.61517821437E+03  0.00000000000E+00 0. -1.
         22    1    3    3    0    0 -0.70843976160E+02 -0.14026580271E+03 -0.39012595572E+02  0.16191154061E+03  0.00000000000E+00 0. -1.
         22    1    3    3    0    0  0.41839059946E+02 -0.33173032149E+02 -0.44252509546E+02  0.69348695736E+02  0.00000000000E+00 0. -1.
</event>
<event>
 7    1  0.6188600E-006  0.1641737E+03  0.7818608E-02  0.1347566E+00
          2   -1    0    0  502    0  0.00000000000E+00  0.00000000000E+00  0.97359553612E+03  0.97359553612E+03  0.00000000000E+00 0. -1.
          1   -1    0    0  501    0 -0.00000000000E+00 -0.00000000000E+00 -0.19074653411E+03  0.19074653411E+03  0.00000000000E+00 0. -1.
         25    2    1    2    0    0  0.16689655660E+03  0.20733533593E+02  0.32160137367E+03  0.38384218659E+03  0.12499216231E+03 0.  0.
          2    1    1    2  501    0 -0.11683579630E+02  0.31068328818E+02 -0.14696202298E+03  0.15066380882E+03  0.00000000000E+00 0. -1.
          1    1    1    2  502    0 -0.15521297697E+03 -0.51801862411E+02  0.60820965133E+03  0.62983607482E+03  0.00000000000E+00 0. -1.
         22    1    3    3    0    0  0.66331207127E+02 -0.50696004120E+02  0.16077133189E+03  0.18115555479E+03  0.00000000000E+00 0. -1.
         22    1    3    3    0    0  0.10056534948E+03  0.71429537713E+02  0.16083004177E+03  0.20268663180E+03  0.00000000000E+00 0. -1.
</event>
<event>
 7    1  0.6188600E-006  0.3429648E+03  0.7818608E-02  0.1297587E+00
          2   -1    0    0  502    0  0.00000000000E+00  0.00000000000E+00  0.12279412956E+04  0.12279412956E+04  0.00000000000E+00 0. -1.
          1   -1    0    0  501    0 -0.00000000000E+00 -0.00000000000E+00 -0.13941060049E+04  0.13941060049E+04  0.00000000000E+00 0. -1.
         25    2    1    2    0    0  0.29226332753E+03  0.17545298789E+03 -0.50036963927E+03  0.61822046472E+03  0.12500065406E+03 0.  0.
          2    1    1    2  501    0  0.13872926261E+02 -0.20546507985E+02 -0.80944303993E+03  0.80982260524E+03  0.00000000000E+00 0. -1.
          1    1    1    2  502    0 -0.30613625379E+03 -0.15490647991E+03  0.11436479699E+04  0.11940042305E+04  0.00000000000E+00 0. -1.
         22    1    3    3    0    0  0.19724554468E+03  0.50125201385E+02 -0.31622315179E+03  0.37605241980E+03  0.00000000000E+00 0.  1.
         22    1    3    3    0    0  0.95017782850E+02  0.12532778651E+03 -0.18414648748E+03  0.24216804492E+03  0.00000000000E+00 0.  1.
</event>
<event>
 7    1  0.6188600E-006  0.5436957E+02  0.7818608E-02  0.1540023E+00
          2   -1    0    0  502    0  0.00000000000E+00  0.00000000000E+00  0.60204935596E+03  0.60204935596E+03  0.00000000000E+00 0. -1.
          1   -1    0    0  501    0 -0.00000000000E+00 -0.00000000000E+00 -0.12210252170E+04  0.12210252170E+04  0.00000000000E+00 0. -1.
         25    2    1    2    0    0 -0.91318808906E+00 -0.59168510626E+02 -0.31482938029E+02  0.14183658072E+03  0.12499877472E+03 0.  0.
          2    1    1    2  501    0 -0.21111951994E+02  0.50105008917E+02 -0.11334541665E+04  0.11347574956E+04  0.00000000000E+00 0. -1.
          1    1    1    2  502    0  0.22025140083E+02  0.90635017098E+01  0.54596124343E+03  0.54648049662E+03  0.00000000000E+00 0. -1.
         22    1    3    3    0    0 -0.44375259973E+02 -0.70268654113E+02  0.60792050343E+01  0.83329491672E+02  0.00000000000E+00 0. -1.
         22    1    3    3    0    0  0.43462071884E+02  0.11100143487E+02 -0.37562143063E+02  0.58507089052E+02  0.00000000000E+00 0. -1.
</event>
<event>
 7    1  0.6188600E-006  0.3601785E+02  0.7818608E-02  0.1552311E+00
          2   -1    0    0  502    0  0.00000000000E+00  0.00000000000E+00  0.65319167691E+02  0.65319167691E+02  0.00000000000E+00 0. -1.
          1   -1    0    0  501    0 -0.00000000000E+00 -0.00000000000E+00 -0.18417948113E+04  0.18417948113E+04  0.00000000000E+00 0. -1.
         25    2    1    2    0    0  0.15662466052E+01 -0.65483980535E+02 -0.76196265278E+03  0.77492103976E+03  0.12499971518E+03 0.  0.
          2    1    1    2  501    0 -0.11645872692E+02  0.31101520429E+02 -0.10676162939E+04  0.10681327080E+04  0.00000000000E+00 0. -1.
          1    1    1    2  502    0  0.10079626087E+02  0.34382460106E+02  0.53103303079E+02  0.64060231212E+02  0.00000000000E+00 0. -1.
         22    1    3    3    0    0 -0.49783618234E+02 -0.24887495614E+02 -0.55665601003E+03  0.55943159509E+03  0.00000000000E+00 0.  1.
         22    1    3    3    0    0  0.51349864839E+02 -0.40596484920E+02 -0.20530664276E+03  0.21548944468E+03  0.00000000000E+00 0.  1.
</event>
<event>
 7    1  0.6188600E-006  0.1255899E+03  0.7818608E-02  0.1365520E+00
          2   -1    0    0  502    0  0.00000000000E+00  0.00000000000E+00  0.17007011080E+04  0.17007011080E+04  0.00000000000E+00 0. -1.
          1   -1    0    0  501    0 -0.00000000000E+00 -0.00000000000E+00 -0.49426367598E+03  0.49426367598E+03  0.00000000000E+00 0. -1.
         25    2    1    2    0    0  0.12044881760E+02  0.14115534295E+03  0.64230745092E+01  0.18904287455E+03  0.12500416999E+03 0.  0.
          2    1    1    2  501    0  0.20362202193E+02 -0.12272022817E+03 -0.39312957406E+03  0.41234177048E+03  0.00000000000E+00 0. -1.
          1    1    1    2  502    0 -0.32407083953E+02 -0.18435114777E+02  0.15931439315E+04  0.15935801389E+04  0.00000000000E+00 0. -1.
         22    1    3    3    0    0  0.31586113871E+02  0.48807887233E+02  0.57456338597E+02  0.81738138532E+02  0.00000000000E+00 0.  1.
         22    1    3    3    0    0 -0.19541232111E+02  0.92347455712E+02 -0.51033264088E+02  0.10730473602E+03  0.00000000000E+00 0.  1.
</event>
<event>
 7    1  0.6188600E-006  0.6895876E+02  0.7818608E-02  0.1468753E+00
          2   -1    0    0  502    0  0.00000000000E+00  0.00000000000E+00  0.82658242781E+03  0.82658242781E+03  0.00000000000E+00 0. -1.
          1   -1    0    0  501    0 -0.00000000000E+00 -0.00000000000E+00 -0.64483263440E+03  0.64483263440E+03  0.00000000000E+00 0. -1.
         25    2    1    2    0    0  0.31310152778E+02 -0.23346216709E+02 -0.11153070295E+03  0.17201006978E+03  0.12499197935E+03 0.  0.
          2    1    1    2  501    0  0.20401653490E+02 -0.22755581158E+02 -0.50108906456E+03  0.50202021330E+03  0.00000000000E+00 0. -1.
          1    1    1    2  502    0 -0.51711806267E+02  0.46101797866E+02  0.79436956093E+03  0.79738477914E+03  0.00000000000E+00 0. -1.
         22    1    3    3    0    0  0.77329665741E+02 -0.31653910719E+01 -0.85822802579E+02  0.11556578363E+03  0.00000000000E+00 0. -1.
         22    1    3    3    0    0 -0.46019512964E+02 -0.20180825637E+02 -0.25707900373E+02  0.56444286145E+02  0.00000000000E+00 0. -1.
</event>
<event>
 7    1  0.6188600E-006  0.1393692E+03  0.7818608E-02  0.1291433E+00
          2   -1    0    0  502    0  0.00000000000E+00  0.00000000000E+00  0.47821139876E+03  0.47821139876E+03  0.00000000000E+00 0. -1.
          1   -1    0    0  501    0 -0.00000000000E+00 -0.00000000000E+00 -0.12547855649E+04  0.12547855649E+04  0.00000000000E+00 0. -1.
         25    2    1    2    0    0  0.19599586405E+03  0.11382733760E+02  0.37753424679E+02  0.23578329164E+03  0.12499797673E+03 0.  0.
          2    1    1    2  501    0 -0.63996884453E+02 -0.88121821219E+01 -0.11420613562E+04  0.11438869686E+04  0.00000000000E+00 0. -1.
          1    1    1    2  502    0 -0.13199897960E+03 -0.25705516386E+01  0.32773376536E+03  0.35332670336E+03  0.00000000000E+00 0. -1.
         22    1    3    3    0    0 -0.12777231890E+02 -0.53711582431E+01  0.21668638389E+02  0.25722303266E+02  0.00000000000E+00 0.  1.
         22    1    3    3    0    0  0.20877309594E+03  0.16753892004E+02  0.16084786289E+02  0.21006098837E+03  0.00000000000E+00 0.  1.
</event>
<event>
 7    1  0.6188600E-006  0.5018651E+02  0.7818608E-02  0.1482534E+00
          2   -1    0    0  502    0  0.00000000000E+00  0.00000000000E+00  0.10746935247E+04  0.10746935247E+04  0.00000000000E+00 0. -1.
          1   -1    0    0  501    0 -0.00000000000E+00 -0.00000000000E+00 -0.30650969707E+04  0.30650969707E+04  0.00000000000E+00 0. -1.
         25    2    1    2    0    0 -0.18020491305E+02 -0.31070848069E+02 -0.24990287356E+03  0.28172046984E+03  0.12499936483E+03 0.  0.
          2    1    1    2  501    0 -0.31331898930E+02  0.21635413617E+02 -0.27985595927E+04  0.27988186031E+04  0.00000000000E+00 0. -1.
          1    1    1    2  502    0  0.49352390235E+02  0.94354344524E+01  0.10580590202E+04  0.10592514225E+04  0.00000000000E+00 0. -1.
         22    1    3    3    0    0  0.21682637740E+02 -0.60519924823E+02 -0.20533421890E+03  0.21516258859E+03  0.00000000000E+00 0.  1.
         22    1    3    3    0    0 -0.39703129046E+02  0.29449076754E+02 -0.44568654663E+02  0.66557881247E+02  0.00000000000E+00 0.  1.
</event>
<event>
 7    1  0.6188600E-006  0.1093937E+03  0.7818608E-02  0.1335266E+00
          2   -1    0    0  502    0  0.00000000000E+00  0.00000000000E+00  0.33657125652E+03  0.33657125652E+03  0.00000000000E+00 0. -1.
          1   -1    0    0  501    0 -0.00000000000E+00 -0.00000000000E+00 -0.31016081500E+03  0.31016081500E+03  0.00000000000E+00 0. -1.
         25    2    1    2    0    0 -0.12429054692E+03 -0.18827254791E+02 -0.29464441759E+02  0.17971833461E+03  0.12501168301E+03 0.  0.
          2    1    1    2  501    0  0.89057878464E+02  0.61582943859E+02 -0.18798587734E+03  0.21693882725E+03  0.00000000000E+00 0. -1.
          1    1    1    2  502    0  0.35232668461E+02 -0.42755689069E+02  0.24386076061E+03  0.25007490966E+03  0.00000000000E+00 0. -1.
         22    1    3    3    0    0 -0.82344239252E+02 -0.69133473171E+02 -0.37182888179E+02  0.11376545180E+03  0.00000000000E+00 0. -1.
         22    1    3    3    0    0 -0.41946307673E+02  0.50306218380E+02  0.77184464201E+01  0.65952882804E+02  0.00000000000E+00 0. -1.
</event>
<event>
 7    1  0.6188600E-006  0.7243688E+02  0.7818608E-02  0.1424423E+00
          2   -1    0    0  502    0  0.00000000000E+00  0.00000000000E+00  0.39980987324E+03  0.39980987324E+03  0.00000000000E+00 0. -1.
          1   -1    0    0  501    0 -0.00000000000E+00 -0.00000000000E+00 -0.86194272864E+03  0.86194272864E+03  0.00000000000E+00 0. -1.
         25    2    1    2    0    0  0.76013282659E+02 -0.10029814233E+02  0.24967688282E+03  0.28955509052E+03  0.12499995326E+03 0.  0.
          2    1    1    2  501    0 -0.66337042223E+02 -0.29193382569E+02 -0.83726599543E+03  0.84039705131E+03  0.00000000000E+00 0. -1.
          1    1    1    2  502    0 -0.96762404365E+01  0.39223196802E+02  0.12545625721E+03  0.13180046005E+03  0.00000000000E+00 0. -1.
         22    1    3    3    0    0  0.74736328105E+02 -0.14974933289E+02  0.53059295967E+02  0.92871180967E+02  0.00000000000E+00 0. -1.
         22    1    3    3    0    0  0.12769545541E+01  0.49451190562E+01  0.19661758686E+03  0.19668390955E+03  0.00000000000E+00 0. -1.
</event>
<event>
 7    1  0.6188600E-006  0.8239051E+02  0.7818608E-02  0.1401599E+00
          2   -1    0    0  502    0  0.00000000000E+00  0.00000000000E+00  0.78707042944E+03  0.78707042944E+03  0.00000000000E+00 0. -1.
          1   -1    0    0  501    0 -0.00000000000E+00 -0.00000000000E+00 -0.17655134893E+03  0.17655134893E+03  0.00000000000E+00 0. -1.
         25    2    1    2    0    0 -0.30987674234E+02  0.43021421542E+02  0.46519547574E+02  0.14352633838E+03  0.12499865134E+03 0.  0.
          2    1    1    2  501    0  0.73080660105E+02 -0.48194198514E+02 -0.11234368126E+03  0.14242389677E+03  0.00000000000E+00 0. -1.
          1    1    1    2  502    0 -0.42092985871E+02  0.51727769721E+01  0.67634321420E+03  0.67767154321E+03  0.00000000000E+00 0. -1.
         22    1    3    3    0    0  0.44068597641E+02  0.28292638886E+02 -0.29216740631E+01  0.52450461318E+02  0.00000000000E+00 0. -1.
         22    1    3    3    0    0 -0.75056271876E+02  0.14728782656E+02  0.49441221637E+02  0.91075877066E+02  0.00000000000E+00 0. -1.
</event>
<event>
 7    1  0.6188600E-006  0.1394181E+03  0.7818608E-02  0.1368970E+00
          2   -1    0    0  502    0  0.00000000000E+00  0.00000000000E+00  0.41651788845E+03  0.41651788845E+03  0.00000000000E+00 0. -1.
          1   -1    0    0  501    0 -0.00000000000E+00 -0.00000000000E+00 -0.13206057045E+04  0.13206057045E+04  0.00000000000E+00 0. -1.
         25    2    1    2    0    0  0.46767380790E+02  0.16423401737E+03 -0.83255607786E+03  0.85903224943E+03  0.12500712948E+03 0.  0.
          2    1    1    2  501    0 -0.15167478723E+02 -0.28897776551E+02 -0.46224572895E+03  0.46339642622E+03  0.00000000000E+00 0. -1.
          1    1    1    2  502    0 -0.31599902067E+02 -0.13533624082E+03  0.39071399074E+03  0.41469491732E+03  0.00000000000E+00 0. -1.
         22    1    3    3    0    0  0.32755163724E+02  0.32725384071E+02 -0.62945063149E+02  0.78140466393E+02  0.00000000000E+00 0. -1.
         22    1    3    3    0    0  0.14012217067E+02  0.13150863330E+03 -0.76961101471E+03  0.78089178304E+03  0.00000000000E+00 0. -1.
</event>
<event>
 7    1  0.6188600E-006  0.1408846E+03  0.7818608E-02  0.1353549E+00
          2   -1    0    0  502    0  0.00000000000E+00  0.00000000000E+00  0.11910663552E+04  0.11910663552E+04  0.00000000000E+00 0. -1.
          1   -1    0    0  501    0 -0.00000000000E+00 -0.00000000000E+00 -0.52419478754E+02  0.52419478754E+02  0.00000000000E+00 0. -1.
         25    2    1    2    0    0  0.46683452148E+02  0.10807342004E+03  0.47037436567E+03  0.50073597337E+03  0.12500104929E+03 0.  0.
          2    1    1    2  501    0  0.78633189083E+01  0.35905283799E+02 -0.16926086741E+02  0.40466203199E+02  0.00000000000E+00 0. -1.
          1    1    1    2  502    0 -0.54546771056E+02 -0.14397870384E+03  0.68519859749E+03  0.70228365736E+03  0.00000000000E+00 0. -1.
         22    1    3    3    0    0 -0.13155151269E+02  0.83013991323E+02  0.13411491195E+03  0.15827567839E+03  0.00000000000E+00 0. -1.
         22    1    3    3    0    0  0.59838603417E+02  0.25059428719E+02  0.33625945371E+03  0.34246029498E+03  0.00000000000E+00 0. -1.
</event>
<event>
 7    1  0.6188600E-006  0.7857208E+02  0.7818608E-02  0.1370525E+00
          2   -1    0    0  502    0  0.00000000000E+00  0.00000000000E+00  0.60932151047E+03  0.60932151047E+03  0.00000000000E+00 0. -1.
          1   -1    0    0  501    0 -0.00000000000E+00 -0.00000000000E+00 -0.87197731398E+02  0.87197731398E+02  0.00000000000E+00 0. -1.
         25    2    1    2    0    0 -0.26949207012E+02  0.98152306900E+02  0.42210293025E+03  0.45183654297E+03  0.12500097091E+03 0.  0.
          2    1    1    2  501    0  0.59288020019E+02 -0.51009131356E+02 -0.43994131163E+02  0.89735636044E+02  0.00000000000E+00 0. -1.
          1    1    1    2  502    0 -0.32338813007E+02 -0.47143175543E+02  0.14401497998E+03  0.15494706285E+03  0.00000000000E+00 0. -1.
         22    1    3    3    0    0 -0.32379883305E+02  0.64277936329E+00  0.26416797914E+03  0.26614580818E+03  0.00000000000E+00 0.  1.
         22    1    3    3    0    0  0.54306762925E+01  0.97509527536E+02  0.15793495112E+03  0.18569073480E+03  0.00000000000E+00 0.  1.
</event>
<event>
 7    1  0.6188600E-006  0.1421085E+03  0.7818608E-02  0.1425236E+00
          2   -1    0    0  502    0  0.00000000000E+00  0.00000000000E+00  0.17644634430E+03  0.17644634430E+03  0.00000000000E+00 0. -1.
          1   -1    0    0  501    0 -0.00000000000E+00 -0.00000000000E+00 -0.15584007903E+04  0.15584007903E+04  0.00000000000E+00 0. -1.
         25    2    1    2    0    0  0.10331959024E+03  0.10124525904E+03 -0.21818449219E+03  0.29009422424E+03  0.12499858439E+03 0.  0.
          2    1    1    2  501    0 -0.11442059025E+03 -0.84052589493E+02 -0.12996291321E+04  0.13073610023E+04  0.00000000000E+00 0. -1.
          1    1    1    2  502    0  0.11101000006E+02 -0.17192669543E+02  0.13585917828E+03  0.13739190810E+03  0.00000000000E+00 0. -1.
         22    1    3    3    0    0  0.24991756283E+02  0.93555881488E+02 -0.61392831871E+02  0.11465762359E+03  0.00000000000E+00 0. -1.
         22    1    3    3    0    0  0.78327833961E+02  0.76893775485E+01 -0.15679166032E+03  0.17543660065E+03  0.00000000000E+00 0. -1.
</event>
<event>
 7    1  0.6188600E-006  0.6881850E+02  0.7818608E-02  0.1451189E+00
          2   -1    0    0  502    0  0.00000000000E+00  0.00000000000E+00  0.29119805512E+04  0.29119805512E+04  0.00000000000E+00 0. -1.
          1   -1    0    0  501    0 -0.00000000000E+00 -0.00000000000E+00 -0.92544431419E+03  0.92544431419E+03  0.00000000000E+00 0. -1.
         25    2    1    2    0    0  0.43198801517E+02  0.93547325783E+02  0.13196745001E+03  0.20894556557E+03  0.12500241155E+03 0.  0.
          2    1    1    2  501    0 -0.11834850399E+02 -0.32717234337E+02 -0.88618671435E+03  0.88686942320E+03  0.00000000000E+00 0. -1.
          1    1    1    2  502    0 -0.31363951119E+02 -0.60830091446E+02  0.27407555013E+04  0.27416098766E+04  0.00000000000E+00 0. -1.
         22    1    3    3    0    0 -0.16623803540E+02  0.46652306880E+02 -0.75181810323E+01  0.50093029728E+02  0.00000000000E+00 0. -1.
         22    1    3    3    0    0  0.59822605057E+02  0.46895018904E+02  0.13948563105E+03  0.15885253584E+03  0.00000000000E+00 0. -1.
</event>
<event>
 7    1  0.6188600E-006  0.5370081E+02  0.7818608E-02  0.1464135E+00
          2   -1    0    0  502    0  0.00000000000E+00  0.00000000000E+00  0.36871940383E+02  0.36871940383E+02  0.00000000000E+00 0. -1.
          1   -1    0    0  501    0 -0.00000000000E+00 -0.00000000000E+00 -0.74541017508E+03  0.74541017508E+03  0.00000000000E+00 0. -1.
         25    2    1    2    0    0  0.19119916492E+02 -0.18168980922E+02 -0.24745839594E+03  0.27848995442E+03  0.12500125566E+03 0.  0.
          2    1    1    2  501    0 -0.57327439366E+02  0.45202420372E+01 -0.45960984335E+03  0.46319334624E+03  0.00000000000E+00 0. -1.
          1    1    1    2  502    0  0.38207522874E+02  0.13648738885E+02 -0.14699954028E+01  0.40598814808E+02  0.00000000000E+00 0. -1.
         22    1    3    3    0    0 -0.28114151202E+02 -0.15721949652E+02 -0.64074826947E+01  0.32842670920E+02  0.00000000000E+00 0. -1.
         22    1    3    3    0    0  0.47234067694E+02 -0.24470312695E+01 -0.24105091325E+03  0.24564728350E+03  0.00000000000E+00 0. -1.
</event>
<event>
 7    1  0.6188600E-006  0.7374066E+02  0.7818608E-02  0.1422971E+00
          2   -1    0    0  502    0  0.00000000000E+00  0.00000000000E+00  0.11270819189E+03  0.11270819189E+03  0.00000000000E+00 0. -1.
          1   -1    0    0  501    0 -0.00000000000E+00 -0.00000000000E+00 -0.17214862780E+04  0.17214862780E+04  0.00000000000E+00 0. -1.
         25    2    1    2    0    0 -0.43295045972E+02  0.70473322936E+02 -0.34127128210E+03  0.37273555847E+03  0.12499903323E+03 0.  0.
          2    1    1    2  501    0  0.39997590971E+02  0.32326134698E+01 -0.13501085369E+04  0.13507047488E+04  0.00000000000E+00 0. -1.
          1    1    1    2  502    0  0.32974550005E+01 -0.73705936406E+02  0.82601732856E+02  0.11075416264E+03  0.00000000000E+00 0. -1.
         22    1    3    3    0    0 -0.22532263844E+02  0.28900100509E+01  0.14832135717E+01  0.22765214573E+02  0.00000000000E+00 0. -1.
         22    1    3    3    0    0 -0.20762782128E+02  0.67583312885E+02 -0.34275449567E+03  0.34997034389E+03  0.00000000000E+00 0. -1.
</event>
<event>
 7    1  0.6188600E-006  0.1178954E+03  0.7818608E-02  0.1248058E+00
          2   -1    0    0  502    0  0.00000000000E+00  0.00000000000E+00  0.75436174044E+03  0.75436174044E+03  0.00000000000E+00 0. -1.
          1   -1    0    0  501    0 -0.00000000000E+00 -0.00000000000E+00 -0.80391569726E+03  0.80391569726E+03  0.00000000000E+00 0. -1.
         25    2    1    2    0    0  0.32380088978E+02 -0.14590554228E+03  0.30681068397E+03  0.36346462968E+03  0.12504736623E+03 0.  0.
          2    1    1    2  501    0 -0.10464247747E+03  0.54914059389E+02 -0.76289967150E+03  0.77199838781E+03  0.00000000000E+00 0. -1.
          1    1    1    2  502    0  0.72262388490E+02  0.90991482888E+02  0.40653503070E+03  0.42281442021E+03  0.00000000000E+00 0. -1.
         22    1    3    3    0    0 -0.41517043899E+02 -0.32803809101E+02  0.13429242884E+03  0.14434060852E+03  0.00000000000E+00 0. -1.
         22    1    3    3    0    0  0.73897132876E+02 -0.11310173318E+03  0.17251825514E+03  0.21912402116E+03  0.00000000000E+00 0. -1.
</event>
<event>
 7    1  0.6188600E-006  0.8641893E+02  0.7818608E-02  0.1369966E+00
          2   -1    0    0  502    0  0.00000000000E+00  0.00000000000E+00  0.92113672306E+03  0.92113672306E+03  0.00000000000E+00 0. -1.
          1   -1    0    0  501    0 -0.00000000000E+00 -0.00000000000E+00 -0.22621389447E+03  0.22621389447E+03  0.00000000000E+00 0. -1.
         25    2    1    2    0    0 -0.30359186892E+02  0.77847880737E+02  0.74855031698E+02  0.16796555631E+03  0.12500871799E+03 0.  0.
          2    1    1    2  501    0 -0.42718555091E+02 -0.30032109012E+02 -0.17341724865E+03  0.18110865426E+03  0.00000000000E+00 0. -1.
          1    1    1    2  502    0  0.73077741982E+02 -0.47815771725E+02  0.79348504554E+03  0.79827640695E+03  0.00000000000E+00 0. -1.
         22    1    3    3    0    0 -0.43788736396E+02  0.10462365236E+03  0.78289551557E+02  0.13781442578E+03  0.00000000000E+00 0. -1.
         22    1    3    3    0    0  0.13429549504E+02 -0.26775771626E+02 -0.34345198592E+01  0.30151130538E+02  0.00000000000E+00 0. -1.
</event>
<event>
 7    1  0.6188600E-006  0.5793290E+02  0.7818608E-02  0.1435156E+00
          2   -1    0    0  502    0  0.00000000000E+00  0.00000000000E+00  0.22510659672E+04  0.22510659672E+04  0.00000000000E+00 0. -1.
          1   -1    0    0  501    0 -0.00000000000E+00 -0.00000000000E+00 -0.93299143495E+03  0.93299143495E+03  0.00000000000E+00 0. -1.
         25    2    1    2    0    0 -0.20990203570E+01 -0.32528182185E+02  0.85805365285E+03  0.86772340462E+03  0.12500138893E+03 0.  0.
          2    1    1    2  501    0 -0.45783019520E+02 -0.84981534327E+01 -0.92685575165E+03  0.92802472373E+03  0.00000000000E+00 0. -1.
          1    1    1    2  502    0  0.47882039877E+02  0.41026335617E+02  0.13868766311E+04  0.13883092738E+04  0.00000000000E+00 0. -1.
         22    1    3    3    0    0 -0.52758071747E+02 -0.51941299924E+02  0.54463698072E+03  0.54964602567E+03  0.00000000000E+00 0.  1.
         22    1    3    3    0    0  0.50659051390E+02  0.19413117739E+02  0.31341667213E+03  0.31807737894E+03  0.00000000000E+00 0.  1.
</event>
<event>
 7    1  0.6188600E-006  0.1218590E+03  0.7818608E-02  0.1382945E+00
          2   -1    0    0  502    0  0.00000000000E+00  0.00000000000E+00  0.27136868624E+03  0.27136868624E+03  0.00000000000E+00 0. -1.
          1   -1    0    0  501    0 -0.00000000000E+00 -0.00000000000E+00 -0.54981682724E+03  0.54981682724E+03  0.00000000000E+00 0. -1.
         25    2    1    2    0    0  0.93904251385E+02  0.33795612224E+01  0.77883454257E+02  0.17469366978E+03  0.12499046345E+03 0.  0.
          2    1    1    2  501    0 -0.12292266646E+03  0.12943084092E+02 -0.49174727209E+03  0.50704327721E+03  0.00000000000E+00 0. -1.
          1    1    1    2  502    0  0.29018415077E+02 -0.16322645314E+02  0.13541567684E+03  0.13944856649E+03  0.00000000000E+00 0. -1.
         22    1    3    3    0    0  0.26302066040E+02 -0.47724674180E+02 -0.67692728069E+01  0.54911440136E+02  0.00000000000E+00 0.  1.
         22    1    3    3    0    0  0.67602185345E+02  0.51104235402E+02  0.84652727064E+02  0.11978222965E+03  0.00000000000E+00 0.  1.
</event>
<event>
 7    1  0.6188600E-006  0.1168766E+03  0.7818608E-02  0.1404978E+00
          2   -1    0    0  502    0  0.00000000000E+00  0.00000000000E+00  0.16984289589E+04  0.16984289589E+04  0.00000000000E+00 0. -1.
          1   -1    0    0  501    0 -0.00000000000E+00 -0.00000000000E+00 -0.11018296002E+03  0.11018296002E+03  0.00000000000E+00 0. -1.
         25    2    1    2    0    0 -0.90225010480E+02  0.15086152605E+02  0.15626129642E+03  0.22002736112E+03  0.12500520937E+03 0.  0.
          2    1    1    2  501    0 -0.24465484444E+02  0.15775531465E+02 -0.73171521493E+02  0.78749596061E+02  0.00000000000E+00 0. -1.
          1    1    1    2  502    0  0.11469049492E+03 -0.30861684071E+02  0.15051562239E+04  0.15098349617E+04  0.00000000000E+00 0. -1.
         22    1    3    3    0    0 -0.10039475516E+03  0.43298929308E+02  0.72830910276E+02  0.13137064221E+03  0.00000000000E+00 0.  1.
         22    1    3    3    0    0  0.10169744685E+02 -0.28212776702E+02  0.83430386143E+02  0.88656718912E+02  0.00000000000E+00 0.  1.
</event>
<event>
 7    1  0.6188600E-006  0.8270369E+02  0.7818608E-02  0.1428601E+00
          2   -1    0    0  502    0  0.00000000000E+00  0.00000000000E+00  0.16585356767E+04  0.16585356767E+04  0.00000000000E+00 0. -1.
          1   -1    0    0  501    0 -0.00000000000E+00 -0.00000000000E+00 -0.28276172360E+03  0.28276172360E+03  0.00000000000E+00 0. -1.
         25    2    1    2    0    0 -0.92893516130E+02  0.48837481051E+02  0.37421256585E+02  0.16745127947E+03  0.12500110263E+03 0.  0.
          2    1    1    2  501    0  0.59298629895E+02 -0.55633503963E+02 -0.20995971045E+03  0.22515437878E+03  0.00000000000E+00 0. -1.
          1    1    1    2  502    0  0.33594886235E+02  0.67960229118E+01  0.15483124070E+04  0.15486917421E+04  0.00000000000E+00 0. -1.
         22    1    3    3    0    0 -0.96164777927E+02  0.58628067038E+02  0.70450542606E+02  0.13284650433E+03  0.00000000000E+00 0.  1.
         22    1    3    3    0    0  0.32712617966E+01 -0.97905859873E+01 -0.33029286021E+02  0.34604775144E+02  0.00000000000E+00 0.  1.
</event>
<event>
 7    1  0.6188600E-006  0.8682266E+02  0.7818608E-02  0.1453027E+00
          2   -1    0    0  502    0  0.00000000000E+00  0.00000000000E+00  0.35446901847E+03  0.35446901847E+03  0.00000000000E+00 0. -1.
          1   -1    0    0  501    0 -0.00000000000E+00 -0.00000000000E+00 -0.22550957662E+03  0.22550957662E+03  0.00000000000E+00 0. -1.
         25    2    1    2    0    0  0.85281739956E+02 -0.10255616471E+02 -0.13421049413E+03  0.20252233677E+03  0.12499874926E+03 0.  0.
          2    1    1    2  501    0 -0.63997870766E+01 -0.26443992525E+02 -0.47551296651E+02  0.54784740836E+02  0.00000000000E+00 0. -1.
          1    1    1    2  502    0 -0.78881952880E+02  0.36699608996E+02  0.31072123263E+03  0.32267151749E+03  0.00000000000E+00 0. -1.
         22    1    3    3    0    0  0.60436790860E+02  0.44021935420E+02 -0.26408525922E+02  0.79296574510E+02  0.00000000000E+00 0. -1.
         22    1    3    3    0    0  0.24844949096E+02 -0.54277551891E+02 -0.10780196821E+03  0.12322576226E+03  0.00000000000E+00 0. -1.
</event>
<event>
 7    1  0.6188600E-006  0.9922796E+02  0.7818608E-02  0.1385681E+00
          2   -1    0    0  502    0  0.00000000000E+00  0.00000000000E+00  0.18840525457E+04  0.18840525457E+04  0.00000000000E+00 0. -1.
          1   -1    0    0  501    0 -0.00000000000E+00 -0.00000000000E+00 -0.15114987182E+03  0.15114987182E+03  0.00000000000E+00 0. -1.
         25    2    1    2    0    0 -0.10242440326E+02 -0.81945813193E+02  0.83877425259E+01  0.15005140596E+03  0.12500018529E+03 0.  0.
          2    1    1    2  501    0  0.47000284142E+02  0.97697931926E+02 -0.43403095126E+02  0.11678074019E+03  0.00000000000E+00 0. -1.
          1    1    1    2  502    0 -0.36757843816E+02 -0.15752118733E+02  0.17679180265E+04  0.17683702714E+04  0.00000000000E+00 0. -1.
         22    1    3    3    0    0 -0.61004500521E+02 -0.64697819135E+02  0.27588222507E+02  0.93104601958E+02  0.00000000000E+00 0.  1.
         22    1    3    3    0    0  0.50762060195E+02 -0.17247994058E+02 -0.19200479981E+02  0.56946803999E+02  0.00000000000E+00 0.  1.
</event>
<event>
 7    1  0.6188600E-006  0.8132516E+02  0.7818608E-02  0.1328180E+00
          2   -1    0    0  502    0  0.00000000000E+00  0.00000000000E+00  0.55490816015E+03  0.55490816015E+03  0.00000000000E+00 0. -1.
          1   -1    0    0  501    0 -0.00000000000E+00 -0.00000000000E+00 -0.57545058984E+03  0.57545058984E+03  0.00000000000E+00 0. -1.
         25    2    1    2    0    0 -0.23081053683E+01  0.22327029241E+02  0.31008989019E+02  0.13072984069E+03  0.12499964104E+03 0.  0.
          2    1    1    2  501    0 -0.81069371844E+02 -0.64450631878E+01 -0.51859636113E+03  0.52493425081E+03  0.00000000000E+00 0. -1.
          1    1    1    2  502    0  0.83377477212E+02 -0.15881966053E+02  0.46704494242E+03  0.47469465849E+03  0.00000000000E+00 0. -1.
         22    1    3    3    0    0  0.18818037240E+02  0.53048840661E+02  0.60910525027E+02  0.82936060192E+02  0.00000000000E+00 0. -1.
         22    1    3    3    0    0 -0.21126142608E+02 -0.30721811421E+02 -0.29901536008E+02  0.47793780496E+02  0.00000000000E+00 0. -1.
</event>
<event>
 7    1  0.6188600E-006  0.9968916E+02  0.7818608E-02  0.1334343E+00
          2   -1    0    0  502    0  0.00000000000E+00  0.00000000000E+00  0.63410827004E+03  0.63410827004E+03  0.00000000000E+00 0. -1.
          1   -1    0    0  501    0 -0.00000000000E+00 -0.00000000000E+00 -0.94169463813E+03  0.94169463813E+03  0.00000000000E+00 0. -1.
         25    2    1    2    0    0 -0.14319246908E+02 -0.95803525621E+02 -0.17630617346E+03  0.23683926162E+03  0.12500245073E+03 0.  0.
          2    1    1    2  501    0 -0.46747914272E+02  0.90615196168E+02 -0.73001447907E+03  0.73710082140E+03  0.00000000000E+00 0. -1.
          1    1    1    2  502    0  0.61067161180E+02  0.51883294537E+01  0.59873428444E+03  0.60186282515E+03  0.00000000000E+00 0. -1.
         22    1    3    3    0    0  0.97041158179E+01 -0.68436598828E+02 -0.14034209061E+02  0.70531531579E+02  0.00000000000E+00 0.  1.
         22    1    3    3    0    0 -0.24023362726E+02 -0.27366926793E+02 -0.16227196440E+03  0.16630773004E+03  0.00000000000E+00 0.  1.
</event>
<event>
 7    1  0.6188600E-006  0.2770883E+02  0.7818608E-02  0.1663537E+00
          2   -1    0    0  502    0  0.00000000000E+00  0.00000000000E+00  0.83738146263E+03  0.83738146263E+03  0.00000000000E+00 0. -1.
          1   -1    0    0  501    0 -0.00000000000E+00 -0.00000000000E+00 -0.34672295178E+02  0.34672295178E+02  0.00000000000E+00 0. -1.
         25    2    1    2    0    0  0.13653214513E+02  0.12255060989E+02  0.40230207086E+03  0.42167363594E+03  0.12500040896E+03 0.  0.
          2    1    1    2  501    0 -0.27557841169E+02  0.51025550314E+01 -0.16737051952E+02  0.32643522876E+02  0.00000000000E+00 0. -1.
          1    1    1    2  502    0  0.13904626656E+02 -0.17357616021E+02  0.41714414854E+03  0.41773659899E+03  0.00000000000E+00 0. -1.
         22    1    3    3    0    0 -0.41381994148E+02 -0.34683747787E+02  0.16914823526E+03  0.17755719443E+03  0.00000000000E+00 0.  1.
         22    1    3    3    0    0  0.55035208661E+02  0.46938808776E+02  0.23315383560E+03  0.24411644151E+03  0.00000000000E+00 0.  1.
</event>
<event>
 7    1  0.6188600E-006  0.4835193E+02  0.7818608E-02  0.1468054E+00
          2   -1    0    0  502    0  0.00000000000E+00  0.00000000000E+00  0.11027032722E+04  0.11027032722E+04  0.00000000000E+00 0. -1.
          1   -1    0    0  501    0 -0.00000000000E+00 -0.00000000000E+00 -0.31052401798E+03  0.31052401798E+03  0.00000000000E+00 0. -1.
         25    2    1    2    0    0 -0.66608708419E+02  0.60876584093E+02 -0.32519381773E+02  0.15755873979E+03  0.12499827104E+03 0.  0.
          2    1    1    2  501    0  0.36552393225E+02 -0.29007802624E+02 -0.21249086951E+03  0.21755436031E+03  0.00000000000E+00 0. -1.
          1    1    1    2  502    0  0.30056315193E+02 -0.31868781469E+02  0.10371895055E+04  0.10381141901E+04  0.00000000000E+00 0. -1.
         22    1    3    3    0    0 -0.94697243986E+02  0.67303583490E+02 -0.28687604729E+01  0.11621346805E+03  0.00000000000E+00 0. -1.
         22    1    3    3    0    0  0.28088535567E+02 -0.64269993970E+01 -0.29650621300E+02  0.41345271737E+02  0.00000000000E+00 0. -1.
</event>
<event>
 7    1  0.6188600E-006  0.3262951E+02  0.7818608E-02  0.1571162E+00
          2   -1    0    0  502    0  0.00000000000E+00  0.00000000000E+00  0.10540727373E+04  0.10540727373E+04  0.00000000000E+00 0. -1.
          1   -1    0    0  501    0 -0.00000000000E+00 -0.00000000000E+00 -0.42890795097E+02  0.42890795097E+02  0.00000000000E+00 0. -1.
         25    2    1    2    0    0  0.84399438724E+01 -0.12491760045E+02  0.30454507090E+03  0.32954509214E+03  0.12499996327E+03 0.  0.
          2    1    1    2  501    0  0.23539270935E+02  0.22465708327E+02 -0.21183791093E+02  0.38827288495E+02  0.00000000000E+00 0. -1.
          1    1    1    2  502    0 -0.31979214807E+02 -0.99739482825E+01  0.72782066240E+03  0.72859115177E+03  0.00000000000E+00 0. -1.
         22    1    3    3    0    0  0.42211733418E+02  0.28217906723E+02  0.56669856619E+02  0.76089114512E+02  0.00000000000E+00 0. -1.
         22    1    3    3    0    0 -0.33771789546E+02 -0.40709666768E+02  0.24787521428E+03  0.25345597762E+03  0.00000000000E+00 0. -1.
</event>
<event>
 7    1  0.6188600E-006  0.6628928E+02  0.7818608E-02  0.1409803E+00
          2   -1    0    0  502    0  0.00000000000E+00  0.00000000000E+00  0.21681122456E+04  0.21681122456E+04  0.00000000000E+00 0. -1.
          1   -1    0    0  501    0 -0.00000000000E+00 -0.00000000000E+00 -0.12232537404E+02  0.12232537404E+02  0.00000000000E+00 0. -1.
         25    2    1    2    0    0  0.72119016364E+02 -0.19437321022E+02  0.57559418638E+03  0.59372781095E+03  0.12500033655E+03 0.  0.
          2    1    1    2  501    0 -0.34105729105E+02 -0.35768312291E+02  0.26150763585E+03  0.26613683798E+03  0.00000000000E+00 0. -1.
          1    1    1    2  502    0 -0.38013287259E+02  0.55205633313E+02  0.13187778859E+04  0.13204801340E+04  0.00000000000E+00 0. -1.
         22    1    3    3    0    0  0.75041118986E+02  0.37619827642E+02  0.41143633627E+03  0.41991222866E+03  0.00000000000E+00 0. -1.
         22    1    3    3    0    0 -0.29221026218E+01 -0.57057148665E+02  0.16415785011E+03  0.17381558230E+03  0.00000000000E+00 0. -1.
</event>
<event>
 7    1  0.6188600E-006  0.9289080E+02  0.7818608E-02  0.1379456E+00
          2   -1    0    0  502    0  0.00000000000E+00  0.00000000000E+00  0.73211568461E+03  0.73211568461E+03  0.00000000000E+00 0. -1.
          1   -1    0    0  501    0 -0.00000000000E+00 -0.00000000000E+00 -0.91411395827E+02  0.91411395827E+02  0.00000000000E+00 0. -1.
         25    2    1    2    0    0  0.52817127297E+02 -0.57062101828E+02  0.20827567819E+03  0.25504598403E+03  0.12499585371E+03 0.  0.
          2    1    1    2  501    0 -0.90591231130E+02  0.32725371663E+02 -0.32294483663E+02  0.10159062350E+03  0.00000000000E+00 0. -1.
          1    1    1    2  502    0  0.37774103833E+02  0.24336730165E+02  0.46472309425E+03  0.46689047290E+03  0.00000000000E+00 0. -1.
         22    1    3    3    0    0 -0.10333932250E+02  0.14551262595E+02 -0.72917333848E+01  0.19279491036E+02  0.00000000000E+00 0. -1.
         22    1    3    3    0    0  0.63151059547E+02 -0.71613364423E+02  0.21556741157E+03  0.23576649299E+03  0.00000000000E+00 0. -1.
</event>
<event>
 7    1  0.6188600E-006  0.8501778E+02  0.7818608E-02  0.1443089E+00
          2   -1    0    0  502    0  0.00000000000E+00  0.00000000000E+00  0.49275803087E+03  0.49275803087E+03  0.00000000000E+00 0. -1.
          1   -1    0    0  501    0 -0.00000000000E+00 -0.00000000000E+00 -0.32974026202E+03  0.32974026202E+03  0.00000000000E+00 0. -1.
         25    2    1    2    0    0 -0.63589443583E+02 -0.24928902000E+01  0.48357695284E+02  0.14836699372E+03  0.12499786516E+03 0.  0.
          2    1    1    2  501    0 -0.20129752405E+02 -0.22111402352E+02 -0.27408596000E+03  0.27571223135E+03  0.00000000000E+00 0. -1.
          1    1    1    2  502    0  0.83719195988E+02  0.24604292552E+02  0.38874603357E+03  0.39841906782E+03  0.00000000000E+00 0. -1.
         22    1    3    3    0    0 -0.70252964061E+02  0.17056266064E+02  0.81733174561E+02  0.10911785828E+03  0.00000000000E+00 0.  1.
         22    1    3    3    0    0  0.66635204782E+01 -0.19549156264E+02 -0.33375479277E+02  0.39249135440E+02  0.00000000000E+00 0.  1.
</event>
<event>
 7    1  0.6188600E-006  0.7410347E+02  0.7818608E-02  0.1381791E+00
          2   -1    0    0  502    0  0.00000000000E+00  0.00000000000E+00  0.46705731751E+03  0.46705731751E+03  0.00000000000E+00 0. -1.
          1   -1    0    0  501    0 -0.00000000000E+00 -0.00000000000E+00 -0.66873762081E+03  0.66873762081E+03  0.00000000000E+00 0. -1.
         25    2    1    2    0    0 -0.47959260190E+02 -0.10092114867E+02 -0.21023321765E+03  0.24944963932E+03  0.12500070135E+03 0.  0.
          2    1    1    2  501    0 -0.12556499071E+02  0.53820693775E+02 -0.43401716951E+03  0.43752169795E+03  0.00000000000E+00 0. -1.
          1    1    1    2  502    0  0.60515759261E+02 -0.43728578908E+02  0.44257008386E+03  0.44882360105E+03  0.00000000000E+00 0. -1.
         22    1    3    3    0    0 -0.23294738282E+02 -0.39590418169E+02 -0.11938463962E+02  0.47461278578E+02  0.00000000000E+00 0. -1.
         22    1    3    3    0    0 -0.24664521908E+02  0.29498303302E+02 -0.19829475368E+03  0.20198836075E+03  0.00000000000E+00 0. -1.
</event>
<event>
 7    1  0.6188600E-006  0.1087938E+03  0.7818608E-02  0.1375736E+00
          2   -1    0    0  502    0  0.00000000000E+00  0.00000000000E+00  0.98151048144E+03  0.98151048144E+03  0.00000000000E+00 0. -1.
          1   -1    0    0  501    0 -0.00000000000E+00 -0.00000000000E+00 -0.14909452609E+04  0.14909452609E+04  0.00000000000E+00 0. -1.
         25    2    1    2    0    0  0.35868550966E+02  0.70125141859E+02 -0.36345148759E+03  0.39233839127E+03  0.12501336314E+03 0.  0.
          2    1    1    2  501    0 -0.68334357145E+02 -0.92716891566E+02 -0.11096639108E+04  0.11156253857E+04  0.00000000000E+00 0. -1.
          1    1    1    2  502    0  0.32465806179E+02  0.22591749707E+02  0.96368061898E+03  0.96449196529E+03  0.00000000000E+00 0. -1.
         22    1    3    3    0    0 -0.30659709774E+02 -0.23701958448E+00 -0.22848486651E+02  0.38237773523E+02  0.00000000000E+00 0. -1.
         22    1    3    3    0    0  0.66528260740E+02  0.70362161443E+02 -0.34060300094E+03  0.35410061775E+03  0.00000000000E+00 0. -1.
</event>
<event>
 7    1  0.6188600E-006  0.1728088E+03  0.7818608E-02  0.1309532E+00
          2   -1    0    0  502    0  0.00000000000E+00  0.00000000000E+00  0.33443594075E+03  0.33443594075E+03  0.00000000000E+00 0. -1.
          1   -1    0    0  501    0 -0.00000000000E+00 -0.00000000000E+00 -0.57050663843E+03  0.57050663843E+03  0.00000000000E+00 0. -1.
         25    2    1    2    0    0  0.12295125860E+03  0.11751552106E+03 -0.18962027187E+03  0.28373944426E+03  0.12500126016E+03 0.  0.
          2    1    1    2  501    0 -0.31944158392E+02  0.30403381463E+02 -0.30586078847E+03  0.30902365085E+03  0.00000000000E+00 0. -1.
          1    1    1    2  502    0 -0.91007100211E+02 -0.14791890252E+03  0.25941036266E+03  0.31217948406E+03  0.00000000000E+00 0. -1.
         22    1    3    3    0    0  0.72296591615E+02  0.48402079117E+02 -0.13720713063E+02  0.88078467226E+02  0.00000000000E+00 0. -1.
         22    1    3    3    0    0  0.50654666989E+02  0.69113441946E+02 -0.17589955881E+03  0.19566097704E+03  0.00000000000E+00 0. -1.
</event>
<event>
 7    1  0.1281894E-005  0.1195462E+03  0.7818608E-02  0.1315858E+00
          2   -1    0    0  502    0  0.00000000000E+00  0.00000000000E+00  0.23641451845E+04  0.23641451845E+04  0.00000000000E+00 0. -1.
          1   -1    0    0  501    0 -0.00000000000E+00 -0.00000000000E+00 -0.13854691389E+04  0.13854691389E+04  0.00000000000E+00 0. -1.
         25    2    1    2    0    0 -0.21685945607E+02 -0.56100306249E+02 -0.10731813667E+03  0.17538374185E+03  0.12499899939E+03 0.  0.
          2    1    1    2  501    0 -0.15941776635E+02 -0.58056859292E+02 -0.12418383222E+04  0.12432968904E+04  0.00000000000E+00 0. -1.
          1    1    1    2  502    0  0.37627722242E+02  0.11415716554E+03  0.23278325045E+04  0.23309336912E+04  0.00000000000E+00 0. -1.
         22    1    3    3    0    0 -0.95978215915E+01 -0.90382175483E+02 -0.40899757004E+02  0.99668680875E+02  0.00000000000E+00 0. -1.
         22    1    3    3    0    0 -0.12088124015E+02  0.34281869234E+02 -0.66418379668E+02  0.75715060973E+02  0.00000000000E+00 0. -1.
</event>
<event>
 7    1  0.6188600E-006  0.6420326E+02  0.7818608E-02  0.1432932E+00
          2   -1    0    0  502    0  0.00000000000E+00  0.00000000000E+00  0.12200093007E+03  0.12200093007E+03  0.00000000000E+00 0. -1.
          1   -1    0    0  501    0 -0.00000000000E+00 -0.00000000000E+00 -0.63485851356E+03  0.63485851356E+03  0.00000000000E+00 0. -1.
         25    2    1    2    0    0  0.57249044727E+02  0.74360504418E+02 -0.68438637622E+02  0.17063368627E+03  0.12500028013E+03 0.  0.
          2    1    1    2  501    0 -0.16633320731E+02 -0.61094400021E+02 -0.50673103503E+03  0.51067165081E+03  0.00000000000E+00 0. -1.
          1    1    1    2  502    0 -0.40615723997E+02 -0.13266104397E+02  0.62312089160E+02  0.75554106554E+02  0.00000000000E+00 0. -1.
         22    1    3    3    0    0 -0.29752477098E+02  0.54413331015E+01  0.13048951591E+02  0.32940751920E+02  0.00000000000E+00 0.  1.
         22    1    3    3    0    0  0.87001521826E+02  0.68919171317E+02 -0.81487589213E+02  0.13769293435E+03  0.00000000000E+00 0.  1.
</event>
<event>
 7    1  0.6188600E-006  0.1241959E+03  0.7818608E-02  0.1331007E+00
          2   -1    0    0  502    0  0.00000000000E+00  0.00000000000E+00  0.58344703556E+03  0.58344703556E+03  0.00000000000E+00 0. -1.
          1   -1    0    0  501    0 -0.00000000000E+00 -0.00000000000E+00 -0.18620036575E+03  0.18620036575E+03  0.00000000000E+00 0. -1.
         25    2    1    2    0    0 -0.51464926162E+02  0.64525409581E+02  0.41628759940E+03  0.44241659566E+03  0.12499964636E+03 0.  0.
          2    1    1    2  501    0  0.10056516352E+03 -0.76969646269E+02 -0.14437610678E+03  0.19204723057E+03  0.00000000000E+00 0. -1.
          1    1    1    2  502    0 -0.49100237354E+02  0.12444236688E+02  0.12533517718E+03  0.13518357509E+03  0.00000000000E+00 0. -1.
         22    1    3    3    0    0  0.24851326274E+02  0.98249933856E+01  0.15746695344E+02  0.31017371372E+02  0.00000000000E+00 0. -1.
         22    1    3    3    0    0 -0.76316252435E+02  0.54700416196E+02  0.40054090406E+03  0.41139922429E+03  0.00000000000E+00 0. -1.
</event>
<event>
 7    1  0.6188600E-006  0.4761996E+02  0.7818608E-02  0.1579949E+00
          2   -1    0    0  502    0  0.00000000000E+00  0.00000000000E+00  0.26123062115E+04  0.26123062115E+04  0.00000000000E+00 0. -1.
          1   -1    0    0  501    0 -0.00000000000E+00 -0.00000000000E+00 -0.10018086239E+03  0.10018086239E+03  0.00000000000E+00 0. -1.
         25    2    1    2    0    0 -0.47729941980E+02  0.60832537426E+00  0.17294367553E+03  0.21866182589E+03  0.12499984710E+03 0.  0.
          2    1    1    2  501    0  0.44735412752E+01 -0.20632612097E+02 -0.75641078577E+02  0.78532095488E+02  0.00000000000E+00 0. -1.
          1    1    1    2  502    0  0.43256400705E+02  0.20024286722E+02  0.24148227522E+04  0.24152931525E+04  0.00000000000E+00 0. -1.
         22    1    3    3    0    0  0.32040566554E+02 -0.76997477646E+00  0.11676788104E+03  0.12108645180E+03  0.00000000000E+00 0. -1.
         22    1    3    3    0    0 -0.79770508534E+02  0.13783001507E+01  0.56175794490E+02  0.97575374094E+02  0.00000000000E+00 0. -1.
</event>
<event>
 7    1  0.6188600E-006  0.4804147E+02  0.7818608E-02  0.1508468E+00
          2   -1    0    0  502    0  0.00000000000E+00  0.00000000000E+00  0.78614199235E+03  0.78614199235E+03  0.00000000000E+00 0. -1.
          1   -1    0    0  501    0 -0.00000000000E+00 -0.00000000000E+00 -0.10144566440E+04  0.10144566440E+04  0.00000000000E+00 0. -1.
         25    2    1    2    0    0 -0.35202204118E+02  0.16872698429E+02  0.32354706955E+03  0.34904532490E+03  0.12500419792E+03 0.  0.
          2    1    1    2  501    0 -0.12887283917E+02 -0.30647160305E+02 -0.10000397540E+04  0.10005922447E+04  0.00000000000E+00 0. -1.
          1    1    1    2  502    0  0.48089488035E+02  0.13774461876E+02  0.44817803280E+03  0.45096106677E+03  0.00000000000E+00 0. -1.
         22    1    3    3    0    0  0.17741208241E+02  0.56653829239E+02  0.10426508730E+03  0.11998172889E+03  0.00000000000E+00 0. -1.
         22    1    3    3    0    0 -0.52943412359E+02 -0.39781130810E+02  0.21928198225E+03  0.22906359602E+03  0.00000000000E+00 0. -1.
</event>
<event>
 7    1  0.6188600E-006  0.7462148E+02  0.7818608E-02  0.1426832E+00
          2   -1    0    0  502    0  0.00000000000E+00  0.00000000000E+00  0.31865660648E+03  0.31865660648E+03  0.00000000000E+00 0. -1.
          1   -1    0    0  501    0 -0.00000000000E+00 -0.00000000000E+00 -0.23021563382E+03  0.23021563382E+03  0.00000000000E+00 0. -1.
         25    2    1    2    0    0 -0.41398240786E+02 -0.94475535196E+02  0.20398102554E+03  0.26052359657E+03  0.12499937801E+03 0.  0.
          2    1    1    2  501    0  0.47642864137E+02  0.56483028141E+02 -0.19036249397E+03  0.20420101391E+03  0.00000000000E+00 0. -1.
          1    1    1    2  502    0 -0.62446233511E+01  0.37992507055E+02  0.74822441091E+02  0.84147629818E+02  0.00000000000E+00 0. -1.
         22    1    3    3    0    0  0.22341024001E+02 -0.83994816802E+02  0.16091738293E+03  0.18288973381E+03  0.00000000000E+00 0. -1.
         22    1    3    3    0    0 -0.63739264787E+02 -0.10480718394E+02  0.43063642607E+02  0.77633862768E+02  0.00000000000E+00 0. -1.
</event>
<event>
 7    1  0.6188600E-006  0.7236314E+02  0.7818608E-02  0.1415623E+00
          2   -1    0    0  502    0  0.00000000000E+00  0.00000000000E+00  0.26222277920E+04  0.26222277920E+04  0.00000000000E+00 0. -1.
          1   -1    0    0  501    0 -0.00000000000E+00 -0.00000000000E+00 -0.92260472774E+03  0.92260472774E+03  0.00000000000E+00 0. -1.
         25    2    1    2    0    0  0.24470660447E+02  0.80871404884E+02  0.19443842043E+04  0.19502296345E+04  0.12500678416E+03 0.  0.
          2    1    1    2  501    0  0.17470303238E+02 -0.70222425442E+02 -0.91756246264E+03  0.92041146960E+03  0.00000000000E+00 0. -1.
          1    1    1    2  502    0 -0.41940963685E+02 -0.10648979442E+02  0.67280132260E+03  0.67419141562E+03  0.00000000000E+00 0. -1.
         22    1    3    3    0    0 -0.21377982741E+02  0.71731191193E+02  0.16852926815E+04  0.16869540018E+04  0.00000000000E+00 0.  1.
         22    1    3    3    0    0  0.45848643187E+02  0.91402136914E+01  0.25909152284E+03  0.26327563274E+03  0.00000000000E+00 0.  1.
</event>
<event>
 7    1  0.6188600E-006  0.5434547E+02  0.7818608E-02  0.1482032E+00
          2   -1    0    0  502    0  0.00000000000E+00  0.00000000000E+00  0.38453360482E+03  0.38453360482E+03  0.00000000000E+00 0. -1.
          1   -1    0    0  501    0 -0.00000000000E+00 -0.00000000000E+00 -0.90554947113E+02  0.90554947113E+02  0.00000000000E+00 0. -1.
         25    2    1    2    0    0  0.42177552738E+02  0.54560461738E+02  0.88760840185E+02  0.16810606991E+03  0.12500149618E+03 0.  0.
          2    1    1    2  501    0 -0.69178936886E+01 -0.53182787363E+02 -0.35094814227E+02  0.64092995798E+02  0.00000000000E+00 0. -1.
          1    1    1    2  502    0 -0.35259659050E+02 -0.13776743755E+01  0.24031263175E+03  0.24288948623E+03  0.00000000000E+00 0. -1.
         22    1    3    3    0    0  0.30913641351E+02  0.32199058620E+02  0.12002225978E+03  0.12805379901E+03  0.00000000000E+00 0. -1.
         22    1    3    3    0    0  0.11263911387E+02  0.22361403118E+02 -0.31261419593E+02  0.40052270899E+02  0.00000000000E+00 0. -1.
</event>
<event>
 7    1  0.6188600E-006  0.7748676E+02  0.7818608E-02  0.1477155E+00
          2   -1    0    0  502    0  0.00000000000E+00  0.00000000000E+00  0.14751764079E+04  0.14751764079E+04  0.00000000000E+00 0. -1.
          1   -1    0    0  501    0 -0.00000000000E+00 -0.00000000000E+00 -0.10969081228E+02  0.10969081228E+02  0.00000000000E+00 0. -1.
         25    2    1    2    0    0 -0.61520511938E+02 -0.27784868869E+02  0.79152236820E+03  0.80416870960E+03  0.12499152694E+03 0.  0.
          2    1    1    2  501    0  0.82880846696E+02  0.13645356378E+02  0.44524578763E+03  0.45309959380E+03  0.00000000000E+00 0. -1.
          1    1    1    2  502    0 -0.21360334758E+02  0.14139512492E+02  0.22743917082E+03  0.22887718570E+03  0.00000000000E+00 0. -1.
         22    1    3    3    0    0 -0.79020063714E+02 -0.61856833310E+01  0.25748989704E+03  0.26941321464E+03  0.00000000000E+00 0.  1.
         22    1    3    3    0    0  0.17499551776E+02 -0.21599185538E+02  0.53403247117E+03  0.53475549496E+03  0.00000000000E+00 0.  1.
</event>
<event>
 7    1  0.6188600E-006  0.2080721E+03  0.7818608E-02  0.1236032E+00
          2   -1    0    0  502    0  0.00000000000E+00  0.00000000000E+00  0.15905367464E+04  0.15905367464E+04  0.00000000000E+00 0. -1.
          1   -1    0    0  501    0 -0.00000000000E+00 -0.00000000000E+00 -0.22556413114E+04  0.22556413114E+04  0.00000000000E+00 0. -1.
         25    2    1    2    0    0 -0.16546050218E+03  0.17721679981E+02 -0.33226203860E+03  0.39206399621E+03  0.12499951641E+03 0.  0.
          2    1    1    2  501    0 -0.38484435835E+02 -0.63624943646E+02 -0.18857418093E+04  0.18872072903E+04  0.00000000000E+00 0. -1.
          1    1    1    2  502    0  0.20394493802E+03  0.45903263665E+02  0.15528992828E+04  0.15669067713E+04  0.00000000000E+00 0. -1.
         22    1    3    3    0    0 -0.12663401589E+02  0.44368652785E+02 -0.39436515451E+02  0.60697428617E+02  0.00000000000E+00 0. -1.
         22    1    3    3    0    0 -0.15279710060E+03 -0.26646972803E+02 -0.29282552315E+03  0.33136656759E+03  0.00000000000E+00 0. -1.
</event>
<event>
 7    1  0.6188600E-006  0.8910127E+02  0.7818608E-02  0.1308521E+00
          2   -1    0    0  502    0  0.00000000000E+00  0.00000000000E+00  0.63319806774E+03  0.63319806774E+03  0.00000000000E+00 0. -1.
          1   -1    0    0  501    0 -0.00000000000E+00 -0.00000000000E+00 -0.73423462472E+03  0.73423462472E+03  0.00000000000E+00 0. -1.
         25    2    1    2    0    0 -0.28795172499E+02  0.55292056781E+01 -0.23299195636E+03  0.26604210033E+03  0.12503364883E+03 0.  0.
          2    1    1    2  501    0  0.72344892705E+02 -0.83262451636E+02 -0.47514840376E+03  0.48778317411E+03  0.00000000000E+00 0. -1.
          1    1    1    2  502    0 -0.43549720205E+02  0.77733245958E+02  0.60710380314E+03  0.61360741802E+03  0.00000000000E+00 0. -1.
         22    1    3    3    0    0 -0.74143151025E+02 -0.85980262535E+01 -0.99726688886E+02  0.12456542608E+03  0.00000000000E+00 0. -1.
         22    1    3    3    0    0  0.45347978526E+02  0.14127231932E+02 -0.13326526748E+03  0.14147667424E+03  0.00000000000E+00 0. -1.
</event>
<event>
 7    1  0.6188600E-006  0.3046831E+02  0.7818608E-02  0.1593744E+00
          2   -1    0    0  502    0  0.00000000000E+00  0.00000000000E+00  0.17116854589E+04  0.17116854589E+04  0.00000000000E+00 0. -1.
          1   -1    0    0  501    0 -0.00000000000E+00 -0.00000000000E+00 -0.36552885610E+03  0.36552885610E+03  0.00000000000E+00 0. -1.
         25    2    1    2    0    0 -0.32342663457E+02  0.43855053989E+02 -0.71281656283E+02  0.15386689058E+03  0.12499852740E+03 0.  0.
          2    1    1    2  501    0  0.26957585516E+02 -0.13889496684E+02 -0.25190639019E+03  0.25372516422E+03  0.00000000000E+00 0. -1.
          1    1    1    2  502    0  0.53850779408E+01 -0.29965557306E+02  0.16693446493E+04  0.16696222602E+04  0.00000000000E+00 0. -1.
         22    1    3    3    0    0 -0.26984137182E+01 -0.15175211519E+02  0.29548054343E+02  0.33326505918E+02  0.00000000000E+00 0.  1.
         22    1    3    3    0    0 -0.29644249739E+02  0.59030265508E+02 -0.10082971063E+03  0.12054038466E+03  0.00000000000E+00 0.  1.
</event>
<event>
 7    1  0.6188600E-006  0.2435133E+03  0.7818608E-02  0.1298302E+00
          2   -1    0    0  502    0  0.00000000000E+00  0.00000000000E+00  0.16048065425E+04  0.16048065425E+04  0.00000000000E+00 0. -1.
          1   -1    0    0  501    0 -0.00000000000E+00 -0.00000000000E+00 -0.16920962896E+03  0.16920962896E+03  0.00000000000E+00 0. -1.
         25    2    1    2    0    0  0.23963861762E+03  0.70236244578E+02  0.35832717287E+03  0.45429453647E+03  0.12500146377E+03 0.  0.
          2    1    1    2  501    0 -0.22086399055E+03 -0.99402253649E+02  0.30853636495E+00  0.24220199328E+03  0.00000000000E+00 0. -1.
          1    1    1    2  502    0 -0.18774627069E+02  0.29166009071E+02  0.10769612043E+04  0.10775196417E+04  0.00000000000E+00 0. -1.
         22    1    3    3    0    0  0.30660900746E+01 -0.19887284743E+02  0.58616239225E+02  0.61973934067E+02  0.00000000000E+00 0.  1.
         22    1    3    3    0    0  0.23657252754E+03  0.90123529321E+02  0.29971093364E+03  0.39232060240E+03  0.00000000000E+00 0.  1.
</event>
<event>
 7    1  0.6188600E-006  0.1061686E+03  0.7818608E-02  0.1354720E+00
          2   -1    0    0  502    0  0.00000000000E+00  0.00000000000E+00  0.54167338623E+03  0.54167338623E+03  0.00000000000E+00 0. -1.
          1   -1    0    0  501    0 -0.00000000000E+00 -0.00000000000E+00 -0.21516433545E+03  0.21516433545E+03  0.00000000000E+00 0. -1.
         25    2    1    2    0    0 -0.94424374450E+02  0.21352555422E+02  0.14938221855E+03  0.21751255248E+03  0.12499907661E+03 0.  0.
          2    1    1    2  501    0  0.83394234779E+02 -0.68369001157E+02 -0.16318864108E+03  0.19560023336E+03  0.00000000000E+00 0. -1.
          1    1    1    2  502    0  0.11030139671E+02  0.47016445734E+02  0.34031547331E+03  0.34372493585E+03  0.00000000000E+00 0. -1.
         22    1    3    3    0    0 -0.11688488127E+03  0.11865081080E+02  0.15295715904E+03  0.19286976985E+03  0.00000000000E+00 0.  1.
         22    1    3    3    0    0  0.22460506823E+02  0.94874743426E+01 -0.35749404931E+01  0.24642782629E+02  0.00000000000E+00 0.  1.
</event>
<event>
 7    1  0.6188600E-006  0.6281958E+02  0.7818608E-02  0.1413154E+00
          2   -1    0    0  502    0  0.00000000000E+00  0.00000000000E+00  0.16091151203E+04  0.16091151203E+04  0.00000000000E+00 0. -1.
          1   -1    0    0  501    0 -0.00000000000E+00 -0.00000000000E+00 -0.37574413385E+02  0.37574413385E+02  0.00000000000E+00 0. -1.
         25    2    1    2    0    0 -0.25651479201E+02  0.65838642564E+02  0.41992911976E+03  0.44379949483E+03  0.12499920297E+03 0.  0.
          2    1    1    2  501    0  0.50296518178E+02 -0.71964309452E+01  0.13044772102E+01  0.50825485930E+02  0.00000000000E+00 0. -1.
          1    1    1    2  502    0 -0.24645038977E+02 -0.58642211619E+02  0.11503071099E+04  0.11520645529E+04  0.00000000000E+00 0. -1.
         22    1    3    3    0    0 -0.98871215573E+01  0.10184848955E+03  0.33362187481E+03  0.34896192535E+03  0.00000000000E+00 0. -1.
         22    1    3    3    0    0 -0.15764357644E+02 -0.36009846986E+02  0.86307244955E+02  0.94837569473E+02  0.00000000000E+00 0. -1.
</event>
<event>
 7    1  0.6188600E-006  0.1042544E+03  0.7818608E-02  0.1274783E+00
          2   -1    0    0  502    0  0.00000000000E+00  0.00000000000E+00  0.50903080590E+03  0.50903080590E+03  0.00000000000E+00 0. -1.
          1   -1    0    0  501    0 -0.00000000000E+00 -0.00000000000E+00 -0.15647650527E+04  0.15647650527E+04  0.00000000000E+00 0. -1.
         25    2    1    2    0    0 -0.73481483759E+02  0.60802459758E+02 -0.65454603384E+03  0.67316555257E+03  0.12499953272E+03 0.  0.
          2    1    1    2  501    0 -0.24370495468E+02 -0.98125282636E+02 -0.89253647805E+03  0.89824487573E+03  0.00000000000E+00 0. -1.
          1    1    1    2  502    0  0.97851979227E+02  0.37322822878E+02  0.49134826510E+03  0.50238543028E+03  0.00000000000E+00 0. -1.
         22    1    3    3    0    0  0.35730093784E+02  0.16308935397E+02 -0.15821292729E+03  0.16301518745E+03  0.00000000000E+00 0.  1.
         22    1    3    3    0    0 -0.10921157754E+03  0.44493524361E+02 -0.49633310655E+03  0.51015036512E+03  0.00000000000E+00 0.  1.
</event>
<event>
 7    1  0.6188600E-006  0.8633536E+02  0.7818608E-02  0.1435854E+00
          2   -1    0    0  502    0  0.00000000000E+00  0.00000000000E+00  0.72219743414E+03  0.72219743414E+03  0.00000000000E+00 0. -1.
          1   -1    0    0  501    0 -0.00000000000E+00 -0.00000000000E+00 -0.91116888047E+03  0.91116888047E+03  0.00000000000E+00 0. -1.
         25    2    1    2    0    0  0.16823786355E+02 -0.74101878653E+02 -0.42736581879E+02  0.15239984380E+03  0.12500067501E+03 0.  0.
          2    1    1    2  501    0 -0.47870556906E+02  0.72613652869E+02 -0.81091211159E+03  0.81556286423E+03  0.00000000000E+00 0. -1.
          1    1    1    2  502    0  0.31046770551E+02  0.14882257847E+01  0.66467724714E+03  0.66540360657E+03  0.00000000000E+00 0. -1.
         22    1    3    3    0    0 -0.21717637608E+01 -0.90423622498E+02  0.12920196729E+02  0.91367825557E+02  0.00000000000E+00 0.  1.
         22    1    3    3    0    0  0.18995550115E+02  0.16321743845E+02 -0.55656778608E+02  0.61032018247E+02  0.00000000000E+00 0.  1.
</event>
<event>
 7    1  0.6188600E-006  0.1461321E+03  0.7818608E-02  0.1247671E+00
          2   -1    0    0  502    0  0.00000000000E+00  0.00000000000E+00  0.27782718332E+04  0.27782718332E+04  0.00000000000E+00 0. -1.
          1   -1    0    0  501    0 -0.00000000000E+00 -0.00000000000E+00 -0.12270973432E+03  0.12270973432E+03  0.00000000000E+00 0. -1.
         25    2    1    2    0    0  0.14175832474E+02  0.12887336030E+03  0.37488832498E+03  0.41590254483E+03  0.12499749344E+03 0.  0.
          2    1    1    2  501    0 -0.10614226997E+03 -0.10891538493E+03 -0.44143034341E+02  0.15835829637E+03  0.00000000000E+00 0. -1.
          1    1    1    2  502    0  0.91966437492E+02 -0.19957975368E+02  0.23248168082E+04  0.23267207263E+04  0.00000000000E+00 0. -1.
         22    1    3    3    0    0  0.22683504344E+02 -0.20260900742E+02  0.54793342217E+02  0.62668619097E+02  0.00000000000E+00 0. -1.
         22    1    3    3    0    0 -0.85076718703E+01  0.14913426104E+03  0.32009498276E+03  0.35323392573E+03  0.00000000000E+00 0. -1.
</event>
<event>
 7    1  0.6188600E-006  0.1075106E+03  0.7818608E-02  0.1267274E+00
          2   -1    0    0  502    0  0.00000000000E+00  0.00000000000E+00  0.24093360383E+04  0.24093360383E+04  0.00000000000E+00 0. -1.
          1   -1    0    0  501    0 -0.00000000000E+00 -0.00000000000E+00 -0.85918659501E+03  0.85918659501E+03  0.00000000000E+00 0. -1.
         25    2    1    2    0    0  0.64857167105E+01  0.22024749461E+02  0.23313045437E+03  0.26552288571E+03  0.12500175987E+03 0.  0.
          2    1    1    2  501    0  0.10445084938E+03  0.14225834146E+02 -0.83810976462E+03  0.84471316542E+03  0.00000000000E+00 0. -1.
          1    1    1    2  502    0 -0.11093656609E+03 -0.36250583607E+02  0.21551287535E+04  0.21582865822E+04  0.00000000000E+00 0. -1.
         22    1    3    3    0    0  0.38595488710E+02  0.40144931501E+02  0.21911195054E+03  0.22607802667E+03  0.00000000000E+00 0. -1.
         22    1    3    3    0    0 -0.32109771999E+02 -0.18120182041E+02  0.14018503830E+02  0.39444859040E+02  0.00000000000E+00 0. -1.
</event>
<event>
 7    1  0.6188600E-006  0.3657335E+02  0.7818608E-02  0.1545905E+00
          2   -1    0    0  502    0  0.00000000000E+00  0.00000000000E+00  0.53114376655E+03  0.53114376655E+03  0.00000000000E+00 0. -1.
          1   -1    0    0  501    0 -0.00000000000E+00 -0.00000000000E+00 -0.45306400556E+03  0.45306400556E+03  0.00000000000E+00 0. -1.
         25    2    1    2    0    0  0.36867999955E+02  0.36253390912E+01 -0.18204566990E+03  0.22391614710E+03  0.12500168997E+03 0.  0.
          2    1    1    2  501    0 -0.13080410555E+02 -0.31471432682E+02 -0.24826015627E+03  0.25058861388E+03  0.00000000000E+00 0. -1.
          1    1    1    2  502    0 -0.23787589400E+02  0.27846093591E+02  0.50838558716E+03  0.50970301114E+03  0.00000000000E+00 0. -1.
         22    1    3    3    0    0  0.60968950524E+02 -0.19287389875E+02 -0.17951629986E+03  0.19056578458E+03  0.00000000000E+00 0.  1.
         22    1    3    3    0    0 -0.24100950569E+02  0.22912728966E+02 -0.25293700365E+01  0.33350362514E+02  0.00000000000E+00 0.  1.
</event>
<event>
 7    1  0.6188600E-006  0.4358988E+02  0.7818608E-02  0.1563287E+00
          2   -1    0    0  502    0  0.00000000000E+00  0.00000000000E+00  0.77192655985E+02  0.77192655985E+02  0.00000000000E+00 0. -1.
          1   -1    0    0  501    0 -0.00000000000E+00 -0.00000000000E+00 -0.48656050460E+03  0.48656050460E+03  0.00000000000E+00 0. -1.
         25    2    1    2    0    0  0.31800390421E+02 -0.65049157653E+01 -0.61968033217E+02  0.14325333679E+03  0.12501160987E+03 0.  0.
          2    1    1    2  501    0 -0.30321296413E+02  0.32054121869E+02 -0.37802384410E+03  0.38059016600E+03  0.00000000000E+00 0. -1.
          1    1    1    2  502    0 -0.14790940080E+01 -0.25549206103E+02  0.30624028701E+02  0.39909657797E+02  0.00000000000E+00 0. -1.
         22    1    3    3    0    0 -0.38719825347E+02  0.30669157368E+02 -0.21896382356E+02  0.54030303061E+02  0.00000000000E+00 0.  1.
         22    1    3    3    0    0  0.70520215769E+02 -0.37174073134E+02 -0.40071650861E+02  0.89223033731E+02  0.00000000000E+00 0.  1.
</event>
<event>
 7    1  0.6188600E-006  0.8304712E+02  0.7818608E-02  0.1367272E+00
          2   -1    0    0  502    0  0.00000000000E+00  0.00000000000E+00  0.18484389431E+04  0.18484389431E+04  0.00000000000E+00 0. -1.
          1   -1    0    0  501    0 -0.00000000000E+00 -0.00000000000E+00 -0.21566333145E+03  0.21566333145E+03  0.00000000000E+00 0. -1.
         25    2    1    2    0    0  0.25835043135E+02 -0.18670548052E+02  0.16430948764E+03  0.20889862443E+03  0.12499995496E+03 0.  0.
          2    1    1    2  501    0 -0.53970257911E+02  0.66588292719E+02 -0.18338016280E+03  0.20242300654E+03  0.00000000000E+00 0. -1.
          1    1    1    2  502    0  0.28135214775E+02 -0.47917744667E+02  0.16518462868E+04  0.16527806435E+04  0.00000000000E+00 0. -1.
         22    1    3    3    0    0  0.84535247448E+01 -0.23063692880E+02 -0.14942746064E+02  0.28752072444E+02  0.00000000000E+00 0. -1.
         22    1    3    3    0    0  0.17381518390E+02  0.43931448282E+01  0.17925223371E+03  0.18014655198E+03  0.00000000000E+00 0. -1.
</event>
<event>
 7    1  0.6188600E-006  0.1040350E+03  0.7818608E-02  0.1341049E+00
          2   -1    0    0  502    0  0.00000000000E+00  0.00000000000E+00  0.22675526201E+03  0.22675526201E+03  0.00000000000E+00 0. -1.
          1   -1    0    0  501    0 -0.00000000000E+00 -0.00000000000E+00 -0.25762938022E+03  0.25762938022E+03  0.00000000000E+00 0. -1.
         25    2    1    2    0    0  0.37353836105E+02  0.52277966149E+02 -0.13868900435E+02  0.14122803789E+03  0.12499886988E+03 0.  0.
          2    1    1    2  501    0 -0.46331462076E+02 -0.10694723895E+03 -0.15530371725E+03  0.19417404793E+03  0.00000000000E+00 0. -1.
          1    1    1    2  502    0  0.89776259709E+01  0.54669272801E+02  0.13829849948E+03  0.14898255641E+03  0.00000000000E+00 0. -1.
         22    1    3    3    0    0 -0.13827898999E+02  0.73352038649E+02  0.18774049437E+02  0.76968807299E+02  0.00000000000E+00 0. -1.
         22    1    3    3    0    0  0.51181735104E+02 -0.21074072500E+02 -0.32642949872E+02  0.64259230593E+02  0.00000000000E+00 0. -1.
</event>
<event>
 7    1  0.6188600E-006  0.9257542E+02  0.7818608E-02  0.1312856E+00
          2   -1    0    0  502    0  0.00000000000E+00  0.00000000000E+00  0.14970855583E+04  0.14970855583E+04  0.00000000000E+00 0. -1.
          1   -1    0    0  501    0 -0.00000000000E+00 -0.00000000000E+00 -0.28801947668E+03  0.28801947668E+03  0.00000000000E+00 0. -1.
         25    2    1    2    0    0 -0.13322007819E+03  0.48870718667E+02  0.29219615765E+02  0.19135043634E+03  0.12500106867E+03 0.  0.
          2    1    1    2  501    0  0.43049862263E+02 -0.67284932373E+02 -0.19765331288E+03  0.21318392261E+03  0.00000000000E+00 0. -1.
          1    1    1    2  502    0  0.90170215923E+02  0.18414213705E+02  0.13774997787E+04  0.13805706760E+04  0.00000000000E+00 0. -1.
         22    1    3    3    0    0 -0.11947373187E+03 -0.77227812867E+01  0.49680635043E+02  0.12962167818E+03  0.00000000000E+00 0.  1.
         22    1    3    3    0    0 -0.13746346322E+02  0.56593499954E+02 -0.20461019278E+02  0.61728758161E+02  0.00000000000E+00 0.  1.
</event>
<event>
 7    1  0.6188600E-006  0.1996828E+03  0.7818608E-02  0.1340206E+00
          2   -1    0    0  502    0  0.00000000000E+00  0.00000000000E+00  0.17718145511E+04  0.17718145511E+04  0.00000000000E+00 0. -1.
          1   -1    0    0  501    0 -0.00000000000E+00 -0.00000000000E+00 -0.12489296453E+04  0.12489296453E+04  0.00000000000E+00 0. -1.
         25    2    1    2    0    0  0.18742326057E+03 -0.75994474881E+02  0.23054817584E+03  0.33118026729E+03  0.12500107696E+03 0.  0.
          2    1    1    2  501    0 -0.15161371325E+02 -0.24809701968E+02 -0.11917559185E+04  0.11921105476E+04  0.00000000000E+00 0. -1.
          1    1    1    2  502    0 -0.17226188925E+03  0.10080417685E+03  0.14840926485E+04  0.14974533815E+04  0.00000000000E+00 0. -1.
         22    1    3    3    0    0  0.12608586028E+03 -0.41682087223E+02  0.22424431582E+03  0.26061572043E+03  0.00000000000E+00 0. -1.
         22    1    3    3    0    0  0.61337400297E+02 -0.34312387658E+02  0.63038600168E+01  0.70564546857E+02  0.00000000000E+00 0. -1.
</event>
<event>
 7    1  0.6188600E-006  0.1387456E+03  0.7818608E-02  0.1366571E+00
          2   -1    0    0  502    0  0.00000000000E+00  0.00000000000E+00  0.14369432388E+03  0.14369432388E+03  0.00000000000E+00 0. -1.
          1   -1    0    0  501    0 -0.00000000000E+00 -0.00000000000E+00 -0.12982505804E+04  0.12982505804E+04  0.00000000000E+00 0. -1.
         25    2    1    2    0    0  0.51659374275E+01  0.11780250927E+03 -0.93716615368E+02  0.19573134083E+03  0.12499534266E+03 0.  0.
          2    1    1    2  501    0  0.20587920929E+02 -0.13915544019E+03 -0.11460605262E+04  0.11546613481E+04  0.00000000000E+00 0. -1.
          1    1    1    2  502    0 -0.25753858356E+02  0.21352930911E+02  0.85220885084E+02  0.91552215338E+02  0.00000000000E+00 0. -1.
         22    1    3    3    0    0 -0.51040996029E+02  0.57000520197E+02 -0.81918941173E+02  0.11209351231E+03  0.00000000000E+00 0.  1.
         22    1    3    3    0    0  0.56206933456E+02  0.60801989078E+02 -0.11797674195E+02  0.83637828527E+02  0.00000000000E+00 0.  1.
</event>
<event>
 7    1  0.6188600E-006  0.6956183E+02  0.7818608E-02  0.1429652E+00
          2   -1    0    0  502    0  0.00000000000E+00  0.00000000000E+00  0.69314341286E+03  0.69314341286E+03  0.00000000000E+00 0. -1.
          1   -1    0    0  501    0 -0.00000000000E+00 -0.00000000000E+00 -0.55759039064E+03  0.55759039064E+03  0.00000000000E+00 0. -1.
         25    2    1    2    0    0  0.80121046454E+02 -0.70735116876E+02  0.71271234610E+02  0.17923800540E+03  0.12499533932E+03 0.  0.
          2    1    1    2  501    0 -0.35659700691E+02  0.19045074665E+02 -0.50074296758E+03  0.50237222127E+03  0.00000000000E+00 0. -1.
          1    1    1    2  502    0 -0.44461345762E+02  0.51690042211E+02  0.56502475519E+03  0.56912357683E+03  0.00000000000E+00 0. -1.
         22    1    3    3    0    0  0.77372754442E+02 -0.10081695296E+02 -0.90511092138E+01  0.78550024112E+02  0.00000000000E+00 0. -1.
         22    1    3    3    0    0  0.27482920115E+01 -0.60653421580E+02  0.80322343824E+02  0.10068798129E+03  0.00000000000E+00 0. -1.
</event>
<event>
 7    1  0.6188600E-006  0.9225145E+02  0.7818608E-02  0.1306019E+00
          2   -1    0    0  502    0  0.00000000000E+00  0.00000000000E+00  0.14715257308E+03  0.14715257308E+03  0.00000000000E+00 0. -1.
          1   -1    0    0  501    0 -0.00000000000E+00 -0.00000000000E+00 -0.18802320642E+04  0.18802320642E+04  0.00000000000E+00 0. -1.
         25    2    1    2    0    0 -0.14481580001E+02  0.16318155809E+03 -0.44166238015E+03  0.48737419868E+03  0.12502005613E+03 0.  0.
          2    1    1    2  501    0  0.38138366843E+02 -0.76292781548E+02 -0.13979311823E+04  0.14005308686E+04  0.00000000000E+00 0. -1.
          1    1    1    2  502    0 -0.23656786842E+02 -0.86888776546E+02  0.10651407132E+03  0.13947956998E+03  0.00000000000E+00 0. -1.
         22    1    3    3    0    0 -0.63688803444E+02  0.59146843791E+02 -0.14347389570E+03  0.16774794056E+03  0.00000000000E+00 0. -1.
         22    1    3    3    0    0  0.49207223443E+02  0.10403471430E+03 -0.29818848445E+03  0.31962625811E+03  0.00000000000E+00 0. -1.
</event>
<event>
 7    1  0.6188600E-006  0.1319914E+03  0.7818608E-02  0.1259060E+00
          2   -1    0    0  502    0  0.00000000000E+00  0.00000000000E+00  0.39305508631E+03  0.39305508631E+03  0.00000000000E+00 0. -1.
          1   -1    0    0  501    0 -0.00000000000E+00 -0.00000000000E+00 -0.27648989708E+04  0.27648989708E+04  0.00000000000E+00 0. -1.
         25    2    1    2    0    0 -0.13413056778E+03  0.35888626745E+02 -0.29022170103E+03  0.34515730806E+03  0.12500371521E+03 0.  0.
          2    1    1    2  501    0  0.13647356654E+02 -0.92037088528E+02 -0.24342087255E+04  0.24359862880E+04  0.00000000000E+00 0. -1.
          1    1    1    2  502    0  0.12048321113E+03  0.56148461783E+02  0.35258654204E+03  0.37681046105E+03  0.00000000000E+00 0. -1.
         22    1    3    3    0    0 -0.13916918493E+03  0.13396543486E+02 -0.29018246128E+03  0.32210773080E+03  0.00000000000E+00 0.  1.
         22    1    3    3    0    0  0.50386171484E+01  0.22492083259E+02 -0.39239757593E-01  0.23049577260E+02  0.00000000000E+00 0.  1.
</event>
<event>
 7    1  0.6188600E-006  0.2331066E+03  0.7818608E-02  0.1233057E+00
          2   -1    0    0  502    0  0.00000000000E+00  0.00000000000E+00  0.10366027593E+04  0.10366027593E+04  0.00000000000E+00 0. -1.
          1   -1    0    0  501    0 -0.00000000000E+00 -0.00000000000E+00 -0.40118816765E+04  0.40118816765E+04  0.00000000000E+00 0. -1.
         25    2    1    2    0    0  0.26952367135E+03  0.44081336012E+02 -0.26336836453E+03  0.39946723975E+03  0.12500002637E+03 0.  0.
          2    1    1    2  501    0 -0.23095418139E+03  0.12440143785E+02 -0.36756158616E+04  0.36828856286E+04  0.00000000000E+00 0. -1.
          1    1    1    2  502    0 -0.38569489961E+02 -0.56521479797E+02  0.96370530892E+03  0.96613156747E+03  0.00000000000E+00 0. -1.
         22    1    3    3    0    0  0.20086998798E+03  0.15287507156E+02 -0.11129787768E+03  0.23015142303E+03  0.00000000000E+00 0. -1.
         22    1    3    3    0    0  0.68653683374E+02  0.28793828857E+02 -0.15207048685E+03  0.16931581672E+03  0.00000000000E+00 0. -1.
</event>
<event>
 7    1  0.6188600E-006  0.5789259E+02  0.7818608E-02  0.1495773E+00
          2   -1    0    0  502    0  0.00000000000E+00  0.00000000000E+00  0.27261972801E+03  0.27261972801E+03  0.00000000000E+00 0. -1.
          1   -1    0    0  501    0 -0.00000000000E+00 -0.00000000000E+00 -0.12580402428E+04  0.12580402428E+04  0.00000000000E+00 0. -1.
         25    2    1    2    0    0 -0.24621335877E+02 -0.43576130073E+02  0.11772418478E+03  0.17885590383E+03  0.12500144543E+03 0.  0.
          2    1    1    2  501    0  0.50568655913E+02  0.28327395984E+02 -0.12249576680E+04  0.12263282264E+04  0.00000000000E+00 0. -1.
          1    1    1    2  502    0 -0.25947320036E+02  0.15248734088E+02  0.12181296843E+03  0.12547584065E+03  0.00000000000E+00 0. -1.
         22    1    3    3    0    0  0.13550884797E+01 -0.18709856540E+02 -0.25234907179E+02  0.31443529332E+02  0.00000000000E+00 0.  1.
         22    1    3    3    0    0 -0.25976424356E+02 -0.24866273533E+02  0.14295909196E+03  0.14741237450E+03  0.00000000000E+00 0.  1.
</event>
<event>
 7    1  0.6188600E-006  0.7126729E+02  0.7818608E-02  0.1436018E+00
          2   -1    0    0  502    0  0.00000000000E+00  0.00000000000E+00  0.20302577075E+04  0.20302577075E+04  0.00000000000E+00 0. -1.
          1   -1    0    0  501    0 -0.00000000000E+00 -0.00000000000E+00 -0.11182607677E+04  0.11182607677E+04  0.00000000000E+00 0. -1.
         25    2    1    2    0    0 -0.36719242825E+02  0.67321991944E+01  0.24383710128E+03  0.27653698583E+03  0.12499018871E+03 0.  0.
          2    1    1    2  501    0 -0.29885985569E+02  0.22829569953E+02 -0.11008395905E+04  0.11014818044E+04  0.00000000000E+00 0. -1.
          1    1    1    2  502    0  0.66605228394E+02 -0.29561769148E+02  0.17689994290E+04  0.17704996850E+04  0.00000000000E+00 0. -1.
         22    1    3    3    0    0  0.42753887293E+02 -0.18749538997E+02  0.96668538437E+02  0.10735104291E+03  0.00000000000E+00 0. -1.
         22    1    3    3    0    0 -0.79473130118E+02  0.25481738192E+02  0.14716856284E+03  0.16918594291E+03  0.00000000000E+00 0. -1.
</event>
<event>
 7    1  0.6188600E-006  0.9812486E+02  0.7818608E-02  0.1290490E+00
          2   -1    0    0  502    0  0.00000000000E+00  0.00000000000E+00  0.13635460422E+04  0.13635460422E+04  0.00000000000E+00 0. -1.
          1   -1    0    0  501    0 -0.00000000000E+00 -0.00000000000E+00 -0.28622132451E+03  0.28622132451E+03  0.00000000000E+00 0. -1.
         25    2    1    2    0    0  0.14411188972E+03  0.71855828462E+02  0.37561725878E+01  0.20388682212E+03  0.12499692220E+03 0.  0.
          2    1    1    2  501    0 -0.92890025779E+02  0.52472953229E+01 -0.17270656139E+03  0.19617249385E+03  0.00000000000E+00 0. -1.
          1    1    1    2  502    0 -0.51221863937E+02 -0.77103123785E+02  0.12462751065E+04  0.12497080507E+04  0.00000000000E+00 0. -1.
         22    1    3    3    0    0  0.10511551205E+03 -0.17150622048E+02 -0.22226613143E+01  0.10652865780E+03  0.00000000000E+00 0. -1.
         22    1    3    3    0    0  0.38996377668E+02  0.89006450510E+02  0.59788339021E+01  0.97358164314E+02  0.00000000000E+00 0. -1.
</event>
<event>
 7    1  0.6188600E-006  0.9588438E+02  0.7818608E-02  0.1386310E+00
          2   -1    0    0  502    0  0.00000000000E+00  0.00000000000E+00  0.60959303136E+03  0.60959303136E+03  0.00000000000E+00 0. -1.
          1   -1    0    0  501    0 -0.00000000000E+00 -0.00000000000E+00 -0.71539235265E+03  0.71539235265E+03  0.00000000000E+00 0. -1.
         25    2    1    2    0    0  0.82263167806E+01  0.10989779695E+03  0.83323052706E+02  0.18631331094E+03  0.12499888262E+03 0.  0.
          2    1    1    2  501    0  0.33295445739E+02 -0.24224986812E+02 -0.65847495080E+03  0.65976109124E+03  0.00000000000E+00 0. -1.
          1    1    1    2  502    0 -0.41521762519E+02 -0.85672810138E+02  0.46935257681E+03  0.47891098183E+03  0.00000000000E+00 0. -1.
         22    1    3    3    0    0  0.45976993133E+02  0.10533862030E+03  0.26515768753E+02  0.11795420644E+03  0.00000000000E+00 0. -1.
         22    1    3    3    0    0 -0.37750676353E+02  0.45591766460E+01  0.56807283953E+02  0.68359104492E+02  0.00000000000E+00 0. -1.
</event>
<event>
 7    1  0.6188600E-006  0.1964650E+03  0.7818608E-02  0.1190780E+00
          2   -1    0    0  502    0  0.00000000000E+00  0.00000000000E+00  0.41701796225E+04  0.41701796225E+04  0.00000000000E+00 0. -1.
          1   -1    0    0  501    0 -0.00000000000E+00 -0.00000000000E+00 -0.97165379079E+03  0.97165379079E+03  0.00000000000E+00 0. -1.
         25    2    1    2    0    0 -0.84033414424E+02 -0.14262588308E+02  0.68893792432E+02  0.16624433987E+03  0.12500315891E+03 0.  0.
          2    1    1    2  501    0  0.18908487059E+03  0.86228148429E+02 -0.91026451745E+03  0.93368617511E+03  0.00000000000E+00 0. -1.
          1    1    1    2  502    0 -0.10505145616E+03 -0.71965560121E+02  0.40398965567E+04  0.40419028983E+04  0.00000000000E+00 0. -1.
         22    1    3    3    0    0  0.24721554143E+02  0.34506240549E+01  0.47986505965E+02  0.54090357739E+02  0.00000000000E+00 0.  1.
         22    1    3    3    0    0 -0.10875496857E+03 -0.17713212362E+02  0.20907286467E+02  0.11215398213E+03  0.00000000000E+00 0.  1.
</event>
<event>
 7    1  0.6188600E-006  0.6370803E+02  0.7818608E-02  0.1534245E+00
          2   -1    0    0  502    0  0.00000000000E+00  0.00000000000E+00  0.14957659625E+04  0.14957659625E+04  0.00000000000E+00 0. -1.
          1   -1    0    0  501    0 -0.00000000000E+00 -0.00000000000E+00 -0.21127991301E+03  0.21127991301E+03  0.00000000000E+00 0. -1.
         25    2    1    2    0    0 -0.31922162900E+02 -0.30164662510E+02  0.58359947522E+02  0.14477383612E+03  0.12499859520E+03 0.  0.
          2    1    1    2  501    0  0.48834555603E+02  0.42794748918E+02 -0.16171832861E+03  0.17426710006E+03  0.00000000000E+00 0. -1.
          1    1    1    2  502    0 -0.16912392703E+02 -0.12630086407E+02  0.13878444305E+04  0.13880049393E+04  0.00000000000E+00 0. -1.
         22    1    3    3    0    0 -0.63350859809E+02 -0.60091579343E+02  0.49863529285E+02  0.10055198108E+03  0.00000000000E+00 0. -1.
         22    1    3    3    0    0  0.31428696909E+02  0.29926916832E+02  0.84964182373E+01  0.44221855042E+02  0.00000000000E+00 0. -1.
</event>
<event>
 7    1  0.6188600E-006  0.9540625E+02  0.7818608E-02  0.1330267E+00
          2   -1    0    0  502    0  0.00000000000E+00  0.00000000000E+00  0.12285090986E+04  0.12285090986E+04  0.00000000000E+00 0. -1.
          1   -1    0    0  501    0 -0.00000000000E+00 -0.00000000000E+00 -0.41025543326E+03  0.41025543326E+03  0.00000000000E+00 0. -1.
         25    2    1    2    0    0  0.53056254488E+02  0.65807611549E+02  0.26068707813E+03  0.30120728102E+03  0.12498986180E+03 0.  0.
          2    1    1    2  501    0  0.44787475800E+02 -0.48977027095E+02 -0.38454442426E+03  0.39022952400E+03  0.00000000000E+00 0. -1.
          1    1    1    2  502    0 -0.97843730288E+02 -0.16830584454E+02  0.94211101151E+03  0.94732772689E+03  0.00000000000E+00 0. -1.
         22    1    3    3    0    0  0.12848717991E+02 -0.34593241616E+02  0.34611989593E+02  0.50594186852E+02  0.00000000000E+00 0. -1.
         22    1    3    3    0    0  0.40207536496E+02  0.10040085317E+03  0.22607508854E+03  0.25061309416E+03  0.00000000000E+00 0. -1.
</event>
<event>
 7    1  0.6188600E-006  0.1564626E+03  0.7818608E-02  0.1362147E+00
          2   -1    0    0  502    0  0.00000000000E+00  0.00000000000E+00  0.10015003859E+04  0.10015003859E+04  0.00000000000E+00 0. -1.
          1   -1    0    0  501    0 -0.00000000000E+00 -0.00000000000E+00 -0.50346509924E+03  0.50346509924E+03  0.00000000000E+00 0. -1.
         25    2    1    2    0    0  0.15200267487E+03 -0.10758144771E+03  0.38546818076E+03  0.44597041460E+03  0.12500124501E+03 0.  0.
          2    1    1    2  501    0 -0.12559115032E+03  0.91770617623E+02 -0.46000711618E+03  0.48559399732E+03  0.00000000000E+00 0. -1.
          1    1    1    2  502    0 -0.26411524552E+02  0.15810830090E+02  0.57257422207E+03  0.57340107320E+03  0.00000000000E+00 0. -1.
         22    1    3    3    0    0  0.65801649652E+01  0.25408579067E+02  0.60043658197E+02  0.65529652455E+02  0.00000000000E+00 0. -1.
         22    1    3    3    0    0  0.14542250991E+03 -0.13299002678E+03  0.32542452257E+03  0.38044076214E+03  0.00000000000E+00 0. -1.
</event>
<event>
 7    1  0.6188600E-006  0.6083853E+02  0.7818608E-02  0.1536948E+00
          2   -1    0    0  502    0  0.00000000000E+00  0.00000000000E+00  0.20789634578E+03  0.20789634578E+03  0.00000000000E+00 0. -1.
          1   -1    0    0  501    0 -0.00000000000E+00 -0.00000000000E+00 -0.20862022731E+03  0.20862022731E+03  0.00000000000E+00 0. -1.
         25    2    1    2    0    0 -0.29100211369E+02  0.40315438040E+02 -0.19977837333E+02  0.13600132577E+03  0.12500035912E+03 0.  0.
          2    1    1    2  501    0  0.10755451681E+02  0.18865187485E+02 -0.12323745221E+03  0.12513610457E+03  0.00000000000E+00 0. -1.
          1    1    1    2  502    0  0.18344759689E+02 -0.59180625525E+02  0.14249140801E+03  0.15537914275E+03  0.00000000000E+00 0. -1.
         22    1    3    3    0    0  0.36186094217E+02 -0.85236842856E+01 -0.37284813394E+02  0.52652102696E+02  0.00000000000E+00 0. -1.
         22    1    3    3    0    0 -0.65286305586E+02  0.48839122326E+02  0.17306976061E+02  0.83349223074E+02  0.00000000000E+00 0. -1.
</event>
<event>
 7    1  0.6984550E-006  0.6538694E+02  0.7818608E-02  0.1465428E+00
          2   -1    0    0  502    0  0.00000000000E+00  0.00000000000E+00  0.16937163805E+04  0.16937163805E+04  0.00000000000E+00 0. -1.
          1   -1    0    0  501    0 -0.00000000000E+00 -0.00000000000E+00 -0.73932604371E+03  0.73932604371E+03  0.00000000000E+00 0. -1.
         25    2    1    2    0    0 -0.33889716810E+02 -0.92631364083E+01 -0.35604653994E+03  0.37898466502E+03  0.12500367640E+03 0.  0.
          2    1    1    2  501    0 -0.31550359334E+02  0.97124721121E+01 -0.37043972819E+03  0.37190771639E+03  0.00000000000E+00 0. -1.
          1    1    1    2  502    0  0.65440076144E+02 -0.44933570384E+00  0.16808766050E+04  0.16821500428E+04  0.00000000000E+00 0. -1.
         22    1    3    3    0    0 -0.43489637380E+02 -0.17888726937E+02 -0.37419530446E+02  0.60096392319E+02  0.00000000000E+00 0.  1.
         22    1    3    3    0    0  0.95999205704E+01  0.86255905286E+01 -0.31862700949E+03  0.31888827270E+03  0.00000000000E+00 0.  1.
</event>
<event>
 7    1  0.6188600E-006  0.1089369E+03  0.7818608E-02  0.1319303E+00
          2   -1    0    0  502    0  0.00000000000E+00  0.00000000000E+00  0.11826324268E+04  0.11826324268E+04  0.00000000000E+00 0. -1.
          1   -1    0    0  501    0 -0.00000000000E+00 -0.00000000000E+00 -0.29476880498E+03  0.29476880498E+03  0.00000000000E+00 0. -1.
         25    2    1    2    0    0 -0.14547668509E+02 -0.14775006276E+03  0.11838541213E+03  0.22733545487E+03  0.12499835012E+03 0.  0.
          2    1    1    2  501    0  0.45649235926E+02  0.44942253089E+02 -0.23310423054E+03  0.24174623296E+03  0.00000000000E+00 0. -1.
          1    1    1    2  502    0 -0.31101567416E+02  0.10280780967E+03  0.10025824402E+04  0.10083195439E+04  0.00000000000E+00 0. -1.
         22    1    3    3    0    0 -0.54570602509E+02 -0.10045540838E+03  0.27908076329E+02  0.11767795229E+03  0.00000000000E+00 0. -1.
         22    1    3    3    0    0  0.40022934000E+02 -0.47294654381E+02  0.90477335803E+02  0.10965750258E+03  0.00000000000E+00 0. -1.
</event>
<event>
 7    1  0.6188600E-006  0.5795743E+02  0.7818608E-02  0.1462460E+00
          2   -1    0    0  502    0  0.00000000000E+00  0.00000000000E+00  0.43607649894E+03  0.43607649894E+03  0.00000000000E+00 0. -1.
          1   -1    0    0  501    0 -0.00000000000E+00 -0.00000000000E+00 -0.16830950251E+03  0.16830950251E+03  0.00000000000E+00 0. -1.
         25    2    1    2    0    0 -0.64233745908E+02  0.51485065474E+02  0.29485032738E+03  0.33067270658E+03  0.12502414662E+03 0.  0.
          2    1    1    2  501    0  0.37282364143E+02 -0.76072807455E+01 -0.14241362272E+03  0.14740924439E+03  0.00000000000E+00 0. -1.
          1    1    1    2  502    0  0.26951381764E+02 -0.43877784729E+02  0.11533029176E+03  0.12630405049E+03  0.00000000000E+00 0. -1.
         22    1    3    3    0    0 -0.76795815178E+02  0.27976244112E+02  0.29273868930E+03  0.30393454505E+03  0.00000000000E+00 0.  1.
         22    1    3    3    0    0  0.12562069271E+02  0.23508821362E+02  0.21116380791E+01  0.26738161522E+02  0.00000000000E+00 0.  1.
</event>
<event>
 7    1  0.6188600E-006  0.1442815E+03  0.7818608E-02  0.1287421E+00
          2   -1    0    0  502    0  0.00000000000E+00  0.00000000000E+00  0.17385584297E+04  0.17385584297E+04  0.00000000000E+00 0. -1.
          1   -1    0    0  501    0 -0.00000000000E+00 -0.00000000000E+00 -0.70643197818E+03  0.70643197818E+03  0.00000000000E+00 0. -1.
         25    2    1    2    0    0  0.37434815447E+02  0.11077584438E+03  0.90295673849E+03  0.91903583588E+03  0.12499337159E+03 0.  0.
          2    1    1    2  501    0  0.44799042816E+02  0.46809753234E+02 -0.68730639701E+03  0.69035367067E+03  0.00000000000E+00 0. -1.
          1    1    1    2  502    0 -0.82233858263E+02 -0.15758559761E+03  0.81647611007E+03  0.83560090135E+03  0.00000000000E+00 0. -1.
         22    1    3    3    0    0 -0.19781784453E+02  0.68958704489E+02  0.70749850842E+03  0.71112640321E+03  0.00000000000E+00 0. -1.
         22    1    3    3    0    0  0.57216599900E+02  0.41817139887E+02  0.19545823007E+03  0.20790943267E+03  0.00000000000E+00 0. -1.
</event>
<event>
 7    1  0.6188600E-006  0.1083440E+03  0.7818608E-02  0.1292419E+00
          2   -1    0    0  502    0  0.00000000000E+00  0.00000000000E+00  0.17802468510E+04  0.17802468510E+04  0.00000000000E+00 0. -1.
          1   -1    0    0  501    0 -0.00000000000E+00 -0.00000000000E+00 -0.93843495405E+03  0.93843495405E+03  0.00000000000E+00 0. -1.
         25    2    1    2    0    0 -0.11861420908E+03  0.27381711570E+02 -0.48448248127E+03  0.51494394209E+03  0.12499960046E+03 0.  0.
          2    1    1    2  501    0  0.98515493197E+02  0.52465785985E+02 -0.43064293799E+03  0.44487223013E+03  0.00000000000E+00 0. -1.
          1    1    1    2  502    0  0.20098715888E+02 -0.79847497555E+02  0.17569373163E+04  0.17588656329E+04  0.00000000000E+00 0. -1.
         22    1    3    3    0    0 -0.13623525226E+02  0.34396607069E+02 -0.27750097062E+02  0.46247106984E+02  0.00000000000E+00 0.  1.
         22    1    3    3    0    0 -0.10499068386E+03 -0.70148954992E+01 -0.45673238421E+03  0.46869683511E+03  0.00000000000E+00 0.  1.
</event>
<event>
 7    1  0.6188600E-006  0.8747533E+02  0.7818608E-02  0.1423659E+00
          2   -1    0    0  502    0  0.00000000000E+00  0.00000000000E+00  0.16042927699E+03  0.16042927699E+03  0.00000000000E+00 0. -1.
          1   -1    0    0  501    0 -0.00000000000E+00 -0.00000000000E+00 -0.72265812370E+03  0.72265812370E+03  0.00000000000E+00 0. -1.
         25    2    1    2    0    0 -0.68397476566E+01 -0.55071961334E+02 -0.33311326703E+03  0.36009475890E+03  0.12499633454E+03 0.  0.
          2    1    1    2  501    0 -0.10717542861E+02 -0.31897216038E+02 -0.36180868915E+03  0.36337009462E+03  0.00000000000E+00 0. -1.
          1    1    1    2  502    0  0.17557290517E+02  0.86969177371E+02  0.13269310947E+03  0.15962254716E+03  0.00000000000E+00 0. -1.
         22    1    3    3    0    0 -0.16212965254E+01 -0.56697234055E+02 -0.46269299269E+02  0.73198722713E+02  0.00000000000E+00 0. -1.
         22    1    3    3    0    0 -0.52184511313E+01  0.16252727211E+01 -0.28684396776E+03  0.28689603619E+03  0.00000000000E+00 0. -1.
</event>
<event>
 7    1  0.6188600E-006  0.1312191E+03  0.7818608E-02  0.1279336E+00
          2   -1    0    0  502    0  0.00000000000E+00  0.00000000000E+00  0.12257813308E+04  0.12257813308E+04  0.00000000000E+00 0. -1.
          1   -1    0    0  501    0 -0.00000000000E+00 -0.00000000000E+00 -0.18190465880E+03  0.18190465880E+03  0.00000000000E+00 0. -1.
         25    2    1    2    0    0 -0.12903255038E+03 -0.53416946426E+02  0.63570598108E+03  0.66275864541E+03  0.12499663381E+03 0.  0.
          2    1    1    2  501    0  0.12962991411E+03 -0.23488831488E+02 -0.13950485213E+03  0.19187819992E+03  0.00000000000E+00 0. -1.
          1    1    1    2  502    0 -0.59736372372E+00  0.76905777914E+02  0.54767554308E+03  0.55304914430E+03  0.00000000000E+00 0. -1.
         22    1    3    3    0    0 -0.14270943067E+03 -0.13761407660E+02  0.44630608415E+03  0.46876911021E+03  0.00000000000E+00 0. -1.
         22    1    3    3    0    0  0.13676880281E+02 -0.39655538767E+02  0.18939989694E+03  0.19398953520E+03  0.00000000000E+00 0. -1.
</event>
<event>
 7    1  0.6188600E-006  0.5991235E+02  0.7818608E-02  0.1439584E+00
          2   -1    0    0  502    0  0.00000000000E+00  0.00000000000E+00  0.46086203531E+03  0.46086203531E+03  0.00000000000E+00 0. -1.
          1   -1    0    0  501    0 -0.00000000000E+00 -0.00000000000E+00 -0.19166761511E+04  0.19166761511E+04  0.00000000000E+00 0. -1.
         25    2    1    2    0    0 -0.54512534211E+02  0.85551464488E+02 -0.57298257751E+03  0.59516745774E+03  0.12499839665E+03 0.  0.
          2    1    1    2  501    0  0.31002054094E+02 -0.30593518336E+02 -0.13302570440E+04  0.13309699072E+04  0.00000000000E+00 0. -1.
          1    1    1    2  502    0  0.23510480118E+02 -0.54957946152E+02  0.44742550569E+03  0.45140082151E+03  0.00000000000E+00 0. -1.
         22    1    3    3    0    0  0.31644526575E+02  0.11011380556E+02 -0.51896874344E+02  0.61773069623E+02  0.00000000000E+00 0.  1.
         22    1    3    3    0    0 -0.86157060787E+02  0.74540083933E+02 -0.52108570316E+03  0.53339438812E+03  0.00000000000E+00 0.  1.
</event>
<event>
 7    1  0.6188600E-006  0.8730111E+02  0.7818608E-02  0.1384209E+00
          2   -1    0    0  502    0  0.00000000000E+00  0.00000000000E+00  0.23801457194E+04  0.23801457194E+04  0.00000000000E+00 0. -1.
          1   -1    0    0  501    0 -0.00000000000E+00 -0.00000000000E+00 -0.12395761565E+03  0.12395761565E+03  0.00000000000E+00 0. -1.
         25    2    1    2    0    0 -0.90793321493E+02  0.91927327491E+02  0.16993058788E+03  0.24737762746E+03  0.12500090041E+03 0.  0.
          2    1    1    2  501    0  0.58850141238E+02 -0.58827778249E+02 -0.64620509754E+02  0.10535585840E+03  0.00000000000E+00 0. -1.
          1    1    1    2  502    0  0.31943180255E+02 -0.33099549242E+02  0.21508780256E+04  0.21513698492E+04  0.00000000000E+00 0. -1.
         22    1    3    3    0    0 -0.25273203282E+02 -0.22611243126E+02  0.82200484124E+02  0.88920878932E+02  0.00000000000E+00 0.  1.
         22    1    3    3    0    0 -0.65520118212E+02  0.11453857062E+03  0.87730103752E+02  0.15845674853E+03  0.00000000000E+00 0.  1.
</event>
<event>
 7    1  0.6188600E-006  0.1196874E+03  0.7818608E-02  0.1327763E+00
          2   -1    0    0  502    0  0.00000000000E+00  0.00000000000E+00  0.51690442770E+02  0.51690442770E+02  0.00000000000E+00 0. -1.
          1   -1    0    0  501    0 -0.00000000000E+00 -0.00000000000E+00 -0.22543595972E+04  0.22543595972E+04  0.00000000000E+00 0. -1.
         25    2    1    2    0    0  0.94677239972E+02  0.68826824060E+02 -0.97421128449E+03  0.98914829320E+03  0.12500323046E+03 0.  0.
          2    1    1    2  501    0 -0.38366432769E+02  0.38118714082E+02 -0.11883150509E+04  0.11895451566E+04  0.00000000000E+00 0. -1.
          1    1    1    2  502    0 -0.56310807203E+02 -0.10694553814E+03 -0.40142819099E+02  0.12735659018E+03  0.00000000000E+00 0. -1.
         22    1    3    3    0    0  0.11943132617E+03  0.45554176623E+02 -0.60379101557E+03  0.61717308363E+03  0.00000000000E+00 0. -1.
         22    1    3    3    0    0 -0.24754086199E+02  0.23272647437E+02 -0.37042026892E+03  0.37197520957E+03  0.00000000000E+00 0. -1.
</event>
<event>
 7    1  0.6188600E-006  0.9174117E+02  0.7818608E-02  0.1302853E+00
          2   -1    0    0  502    0  0.00000000000E+00  0.00000000000E+00  0.22784067050E+04  0.22784067050E+04  0.00000000000E+00 0. -1.
          1   -1    0    0  501    0 -0.00000000000E+00 -0.00000000000E+00 -0.31218013953E+04  0.31218013953E+04  0.00000000000E+00 0. -1.
         25    2    1    2    0    0  0.91954759685E+02 -0.81782095854E+02  0.68436202595E+02  0.18828831401E+03  0.12499994535E+03 0.  0.
          2    1    1    2  501    0 -0.91540109951E+02 -0.65076250863E+01 -0.30602807949E+04  0.30616564935E+04  0.00000000000E+00 0. -1.
          1    1    1    2  502    0 -0.41464973355E+00  0.88289720940E+02  0.21484499020E+04  0.21502632927E+04  0.00000000000E+00 0. -1.
         22    1    3    3    0    0  0.39421431886E+02 -0.43718680541E+02 -0.33296292204E+02  0.67631467489E+02  0.00000000000E+00 0. -1.
         22    1    3    3    0    0  0.52533327799E+02 -0.38063415313E+02  0.10173249480E+03  0.12065684652E+03  0.00000000000E+00 0. -1.
</event>
<event>
 7    1  0.6188600E-006  0.8236722E+02  0.7818608E-02  0.1349598E+00
          2   -1    0    0  502    0  0.00000000000E+00  0.00000000000E+00  0.39367441721E+04  0.39367441721E+04  0.00000000000E+00 0. -1.
          1   -1    0    0  501    0 -0.00000000000E+00 -0.00000000000E+00 -0.77283559092E+02  0.77283559092E+02  0.00000000000E+00 0. -1.
         25    2    1    2    0    0  0.27059007837E+02  0.58252237197E+01  0.58160530302E+03  0.59552910432E+03  0.12499624976E+03 0.  0.
          2    1    1    2  501    0  0.36520779376E+02  0.53793333814E+02 -0.54599955969E+02  0.84903741266E+02  0.00000000000E+00 0. -1.
          1    1    1    2  502    0 -0.63579787213E+02 -0.59618557534E+02  0.33324552659E+04  0.33335948856E+04  0.00000000000E+00 0. -1.
         22    1    3    3    0    0 -0.47371801831E+02 -0.91607438568E+01  0.30059317022E+03  0.30444089873E+03  0.00000000000E+00 0.  1.
         22    1    3    3    0    0  0.74430809668E+02  0.14985967577E+02  0.28101213280E+03  0.29108820559E+03  0.00000000000E+00 0.  1.
</event>
<event>
 7    1  0.6188600E-006  0.7383080E+02  0.7818608E-02  0.1349003E+00
          2   -1    0    0  502    0  0.00000000000E+00  0.00000000000E+00  0.17912493164E+04  0.17912493164E+04  0.00000000000E+00 0. -1.
          1   -1    0    0  501    0 -0.00000000000E+00 -0.00000000000E+00 -0.69904987248E+03  0.69904987248E+03  0.00000000000E+00 0. -1.
         25    2    1    2    0    0  0.35060959480E+02 -0.21571445996E+02  0.16455132414E+03  0.21070612023E+03  0.12500133065E+03 0.  0.
          2    1    1    2  501    0 -0.57011509313E+02 -0.47952097618E+02 -0.67308774722E+03  0.67719777858E+03  0.00000000000E+00 0. -1.
          1    1    1    2  502    0  0.21950549833E+02  0.69523543614E+02  0.16007358670E+04  0.16023952900E+04  0.00000000000E+00 0. -1.
         22    1    3    3    0    0  0.49336703986E+02 -0.23733889427E+02  0.10211936627E+02  0.55692831830E+02  0.00000000000E+00 0. -1.
         22    1    3    3    0    0 -0.14275744506E+02  0.21624434301E+01  0.15433938752E+03  0.15501328840E+03  0.00000000000E+00 0. -1.
</event>
<event>
 7    1  0.6188600E-006  0.8127090E+02  0.7818608E-02  0.1439025E+00
          2   -1    0    0  502    0  0.00000000000E+00  0.00000000000E+00  0.11551807928E+04  0.11551807928E+04  0.00000000000E+00 0. -1.
          1   -1    0    0  501    0 -0.00000000000E+00 -0.00000000000E+00 -0.15453456717E+03  0.15453456717E+03  0.00000000000E+00 0. -1.
         25    2    1    2    0    0  0.33187011751E+02 -0.93857117033E+02  0.16220452594E+02  0.16061688063E+03  0.12499657234E+03 0.  0.
          2    1    1    2  501    0  0.14805449883E+02  0.28643231493E+02 -0.77578366259E+02  0.84012135837E+02  0.00000000000E+00 0. -1.
          1    1    1    2  502    0 -0.47992461634E+02  0.65213885540E+02  0.10620041393E+04  0.10650863435E+04  0.00000000000E+00 0. -1.
         22    1    3    3    0    0  0.35455240456E+02  0.25240766149E+01  0.47441017709E+02  0.59279804317E+02  0.00000000000E+00 0. -1.
         22    1    3    3    0    0 -0.22682287051E+01 -0.96381193648E+02 -0.31220565116E+02  0.10133707632E+03  0.00000000000E+00 0. -1.
</event>
<event>
 7    1  0.6188600E-006  0.2833297E+03  0.7818608E-02  0.1175813E+00
          2   -1    0    0  502    0  0.00000000000E+00  0.00000000000E+00  0.43245287461E+03  0.43245287461E+03  0.00000000000E+00 0. -1.
          1   -1    0    0  501    0 -0.00000000000E+00 -0.00000000000E+00 -0.17561942175E+04  0.17561942175E+04  0.00000000000E+00 0. -1.
         25    2    1    2    0    0  0.29173898237E+02  0.32163504966E+03 -0.78050770493E+03  0.85388377885E+03  0.12500003525E+03 0.  0.
          2    1    1    2  501    0  0.56049569605E+02 -0.26137735001E+03 -0.91259331363E+03  0.95093965604E+03  0.00000000000E+00 0. -1.
          1    1    1    2  502    0 -0.85223467842E+02 -0.60257699653E+02  0.36935967567E+03  0.38382365723E+03  0.00000000000E+00 0. -1.
         22    1    3    3    0    0  0.67399777221E+02  0.16523027196E+03 -0.32515486445E+03  0.37090357051E+03  0.00000000000E+00 0. -1.
         22    1    3    3    0    0 -0.38225878984E+02  0.15640477770E+03 -0.45535284048E+03  0.48298020834E+03  0.00000000000E+00 0. -1.
</event>
<event>
 7    1  0.6188600E-006  0.5741735E+02  0.7818608E-02  0.1498483E+00
          2   -1    0    0  502    0  0.00000000000E+00  0.00000000000E+00  0.86097516441E+02  0.86097516441E+02  0.00000000000E+00 0. -1.
          1   -1    0    0  501    0 -0.00000000000E+00 -0.00000000000E+00 -0.14354879784E+04  0.14354879784E+04  0.00000000000E+00 0. -1.
         25    2    1    2    0    0  0.47381597929E+01  0.53521612785E+02 -0.10713278539E+03  0.17317672767E+03  0.12500292840E+03 0.  0.
          2    1    1    2  501    0  0.29224708976E+02 -0.57423552853E+01 -0.12789207482E+04  0.12792675007E+04  0.00000000000E+00 0. -1.
          1    1    1    2  502    0 -0.33962868769E+02 -0.47779257499E+02  0.36663071634E+02  0.69141266432E+02  0.00000000000E+00 0. -1.
         22    1    3    3    0    0  0.65890322183E+01  0.14767556187E+02  0.28136990406E+02  0.32452831778E+02  0.00000000000E+00 0.  1.
         22    1    3    3    0    0 -0.18508724254E+01  0.38754056598E+02 -0.13526977580E+03  0.14072389589E+03  0.00000000000E+00 0.  1.
</event>
<event>
 7    1  0.6188600E-006  0.3377124E+03  0.7818608E-02  0.1130882E+00
          2   -1    0    0  502    0  0.00000000000E+00  0.00000000000E+00  0.61632387147E+03  0.61632387147E+03  0.00000000000E+00 0. -1.
          1   -1    0    0  501    0 -0.00000000000E+00 -0.00000000000E+00 -0.12835141077E+04  0.12835141077E+04  0.00000000000E+00 0. -1.
         25    2    1    2    0    0 -0.32307373708E+03 -0.32019996129E+02  0.79026224179E+02  0.35675172007E+03  0.12499890369E+03 0.  0.
          2    1    1    2  501    0  0.15097853335E+02 -0.14790567160E+03 -0.10585757747E+04  0.10689652491E+04  0.00000000000E+00 0. -1.
          1    1    1    2  502    0  0.30797588374E+03  0.17992566773E+03  0.31235931434E+03  0.47412101001E+03  0.00000000000E+00 0. -1.
         22    1    3    3    0    0 -0.66628180761E+01 -0.29485582266E+02  0.15673951889E+02  0.34050924718E+02  0.00000000000E+00 0.  1.
         22    1    3    3    0    0 -0.31641091900E+03 -0.25344138626E+01  0.63352272290E+02  0.32270079535E+03  0.00000000000E+00 0.  1.
</event>
<event>
 7    1  0.6188600E-006  0.8732917E+02  0.7818608E-02  0.1337646E+00
          2   -1    0    0  502    0  0.00000000000E+00  0.00000000000E+00  0.15124007545E+03  0.15124007545E+03  0.00000000000E+00 0. -1.
          1   -1    0    0  501    0 -0.00000000000E+00 -0.00000000000E+00 -0.35869854147E+03  0.35869854147E+03  0.00000000000E+00 0. -1.
         25    2    1    2    0    0  0.12011937241E+02  0.41326440913E+02  0.83406673675E+02  0.15632421886E+03  0.12501370659E+03 0.  0.
          2    1    1    2  501    0 -0.79961139070E+02 -0.43241290381E+02 -0.26621350679E+03  0.28130628175E+03  0.00000000000E+00 0. -1.
          1    1    1    2  502    0  0.67949201829E+02  0.19148494683E+01 -0.24651632901E+02  0.72308116296E+02  0.00000000000E+00 0. -1.
         22    1    3    3    0    0 -0.18136184244E+02  0.74894078472E+02  0.80000558276E+02  0.11107715109E+03  0.00000000000E+00 0. -1.
         22    1    3    3    0    0  0.30148121485E+02 -0.33567637559E+02  0.34061153985E+01  0.45247067778E+02  0.00000000000E+00 0. -1.
</event>
<event>
 7    1  0.6188600E-006  0.4140545E+02  0.7818608E-02  0.1512365E+00
          2   -1    0    0  502    0  0.00000000000E+00  0.00000000000E+00  0.12657997744E+03  0.12657997744E+03  0.00000000000E+00 0. -1.
          1   -1    0    0  501    0 -0.00000000000E+00 -0.00000000000E+00 -0.12150393584E+04  0.12150393584E+04  0.00000000000E+00 0. -1.
         25    2    1    2    0    0 -0.40127859100E+02 -0.11272322415E+02 -0.26555735615E+03  0.29644946444E+03  0.12499706091E+03 0.  0.
          2    1    1    2  501    0  0.33136741771E+02 -0.25641331489E+02 -0.93037572636E+03  0.93131869612E+03  0.00000000000E+00 0. -1.
          1    1    1    2  502    0  0.69911173286E+01  0.36913653905E+02  0.10747370160E+03  0.11385117523E+03  0.00000000000E+00 0. -1.
         22    1    3    3    0    0 -0.71204909485E+02  0.26851350550E+02 -0.11362850970E+03  0.13675734853E+03  0.00000000000E+00 0.  1.
         22    1    3    3    0    0  0.31077050385E+02 -0.38123672965E+02 -0.15192884645E+03  0.15969211591E+03  0.00000000000E+00 0.  1.
</event>
<event>
 7    1  0.6188600E-006  0.7204458E+02  0.7818608E-02  0.1495448E+00
          2   -1    0    0  502    0  0.00000000000E+00  0.00000000000E+00  0.31439993065E+03  0.31439993065E+03  0.00000000000E+00 0. -1.
          1   -1    0    0  501    0 -0.00000000000E+00 -0.00000000000E+00 -0.26304919465E+03  0.26304919465E+03  0.00000000000E+00 0. -1.
         25    2    1    2    0    0  0.57857949480E+02 -0.25143940321E+02 -0.79469815672E+02  0.16099513261E+03  0.12499688424E+03 0.  0.
          2    1    1    2  501    0  0.14456204102E+02  0.19456164135E+02 -0.13692634774E+03  0.13905520079E+03  0.00000000000E+00 0. -1.
          1    1    1    2  502    0 -0.72314153582E+02  0.56877761859E+01  0.26774689941E+03  0.27739879190E+03  0.00000000000E+00 0. -1.
         22    1    3    3    0    0  0.87540934035E+01 -0.30709073588E+01 -0.10215402557E+03  0.10257440988E+03  0.00000000000E+00 0.  1.
         22    1    3    3    0    0  0.49103856077E+02 -0.22073032962E+02  0.22684209895E+02  0.58420722730E+02  0.00000000000E+00 0.  1.
</event>
<event>
 7    1  0.6188600E-006  0.1227823E+03  0.7818608E-02  0.1271195E+00
          2   -1    0    0  502    0  0.00000000000E+00  0.00000000000E+00  0.59643599912E+03  0.59643599912E+03  0.00000000000E+00 0. -1.
          1   -1    0    0  501    0 -0.00000000000E+00 -0.00000000000E+00 -0.70525260576E+03  0.70525260576E+03  0.00000000000E+00 0. -1.
         25    2    1    2    0    0  0.52491219373E+02 -0.40432886782E+02  0.68507825952E+02  0.15718705696E+03  0.12499720883E+03 0.  0.
          2    1    1    2  501    0  0.84328074989E+02  0.28032019036E+02 -0.64806231742E+03  0.65412673510E+03  0.00000000000E+00 0. -1.
          1    1    1    2  502    0 -0.13681929436E+03  0.12400867746E+02  0.47073788483E+03  0.49037481282E+03  0.00000000000E+00 0. -1.
         22    1    3    3    0    0  0.21471717076E+02  0.13342231928E+02  0.88442653359E+02  0.91984524351E+02  0.00000000000E+00 0.  1.
         22    1    3    3    0    0  0.31019502297E+02 -0.53775118710E+02 -0.19934827407E+02  0.65202532610E+02  0.00000000000E+00 0.  1.
</event>
<event>
 7    1  0.6188600E-006  0.8474444E+02  0.7818608E-02  0.1407518E+00
          2   -1    0    0  502    0  0.00000000000E+00  0.00000000000E+00  0.65310077882E+03  0.65310077882E+03  0.00000000000E+00 0. -1.
          1   -1    0    0  501    0 -0.00000000000E+00 -0.00000000000E+00 -0.15029376026E+04  0.15029376026E+04  0.00000000000E+00 0. -1.
         25    2    1    2    0    0  0.46030583016E+02  0.29494955021E+02 -0.49006729326E+02  0.14496792437E+03  0.12500109052E+03 0.  0.
          2    1    1    2  501    0  0.57080068410E+01  0.38940143867E+02 -0.14026320500E+04  0.14031840876E+04  0.00000000000E+00 0. -1.
          1    1    1    2  502    0 -0.51738589857E+02 -0.68435098888E+02  0.60180195553E+03  0.60788636942E+03  0.00000000000E+00 0. -1.
         22    1    3    3    0    0  0.68092867537E+02  0.62994062569E+02 -0.48886972009E+02  0.10485621851E+03  0.00000000000E+00 0.  1.
         22    1    3    3    0    0 -0.22062284521E+02 -0.33499107548E+02 -0.11975731695E+00  0.40111705856E+02  0.00000000000E+00 0.  1.
</event>
<event>
 7    1  0.6188600E-006  0.1380760E+03  0.7818608E-02  0.1377336E+00
          2   -1    0    0  502    0  0.00000000000E+00  0.00000000000E+00  0.17473934496E+03  0.17473934496E+03  0.00000000000E+00 0. -1.
          1   -1    0    0  501    0 -0.00000000000E+00 -0.00000000000E+00 -0.49824467594E+03  0.49824467594E+03  0.00000000000E+00 0. -1.
         25    2    1    2    0    0 -0.11708225458E+03 -0.80075163173E+02 -0.55320815929E+01  0.18914488153E+03  0.12499958475E+03 0.  0.
          2    1    1    2  501    0  0.94288570278E+02  0.10072817894E+03 -0.38560265878E+03  0.40954353978E+03  0.00000000000E+00 0. -1.
          1    1    1    2  502    0  0.22793684302E+02 -0.20653015768E+02  0.67629409391E+02  0.74295599594E+02  0.00000000000E+00 0. -1.
         22    1    3    3    0    0 -0.24352839486E+01 -0.37797622933E+02 -0.46767234906E+02  0.60181103081E+02  0.00000000000E+00 0.  1.
         22    1    3    3    0    0 -0.11464697063E+03 -0.42277540239E+02  0.41235153313E+02  0.12896377845E+03  0.00000000000E+00 0.  1.
</event>
<event>
 7    1  0.6188600E-006  0.9825353E+02  0.7818608E-02  0.1391427E+00
          2   -1    0    0  502    0  0.00000000000E+00  0.00000000000E+00  0.48965067407E+03  0.48965067407E+03  0.00000000000E+00 0. -1.
          1   -1    0    0  501    0 -0.00000000000E+00 -0.00000000000E+00 -0.12110929906E+03  0.12110929906E+03  0.00000000000E+00 0. -1.
         25    2    1    2    0    0  0.29277426281E+02  0.84999744389E+02  0.12636317436E+03  0.19918588355E+03  0.12500096053E+03 0.  0.
          2    1    1    2  501    0 -0.35015294295E+02  0.16152539724E+02 -0.71884345206E+02  0.81574104101E+02  0.00000000000E+00 0. -1.
          1    1    1    2  502    0  0.57378680136E+01 -0.10115228411E+03  0.31406254585E+03  0.32999998548E+03  0.00000000000E+00 0. -1.
         22    1    3    3    0    0  0.14825700604E+00  0.28482373095E+02 -0.23156791335E+02  0.36708371555E+02  0.00000000000E+00 0.  1.
         22    1    3    3    0    0  0.29129169275E+02  0.56517371293E+02  0.14951996570E+03  0.16247751199E+03  0.00000000000E+00 0.  1.
</event>
<event>
 7    1  0.6188600E-006  0.2416145E+03  0.7818608E-02  0.1330695E+00
          2   -1    0    0  502    0  0.00000000000E+00  0.00000000000E+00  0.21742810759E+04  0.21742810759E+04  0.00000000000E+00 0. -1.
          1   -1    0    0  501    0 -0.00000000000E+00 -0.00000000000E+00 -0.38492134556E+03  0.38492134556E+03  0.00000000000E+00 0. -1.
         25    2    1    2    0    0  0.23322294848E+03 -0.63474560972E+02 -0.12744930125E+03  0.30048411131E+03  0.12500165267E+03 0.  0.
          2    1    1    2  501    0 -0.82545548271E+01 -0.24768854694E+02 -0.16291896543E+03  0.16499764585E+03  0.00000000000E+00 0. -1.
          1    1    1    2  502    0 -0.22496839365E+03  0.88243415666E+02  0.20797279970E+04  0.20937206643E+04  0.00000000000E+00 0. -1.
         22    1    3    3    0    0  0.31181077340E+02  0.15777545894E+02  0.17915350394E+02  0.39270221775E+02  0.00000000000E+00 0. -1.
         22    1    3    3    0    0  0.20204187114E+03 -0.79252106866E+02 -0.14536465165E+03  0.26121388953E+03  0.00000000000E+00 0. -1.
</event>
<event>
 7    1  0.6188600E-006  0.1098150E+03  0.7818608E-02  0.1409161E+00
          2   -1    0    0  502    0  0.00000000000E+00  0.00000000000E+00  0.10951214225E+04  0.10951214225E+04  0.00000000000E+00 0. -1.
          1   -1    0    0  501    0 -0.00000000000E+00 -0.00000000000E+00 -0.54162905379E+03  0.54162905379E+03  0.00000000000E+00 0. -1.
         25    2    1    2    0    0  0.89972501762E+02  0.64080629576E+02 -0.54816723623E+02  0.17559023023E+03  0.12500271039E+03 0.  0.
          2    1    1    2  501    0  0.13416007411E+02 -0.26814520164E+02 -0.42297525923E+03  0.42403664661E+03  0.00000000000E+00 0. -1.
          1    1    1    2  502    0 -0.10338850917E+03 -0.37266109412E+02  0.10312843515E+04  0.10371235994E+04  0.00000000000E+00 0. -1.
         22    1    3    3    0    0 -0.11510266195E+02 -0.27188445335E+02 -0.33177897748E+01  0.29710360425E+02  0.00000000000E+00 0.  1.
         22    1    3    3    0    0  0.10148276796E+03  0.91269074911E+02 -0.51498933848E+02  0.14587986981E+03  0.00000000000E+00 0.  1.
</event>
<event>
 7    1  0.6188600E-006  0.2904161E+02  0.7818608E-02  0.1628851E+00
          2   -1    0    0  502    0  0.00000000000E+00  0.00000000000E+00  0.61328820718E+03  0.61328820718E+03  0.00000000000E+00 0. -1.
          1   -1    0    0  501    0 -0.00000000000E+00 -0.00000000000E+00 -0.15730209574E+03  0.15730209574E+03  0.00000000000E+00 0. -1.
         25    2    1    2    0    0  0.51310195065E+02  0.58461970295E+01  0.10035397943E+03  0.16840860425E+03  0.12499449053E+03 0.  0.
          2    1    1    2  501    0 -0.28213236392E+02  0.57292204631E+01 -0.12123952322E+03  0.12461072452E+03  0.00000000000E+00 0. -1.
          1    1    1    2  502    0 -0.23096958673E+02 -0.11575417493E+02  0.47687165523E+03  0.47757097416E+03  0.00000000000E+00 0. -1.
         22    1    3    3    0    0  0.45465981008E+02  0.51018123177E+02  0.12531271819E+02  0.69476881730E+02  0.00000000000E+00 0.  1.
         22    1    3    3    0    0  0.58442140573E+01 -0.45171926148E+02  0.87822707608E+02  0.98931722523E+02  0.00000000000E+00 0.  1.
</event>
<event>
 7    1  0.6188600E-006  0.7981342E+02  0.7818608E-02  0.1446718E+00
          2   -1    0    0  502    0  0.00000000000E+00  0.00000000000E+00  0.97519536921E+03  0.97519536921E+03  0.00000000000E+00 0. -1.
          1   -1    0    0  501    0 -0.00000000000E+00 -0.00000000000E+00 -0.10512583782E+03  0.10512583782E+03  0.00000000000E+00 0. -1.
         25    2    1    2    0    0  0.29051292205E+02  0.76888901151E+02  0.16832290211E+03  0.22520071627E+03  0.12500752992E+03 0.  0.
          2    1    1    2  501    0 -0.54317529602E+02 -0.58918369934E+02 -0.55347627845E+02  0.97391623078E+02  0.00000000000E+00 0. -1.
          1    1    1    2  502    0  0.25266237397E+02 -0.17970531218E+02  0.75709425713E+03  0.75772886768E+03  0.00000000000E+00 0. -1.
         22    1    3    3    0    0  0.29356608051E+02 -0.22056111968E+02  0.95587222889E+02  0.10239726408E+03  0.00000000000E+00 0. -1.
         22    1    3    3    0    0 -0.30531584608E+00  0.98945013119E+02  0.72735679218E+02  0.12280345219E+03  0.00000000000E+00 0. -1.
</event>
<event>
 7    1  0.6188600E-006  0.1687803E+03  0.7818608E-02  0.1337404E+00
          2   -1    0    0  502    0  0.00000000000E+00  0.00000000000E+00  0.12228255622E+04  0.12228255622E+04  0.00000000000E+00 0. -1.
          1   -1    0    0  501    0 -0.00000000000E+00 -0.00000000000E+00 -0.78194546356E+03  0.78194546356E+03  0.00000000000E+00 0. -1.
         25    2    1    2    0    0  0.83557904032E+02 -0.12769419917E+03 -0.10431956205E+03  0.22314725998E+03  0.12499758710E+03 0.  0.
          2    1    1    2  501    0 -0.19622541184E+02 -0.29278154380E+02 -0.61152869808E+03  0.61254355194E+03  0.00000000000E+00 0. -1.
          1    1    1    2  502    0 -0.63935362847E+02  0.15697235355E+03  0.11567283588E+04  0.11690802138E+04  0.00000000000E+00 0. -1.
         22    1    3    3    0    0  0.34693450867E+02  0.14947618887E+02  0.32700608119E+01  0.37917807705E+02  0.00000000000E+00 0.  1.
         22    1    3    3    0    0  0.48864453165E+02 -0.14264181806E+03 -0.10758962286E+03  0.18522945227E+03  0.00000000000E+00 0.  1.
</event>
<event>
 7    1  0.6253303E-006  0.6839939E+02  0.7818608E-02  0.1411897E+00
          2   -1    0    0  502    0  0.00000000000E+00  0.00000000000E+00  0.63712064676E+03  0.63712064676E+03  0.00000000000E+00 0. -1.
          1   -1    0    0  501    0 -0.00000000000E+00 -0.00000000000E+00 -0.23246925480E+04  0.23246925480E+04  0.00000000000E+00 0. -1.
         25    2    1    2    0    0  0.51162790744E+02  0.31469033002E+01 -0.45841196676E+03  0.47790697633E+03  0.12500405031E+03 0.  0.
          2    1    1    2  501    0 -0.49376444779E+02 -0.50235368404E+02 -0.18549788372E+04  0.18563157361E+04  0.00000000000E+00 0. -1.
          1    1    1    2  502    0 -0.17863459649E+01  0.47088465104E+02  0.62581890271E+03  0.62759048237E+03  0.00000000000E+00 0. -1.
         22    1    3    3    0    0  0.73598507082E+02 -0.40165043095E+00 -0.13551118247E+03  0.15420824279E+03  0.00000000000E+00 0.  1.
         22    1    3    3    0    0 -0.22435716338E+02  0.35485537311E+01 -0.32290078429E+03  0.32369873354E+03  0.00000000000E+00 0.  1.
</event>
<event>
 7    1  0.6188600E-006  0.6344124E+02  0.7818608E-02  0.1481983E+00
          2   -1    0    0  502    0  0.00000000000E+00  0.00000000000E+00  0.24214227507E+04  0.24214227507E+04  0.00000000000E+00 0. -1.
          1   -1    0    0  501    0 -0.00000000000E+00 -0.00000000000E+00 -0.25002373798E+03  0.25002373798E+03  0.00000000000E+00 0. -1.
         25    2    1    2    0    0  0.43992442904E+02 -0.70541932619E+02  0.30530018414E+03  0.34021311733E+03  0.12500105391E+03 0.  0.
          2    1    1    2  501    0 -0.15174442614E+02  0.61384767822E+02 -0.22815805051E+03  0.23675820882E+03  0.00000000000E+00 0. -1.
          1    1    1    2  502    0 -0.28818000289E+02  0.91571647972E+01  0.20942568791E+04  0.20944751626E+04  0.00000000000E+00 0. -1.
         22    1    3    3    0    0  0.74126887569E+02 -0.20912403881E+02  0.96377016509E+02  0.12337201226E+03  0.00000000000E+00 0. -1.
         22    1    3    3    0    0 -0.30134444666E+02 -0.49629528738E+02  0.20892316763E+03  0.21684110508E+03  0.00000000000E+00 0. -1.
</event>
<event>
 7    1  0.6188600E-006  0.2559440E+02  0.7818608E-02  0.1666834E+00
          2   -1    0    0  502    0  0.00000000000E+00  0.00000000000E+00  0.40661165965E+02  0.40661165965E+02  0.00000000000E+00 0. -1.
          1   -1    0    0  501    0 -0.00000000000E+00 -0.00000000000E+00 -0.19560499859E+04  0.19560499859E+04  0.00000000000E+00 0. -1.
         25    2    1    2    0    0 -0.17167628379E+02 -0.38752757511E+02 -0.24842894913E+03  0.28131674107E+03  0.12500264942E+03 0.  0.
          2    1    1    2  501    0  0.20408184651E+02  0.15334156286E+02 -0.16852873855E+04  0.16854807035E+04  0.00000000000E+00 0. -1.
          1    1    1    2  502    0 -0.32405562724E+01  0.23418601225E+02  0.18327514667E+02  0.29913707263E+02  0.00000000000E+00 0. -1.
         22    1    3    3    0    0 -0.19278791665E+02  0.45153786442E+01  0.79255992656E+01  0.21327812267E+02  0.00000000000E+00 0.  1.
         22    1    3    3    0    0  0.21111632865E+01 -0.43268136156E+02 -0.25635454840E+03  0.25998892880E+03  0.00000000000E+00 0.  1.
</event>
<event>
 7    1  0.6188600E-006  0.6153928E+02  0.7818608E-02  0.1395202E+00
          2   -1    0    0  502    0  0.00000000000E+00  0.00000000000E+00  0.43906186782E+03  0.43906186782E+03  0.00000000000E+00 0. -1.
          1   -1    0    0  501    0 -0.00000000000E+00 -0.00000000000E+00 -0.24617204770E+03  0.24617204770E+03  0.00000000000E+00 0. -1.
         25    2    1    2    0    0 -0.58817505858E+02 -0.46477626483E+02 -0.95299671275E+02  0.17414569546E+03  0.12500010857E+03 0.  0.
          2    1    1    2  501    0 -0.82368051869E+00  0.61643777014E+02 -0.10031263262E+03  0.11774233715E+03  0.00000000000E+00 0. -1.
          1    1    1    2  502    0  0.59641186376E+02 -0.15166150531E+02  0.38850212402E+03  0.39334588291E+03  0.00000000000E+00 0. -1.
         22    1    3    3    0    0 -0.10932573697E+02  0.19499781552E+02 -0.89685486596E+02  0.92429698442E+02  0.00000000000E+00 0.  1.
         22    1    3    3    0    0 -0.47884932160E+02 -0.65977408035E+02 -0.56141846791E+01  0.81715997018E+02  0.00000000000E+00 0.  1.
</event>
<event>
 7    1  0.1317563E-005  0.8179032E+02  0.7818608E-02  0.1359250E+00
          2   -1    0    0  502    0  0.00000000000E+00  0.00000000000E+00  0.15842161279E+04  0.15842161279E+04  0.00000000000E+00 0. -1.
          1   -1    0    0  501    0 -0.00000000000E+00 -0.00000000000E+00 -0.17186970709E+04  0.17186970709E+04  0.00000000000E+00 0. -1.
         25    2    1    2    0    0 -0.62293072912E+02 -0.55304178594E+02 -0.22860126431E+03  0.27353738886E+03  0.12500074383E+03 0.  0.
          2    1    1    2  501    0  0.83740608596E+01  0.82380363173E+02 -0.14658761208E+04  0.14682130127E+04  0.00000000000E+00 0. -1.
          1    1    1    2  502    0  0.53919012053E+02 -0.27076184579E+02  0.15599964422E+04  0.15611627971E+04  0.00000000000E+00 0. -1.
         22    1    3    3    0    0 -0.60113280576E+02 -0.84892502243E+02 -0.11046590242E+03  0.15173351323E+03  0.00000000000E+00 0.  1.
         22    1    3    3    0    0 -0.21797923361E+01  0.29588323650E+02 -0.11813536189E+03  0.12180387563E+03  0.00000000000E+00 0.  1.
</event>
<event>
 7    1  0.6188600E-006  0.6926352E+02  0.7818608E-02  0.1430789E+00
          2   -1    0    0  502    0  0.00000000000E+00  0.00000000000E+00  0.28682239716E+03  0.28682239716E+03  0.00000000000E+00 0. -1.
          1   -1    0    0  501    0 -0.00000000000E+00 -0.00000000000E+00 -0.10068886112E+04  0.10068886112E+04  0.00000000000E+00 0. -1.
         25    2    1    2    0    0  0.19034231983E+02  0.10646026376E+03 -0.16118194537E+03  0.23086958554E+03  0.12500022507E+03 0.  0.
          2    1    1    2  501    0 -0.11741323028E+02 -0.38502114900E+02 -0.80571634137E+03  0.80672119983E+03  0.00000000000E+00 0. -1.
          1    1    1    2  502    0 -0.72929089551E+01 -0.67958148855E+02  0.24683207269E+03  0.25612022299E+03  0.00000000000E+00 0. -1.
         22    1    3    3    0    0  0.63020746646E+02  0.43588015564E+02 -0.12360865929E+03  0.14543256258E+03  0.00000000000E+00 0. -1.
         22    1    3    3    0    0 -0.43986514663E+02  0.62872248192E+02 -0.37573286085E+02  0.85437022959E+02  0.00000000000E+00 0. -1.
</event>
<event>
 7    1  0.6188600E-006  0.1273210E+03  0.7818608E-02  0.1349663E+00
          2   -1    0    0  502    0  0.00000000000E+00  0.00000000000E+00  0.14717276404E+03  0.14717276404E+03  0.00000000000E+00 0. -1.
          1   -1    0    0  501    0 -0.00000000000E+00 -0.00000000000E+00 -0.10374591746E+04  0.10374591746E+04  0.00000000000E+00 0. -1.
         25    2    1    2    0    0  0.14016042895E+03 -0.18618154633E+02 -0.50524868760E+03  0.53934455426E+03  0.12499892146E+03 0.  0.
          2    1    1    2  501    0 -0.24755004043E+02 -0.33977737267E+02 -0.48312895207E+03  0.48495451455E+03  0.00000000000E+00 0. -1.
          1    1    1    2  502    0 -0.11540542491E+03  0.52595891900E+02  0.98091229063E+02  0.16033286988E+03  0.00000000000E+00 0. -1.
         22    1    3    3    0    0 -0.87070680611E+01 -0.36053379813E+02 -0.13239330453E+03  0.13749053172E+03  0.00000000000E+00 0. -1.
         22    1    3    3    0    0  0.14886749702E+03  0.17435225180E+02 -0.37285538307E+03  0.40185402254E+03  0.00000000000E+00 0. -1.
</event>
<event>
 7    1  0.6188600E-006  0.8256899E+02  0.7818608E-02  0.1381892E+00
          2   -1    0    0  502    0  0.00000000000E+00  0.00000000000E+00  0.29158060968E+03  0.29158060968E+03  0.00000000000E+00 0. -1.
          1   -1    0    0  501    0 -0.00000000000E+00 -0.00000000000E+00 -0.40123293084E+03  0.40123293084E+03  0.00000000000E+00 0. -1.
         25    2    1    2    0    0 -0.42557092330E+02 -0.17147778773E+02  0.33443881307E+02  0.13729026938E+03  0.12499988978E+03 0.  0.
          2    1    1    2  501    0  0.54775482044E+02  0.65177130388E+02 -0.34102113279E+03  0.35148801511E+03  0.00000000000E+00 0. -1.
          1    1    1    2  502    0 -0.12218389714E+02 -0.48029351616E+02  0.19792493031E+03  0.20403525603E+03  0.00000000000E+00 0. -1.
         22    1    3    3    0    0 -0.66362690963E+02  0.34815736535E+02  0.27491104401E+02  0.79824201114E+02  0.00000000000E+00 0. -1.
         22    1    3    3    0    0  0.23805598633E+02 -0.51963515307E+02  0.59527769066E+01  0.57466068269E+02  0.00000000000E+00 0. -1.
</event>
<event>
 7    1  0.6188600E-006  0.1351120E+03  0.7818608E-02  0.1224721E+00
          2   -1    0    0  502    0  0.00000000000E+00  0.00000000000E+00  0.55257085477E+03  0.55257085477E+03  0.00000000000E+00 0. -1.
          1   -1    0    0  501    0 -0.00000000000E+00 -0.00000000000E+00 -0.22786620130E+04  0.22786620130E+04  0.00000000000E+00 0. -1.
         25    2    1    2    0    0 -0.16202806541E+02  0.12975225887E+03  0.60155540892E+02  0.19063413572E+03  0.12499801991E+03 0.  0.
          2    1    1    2  501    0  0.12682873036E+03 -0.46580332311E+02 -0.22000849951E+04  0.22042298519E+04  0.00000000000E+00 0. -1.
          1    1    1    2  502    0 -0.11062592382E+03 -0.83171926560E+02  0.41383829597E+03  0.43636888019E+03  0.00000000000E+00 0. -1.
         22    1    3    3    0    0  0.46212591477E+02  0.12755997813E+02  0.10795018064E+02  0.49141138634E+02  0.00000000000E+00 0.  1.
         22    1    3    3    0    0 -0.62415398018E+02  0.11699626106E+03  0.49360522827E+02  0.14149299709E+03  0.00000000000E+00 0.  1.
</event>
<event>
 7    1  0.6188600E-006  0.8606794E+02  0.7818608E-02  0.1367769E+00
          2   -1    0    0  502    0  0.00000000000E+00  0.00000000000E+00  0.12469325397E+04  0.12469325397E+04  0.00000000000E+00 0. -1.
          1   -1    0    0  501    0 -0.00000000000E+00 -0.00000000000E+00 -0.97951949737E+02  0.97951949737E+02  0.00000000000E+00 0. -1.
         25    2    1    2    0    0  0.88713299270E+02 -0.54966774417E+02  0.12705459996E+03  0.20653253131E+03  0.12498567662E+03 0.  0.
          2    1    1    2  501    0 -0.49013618884E+02 -0.21184190607E+02 -0.43867172939E+02  0.69104512366E+02  0.00000000000E+00 0. -1.
          1    1    1    2  502    0 -0.39699680387E+02  0.76150965024E+02  0.10657931629E+04  0.10692474458E+04  0.00000000000E+00 0. -1.
         22    1    3    3    0    0  0.11269641339E+03 -0.71636776677E+02  0.10168951010E+03  0.16784834175E+03  0.00000000000E+00 0. -1.
         22    1    3    3    0    0 -0.23983114119E+02  0.16670002260E+02  0.25365089858E+02  0.38684189557E+02  0.00000000000E+00 0. -1.
</event>
<event>
 7    1  0.6188600E-006  0.4779306E+02  0.7818608E-02  0.1535973E+00
          2   -1    0    0  502    0  0.00000000000E+00  0.00000000000E+00  0.34416761733E+03  0.34416761733E+03  0.00000000000E+00 0. -1.
          1   -1    0    0  501    0 -0.00000000000E+00 -0.00000000000E+00 -0.54751210417E+03  0.54751210417E+03  0.00000000000E+00 0. -1.
         25    2    1    2    0    0  0.39945430674E+02  0.61466211616E+02 -0.85025987995E+02  0.16801489979E+03  0.12500342121E+03 0.  0.
          2    1    1    2  501    0 -0.21358716842E+02 -0.17825854474E+02 -0.41866878140E+03  0.41959206903E+03  0.00000000000E+00 0. -1.
          1    1    1    2  502    0 -0.18586713832E+02 -0.43640357143E+02  0.30035028255E+03  0.30407275269E+03  0.00000000000E+00 0. -1.
         22    1    3    3    0    0 -0.29179391990E+02  0.66941127795E+01  0.15970526231E+02  0.33930896996E+02  0.00000000000E+00 0. -1.
         22    1    3    3    0    0  0.69124822664E+02  0.54772098837E+02 -0.10099651423E+03  0.13408400279E+03  0.00000000000E+00 0. -1.
</event>
<event>
 7    1  0.6188600E-006  0.3916273E+02  0.7818608E-02  0.1619944E+00
          2   -1    0    0  502    0  0.00000000000E+00  0.00000000000E+00  0.18130611027E+04  0.18130611027E+04  0.00000000000E+00 0. -1.
          1   -1    0    0  501    0 -0.00000000000E+00 -0.00000000000E+00 -0.68947779030E+02  0.68947779030E+02  0.00000000000E+00 0. -1.
         25    2    1    2    0    0 -0.54383652414E+02  0.21050839126E+02  0.79167331632E+02  0.15904439391E+03  0.12500773319E+03 0.  0.
          2    1    1    2  501    0  0.20027808239E+02 -0.24729903047E+01 -0.25246663083E+02  0.32320624696E+02  0.00000000000E+00 0. -1.
          1    1    1    2  502    0  0.34355844175E+02 -0.18577848821E+02  0.16901926551E+04  0.16906438631E+04  0.00000000000E+00 0. -1.
         22    1    3    3    0    0 -0.19284023698E+01 -0.28340531870E+02 -0.21234875030E+02  0.35465820164E+02  0.00000000000E+00 0. -1.
         22    1    3    3    0    0 -0.52455250044E+02  0.49391370996E+02  0.10040220666E+03  0.12357857374E+03  0.00000000000E+00 0. -1.
</event>
<event>
 7    1  0.6188600E-006  0.7108344E+02  0.7818608E-02  0.1404132E+00
          2   -1    0    0  502    0  0.00000000000E+00  0.00000000000E+00  0.14207772900E+03  0.14207772900E+03  0.00000000000E+00 0. -1.
          1   -1    0    0  501    0 -0.00000000000E+00 -0.00000000000E+00 -0.33971860100E+03  0.33971860100E+03  0.00000000000E+00 0. -1.
         25    2    1    2    0    0 -0.68659056849E+01  0.46589310904E+02 -0.11632357585E+03  0.17712751021E+03  0.12500110408E+03 0.  0.
          2    1    1    2  501    0 -0.34049792325E+02 -0.72037145707E+02 -0.17889818247E+03  0.19583998164E+03  0.00000000000E+00 0. -1.
          1    1    1    2  502    0  0.40915698010E+02  0.25447834803E+02  0.97580886316E+02  0.10882883815E+03  0.00000000000E+00 0. -1.
         22    1    3    3    0    0 -0.79287095300E+01  0.51501737294E+02  0.79855545027E+01  0.52716813825E+02  0.00000000000E+00 0.  1.
         22    1    3    3    0    0  0.10628038451E+01 -0.49124263900E+01 -0.12430913035E+03  0.12441069638E+03  0.00000000000E+00 0.  1.
</event>
<event>
 7    1  0.6188600E-006  0.7908920E+02  0.7818608E-02  0.1390576E+00
          2   -1    0    0  502    0  0.00000000000E+00  0.00000000000E+00  0.75066843662E+03  0.75066843662E+03  0.00000000000E+00 0. -1.
          1   -1    0    0  501    0 -0.00000000000E+00 -0.00000000000E+00 -0.24375632063E+03  0.24375632063E+03  0.00000000000E+00 0. -1.
         25    2    1    2    0    0 -0.10228849249E+03 -0.71694904053E+02  0.11072988085E+03  0.20854071567E+03  0.12500011446E+03 0.  0.
          2    1    1    2  501    0  0.60799520554E+02  0.47095163239E+02 -0.18622639629E+03  0.20148152961E+03  0.00000000000E+00 0. -1.
          1    1    1    2  502    0  0.41488971937E+02  0.24599740814E+02  0.58240863143E+03  0.58440251197E+03  0.00000000000E+00 0. -1.
         22    1    3    3    0    0 -0.11549301019E+03 -0.13338943639E+02  0.64693455520E+02  0.13304813417E+03  0.00000000000E+00 0. -1.
         22    1    3    3    0    0  0.13204517700E+02 -0.58355960415E+02  0.46036425334E+02  0.75492581497E+02  0.00000000000E+00 0. -1.
</event>
<event>
 7    1  0.6188600E-006  0.1338421E+03  0.7818608E-02  0.1224612E+00
          2   -1    0    0  502    0  0.00000000000E+00  0.00000000000E+00  0.52812815963E+03  0.52812815963E+03  0.00000000000E+00 0. -1.
          1   -1    0    0  501    0 -0.00000000000E+00 -0.00000000000E+00 -0.60088922778E+03  0.60088922778E+03  0.00000000000E+00 0. -1.
         25    2    1    2    0    0  0.11164520508E+02 -0.46543378320E+01 -0.18374608728E+03  0.22256140269E+03  0.12499857598E+03 0.  0.
          2    1    1    2  501    0  0.12561785782E+03  0.33686753752E+02 -0.37701555693E+03  0.39881746921E+03  0.00000000000E+00 0. -1.
          1    1    1    2  502    0 -0.13678237833E+03 -0.29032415920E+02  0.48800057606E+03  0.50763851551E+03  0.00000000000E+00 0. -1.
         22    1    3    3    0    0  0.58424858855E+02  0.30118431576E+02 -0.11216242713E+03  0.13000382346E+03  0.00000000000E+00 0.  1.
         22    1    3    3    0    0 -0.47260338347E+02 -0.34772769408E+02 -0.71583660147E+02  0.92557579230E+02  0.00000000000E+00 0.  1.
</event>
<event>
 7    1  0.6188600E-006  0.1000605E+03  0.7818608E-02  0.1337670E+00
          2   -1    0    0  502    0  0.00000000000E+00  0.00000000000E+00  0.19415794906E+04  0.19415794906E+04  0.00000000000E+00 0. -1.
          1   -1    0    0  501    0 -0.00000000000E+00 -0.00000000000E+00 -0.18822635483E+03  0.18822635483E+03  0.00000000000E+00 0. -1.
         25    2    1    2    0    0  0.58916353764E+02  0.10673831340E+02  0.33232034388E+03  0.36006530067E+03  0.12500056949E+03 0.  0.
          2    1    1    2  501    0  0.42492536677E+02 -0.41383711003E+02 -0.16749271772E+03  0.17768522082E+03  0.00000000000E+00 0. -1.
          1    1    1    2  502    0 -0.10140889044E+03  0.30709879662E+02  0.15885255096E+04  0.15920553240E+04  0.00000000000E+00 0. -1.
         22    1    3    3    0    0  0.89320686333E+02  0.35640021944E+02  0.26725313517E+03  0.28402928445E+03  0.00000000000E+00 0.  1.
         22    1    3    3    0    0 -0.30404332569E+02 -0.24966190603E+02  0.65067208711E+02  0.76036016213E+02  0.00000000000E+00 0.  1.
</event>
<event>
 7    1  0.7101899E-006  0.1524158E+03  0.7818608E-02  0.1373579E+00
          2   -1    0    0  502    0  0.00000000000E+00  0.00000000000E+00  0.12838975854E+04  0.12838975854E+04  0.00000000000E+00 0. -1.
          1   -1    0    0  501    0 -0.00000000000E+00 -0.00000000000E+00 -0.17143725432E+04  0.17143725432E+04  0.00000000000E+00 0. -1.
         25    2    1    2    0    0 -0.13690138232E+02  0.12938939910E+03 -0.60571563812E+03  0.63201699548E+03  0.12500004731E+03 0.  0.
          2    1    1    2  501    0  0.17009384612E+02  0.23163164119E+02 -0.10907356560E+04  0.10911141657E+04  0.00000000000E+00 0. -1.
          1    1    1    2  502    0 -0.33192463803E+01 -0.15255256322E+03  0.12659763364E+04  0.12751389674E+04  0.00000000000E+00 0. -1.
         22    1    3    3    0    0 -0.35271865124E+02  0.55581383040E+02 -0.95204305011E+02  0.11574650881E+03  0.00000000000E+00 0.  1.
         22    1    3    3    0    0  0.21581726892E+02  0.73808016064E+02 -0.51051133311E+03  0.51627048667E+03  0.00000000000E+00 0.  1.
</event>
<event>
 7    1  0.6188600E-006  0.9365879E+02  0.7818608E-02  0.1335909E+00
          2   -1    0    0  502    0  0.00000000000E+00  0.00000000000E+00  0.11990542952E+04  0.11990542952E+04  0.00000000000E+00 0. -1.
          1   -1    0    0  501    0 -0.00000000000E+00 -0.00000000000E+00 -0.97054905245E+03  0.97054905245E+03  0.00000000000E+00 0. -1.
         25    2    1    2    0    0 -0.49680904729E+02 -0.31082221836E+02  0.10981699581E+03  0.17640674281E+03  0.12500107812E+03 0.  0.
          2    1    1    2  501    0  0.93047934615E+02 -0.16456646962E+02 -0.93388752022E+03  0.93865576213E+03  0.00000000000E+00 0. -1.
          1    1    1    2  502    0 -0.43367029886E+02  0.47538868799E+02  0.10525757672E+04  0.10545408427E+04  0.00000000000E+00 0. -1.
         22    1    3    3    0    0 -0.29033649408E+02 -0.32733567135E+02  0.13608994994E+03  0.14295073868E+03  0.00000000000E+00 0.  1.
         22    1    3    3    0    0 -0.20647255321E+02  0.16513452982E+01 -0.26272954131E+02  0.33456004130E+02  0.00000000000E+00 0.  1.
</event>
<event>
 7    1  0.6188600E-006  0.9524457E+02  0.7818608E-02  0.1364302E+00
          2   -1    0    0  502    0  0.00000000000E+00  0.00000000000E+00  0.11805362727E+04  0.11805362727E+04  0.00000000000E+00 0. -1.
          1   -1    0    0  501    0 -0.00000000000E+00 -0.00000000000E+00 -0.14363107814E+03  0.14363107814E+03  0.00000000000E+00 0. -1.
         25    2    1    2    0    0  0.71172052681E+02  0.12475203500E+03  0.63562074894E+03  0.66352643754E+03  0.12500026202E+03 0.  0.
          2    1    1    2  501    0 -0.46951829420E+02 -0.81393710150E+02 -0.11129725612E+03  0.14565881216E+03  0.00000000000E+00 0. -1.
          1    1    1    2  502    0 -0.24220223261E+02 -0.43358324855E+02  0.51258170177E+03  0.51498210118E+03  0.00000000000E+00 0. -1.
         22    1    3    3    0    0 -0.27162891547E+02  0.90507417898E+00  0.16035547812E+03  0.16264231060E+03  0.00000000000E+00 0. -1.
         22    1    3    3    0    0  0.98334944228E+02  0.12384696083E+03  0.47526527082E+03  0.50088412693E+03  0.00000000000E+00 0. -1.
</event>
<event>
 7    1  0.6188600E-006  0.9415830E+02  0.7818608E-02  0.1455211E+00
          2   -1    0    0  502    0  0.00000000000E+00  0.00000000000E+00  0.21834603968E+04  0.21834603968E+04  0.00000000000E+00 0. -1.
          1   -1    0    0  501    0 -0.00000000000E+00 -0.00000000000E+00 -0.24227399724E+03  0.24227399724E+03  0.00000000000E+00 0. -1.
         25    2    1    2    0    0  0.63528816136E+02  0.49847634706E+02  0.57836118694E+03  0.59719850989E+03  0.12499480186E+03 0.  0.
          2    1    1    2  501    0 -0.58585153601E+02 -0.74037373920E+02 -0.22318524916E+03  0.24233325896E+03  0.00000000000E+00 0. -1.
          1    1    1    2  502    0 -0.49436625350E+01  0.24189739214E+02  0.15860104618E+04  0.15862026252E+04  0.00000000000E+00 0. -1.
         22    1    3    3    0    0  0.72355274900E+02  0.44434611143E+01  0.15272065836E+03  0.16905215066E+03  0.00000000000E+00 0. -1.
         22    1    3    3    0    0 -0.88264587644E+01  0.45404173592E+02  0.42564052858E+03  0.42814635923E+03  0.00000000000E+00 0. -1.
</event>
<event>
 7    1  0.6188600E-006  0.3765174E+02  0.7818608E-02  0.1561713E+00
          2   -1    0    0  502    0  0.00000000000E+00  0.00000000000E+00  0.45179193325E+02  0.45179193325E+02  0.00000000000E+00 0. -1.
          1   -1    0    0  501    0 -0.00000000000E+00 -0.00000000000E+00 -0.10874458269E+04  0.10874458269E+04  0.00000000000E+00 0. -1.
         25    2    1    2    0    0 -0.50138293056E+02 -0.92734153246E+01 -0.38424240270E+03  0.40726712887E+03  0.12499778224E+03 0.  0.
          2    1    1    2  501    0  0.16141354687E+02  0.25197694321E+02 -0.68079360847E+03  0.68145095529E+03  0.00000000000E+00 0. -1.
          1    1    1    2  502    0  0.33996938368E+02 -0.15924278997E+02  0.22769377584E+02  0.43906936076E+02  0.00000000000E+00 0. -1.
         22    1    3    3    0    0 -0.58467541984E+02 -0.51143983213E+02 -0.32555901304E+03  0.33469811989E+03  0.00000000000E+00 0. -1.
         22    1    3    3    0    0  0.83292489281E+01  0.41870567888E+02 -0.58683389660E+02  0.72569008984E+02  0.00000000000E+00 0. -1.
</event>
<event>
 7    1  0.6188600E-006  0.5860666E+02  0.7818608E-02  0.1464425E+00
          2   -1    0    0  502    0  0.00000000000E+00  0.00000000000E+00  0.63632355534E+03  0.63632355534E+03  0.00000000000E+00 0. -1.
          1   -1    0    0  501    0 -0.00000000000E+00 -0.00000000000E+00 -0.20482696351E+03  0.20482696351E+03  0.00000000000E+00 0. -1.
         25    2    1    2    0    0  0.24207361513E+02 -0.15411247849E+02 -0.24748169869E+01  0.12827399494E+03  0.12499836058E+03 0.  0.
          2    1    1    2  501    0 -0.61083570754E+02  0.11359464996E+02 -0.13189455170E+03  0.14579579153E+03  0.00000000000E+00 0. -1.
          1    1    1    2  502    0  0.36876209241E+02  0.40517828524E+01  0.56586596052E+03  0.56708073237E+03  0.00000000000E+00 0. -1.
         22    1    3    3    0    0 -0.21374112178E+02 -0.33980072335E+02  0.44712798978E+02  0.60089369939E+02  0.00000000000E+00 0.  1.
         22    1    3    3    0    0  0.45581473691E+02  0.18568824486E+02 -0.47187615965E+02  0.68184625005E+02  0.00000000000E+00 0.  1.
</event>
<event>
 7    1  0.6188600E-006  0.9842907E+02  0.7818608E-02  0.1435005E+00
          2   -1    0    0  502    0  0.00000000000E+00  0.00000000000E+00  0.10606436143E+04  0.10606436143E+04  0.00000000000E+00 0. -1.
          1   -1    0    0  501    0 -0.00000000000E+00 -0.00000000000E+00 -0.10871697781E+03  0.10871697781E+03  0.00000000000E+00 0. -1.
         25    2    1    2    0    0 -0.56001753792E+02 -0.11112471666E+03  0.32076325362E+02  0.17927216781E+03  0.12499888168E+03 0.  0.
          2    1    1    2  501    0  0.78415465421E+01  0.26293846165E+02 -0.26841645863E+02  0.38383983000E+02  0.00000000000E+00 0. -1.
          1    1    1    2  502    0  0.48160207250E+02  0.84830870500E+02  0.94669195695E+03  0.95170444126E+03  0.00000000000E+00 0. -1.
         22    1    3    3    0    0 -0.65124574733E+02 -0.67942615968E+01  0.35510417772E+02  0.74487327749E+02  0.00000000000E+00 0.  1.
         22    1    3    3    0    0  0.91228209416E+01 -0.10433045507E+03 -0.34340924100E+01  0.10478484006E+03  0.00000000000E+00 0.  1.
</event>
<event>
 7    1  0.1437915E-005  0.9260973E+02  0.7818608E-02  0.1356128E+00
          2   -1    0    0  502    0  0.00000000000E+00  0.00000000000E+00  0.15087517163E+04  0.15087517163E+04  0.00000000000E+00 0. -1.
          1   -1    0    0  501    0 -0.00000000000E+00 -0.00000000000E+00 -0.23716614361E+04  0.23716614361E+04  0.00000000000E+00 0. -1.
         25    2    1    2    0    0  0.29537028582E+02 -0.12208345292E+03 -0.78979723540E+03  0.80943315099E+03  0.12500218934E+03 0.  0.
          2    1    1    2  501    0  0.26085325679E+02  0.48088960426E+02 -0.15701401967E+04  0.15710930048E+04  0.00000000000E+00 0. -1.
          1    1    1    2  502    0 -0.55622354262E+02  0.73994492494E+02  0.14970277123E+04  0.14998869967E+04  0.00000000000E+00 0. -1.
         22    1    3    3    0    0 -0.18588007651E+02 -0.64297111533E+02 -0.13866632438E+03  0.15397396564E+03  0.00000000000E+00 0.  1.
         22    1    3    3    0    0  0.48125036233E+02 -0.57786341387E+02 -0.65113091102E+03  0.65545918534E+03  0.00000000000E+00 0.  1.
</event>
<event>
 7    1  0.6188600E-006  0.1317549E+03  0.7818608E-02  0.1273829E+00
          2   -1    0    0  502    0  0.00000000000E+00  0.00000000000E+00  0.18162371706E+04  0.18162371706E+04  0.00000000000E+00 0. -1.
          1   -1    0    0  501    0 -0.00000000000E+00 -0.00000000000E+00 -0.14963959818E+03  0.14963959818E+03  0.00000000000E+00 0. -1.
         25    2    1    2    0    0 -0.19104639437E+03 -0.79348560593E+02  0.34415339058E+03  0.42055049722E+03  0.12500498226E+03 0.  0.
          2    1    1    2  501    0  0.73254416903E+02  0.33949524082E+02 -0.93631386165E+02  0.12363501226E+03  0.00000000000E+00 0. -1.
          1    1    1    2  502    0  0.11779197747E+03  0.45399036510E+02  0.14160755680E+04  0.14216912593E+04  0.00000000000E+00 0. -1.
         22    1    3    3    0    0 -0.20190381669E+03 -0.46769386288E+02  0.29963091916E+03  0.36432295344E+03  0.00000000000E+00 0.  1.
         22    1    3    3    0    0  0.10857422313E+02 -0.32579174305E+02  0.44522471418E+02  0.56227543774E+02  0.00000000000E+00 0.  1.
</event>
<event>
 7    1  0.6188600E-006  0.6298734E+02  0.7818608E-02  0.1485800E+00
          2   -1    0    0  502    0  0.00000000000E+00  0.00000000000E+00  0.57799851475E+03  0.57799851475E+03  0.00000000000E+00 0. -1.
          1   -1    0    0  501    0 -0.00000000000E+00 -0.00000000000E+00 -0.28686815408E+03  0.28686815408E+03  0.00000000000E+00 0. -1.
         25    2    1    2    0    0 -0.41299970770E+02 -0.29324912103E+02 -0.19689989128E+03  0.23866305829E+03  0.12499940060E+03 0.  0.
          2    1    1    2  501    0  0.70934854482E+02  0.28380886186E+02 -0.47427553339E+02  0.89925530840E+02  0.00000000000E+00 0. -1.
          1    1    1    2  502    0 -0.29634883713E+02  0.94402591716E+00  0.53545780529E+03  0.53627807970E+03  0.00000000000E+00 0. -1.
         22    1    3    3    0    0 -0.44421732673E+02 -0.32805297524E+02 -0.15710548658E+02  0.57413406261E+02  0.00000000000E+00 0.  1.
         22    1    3    3    0    0  0.31217619032E+01  0.34803854207E+01 -0.18118934262E+03  0.18124965203E+03  0.00000000000E+00 0.  1.
</event>
<event>
 7    1  0.6188600E-006  0.6020969E+02  0.7818608E-02  0.1456610E+00
          2   -1    0    0  502    0  0.00000000000E+00  0.00000000000E+00  0.89822344187E+03  0.89822344187E+03  0.00000000000E+00 0. -1.
          1   -1    0    0  501    0 -0.00000000000E+00 -0.00000000000E+00 -0.37762742529E+02  0.37762742529E+02  0.00000000000E+00 0. -1.
         25    2    1    2    0    0  0.49971789999E+02 -0.21868491912E+02  0.17282058385E+03  0.22015424985E+03  0.12500211514E+03 0.  0.
          2    1    1    2  501    0 -0.64235418017E+02 -0.13588017438E+02  0.66269213835E+02  0.93286825693E+02  0.00000000000E+00 0. -1.
          1    1    1    2  502    0  0.14263628017E+02  0.35456509350E+02  0.62137090166E+03  0.62254510886E+03  0.00000000000E+00 0. -1.
         22    1    3    3    0    0  0.15296048308E+01  0.26574803868E+02  0.14296681880E+03  0.14542376411E+03  0.00000000000E+00 0. -1.
         22    1    3    3    0    0  0.48442185169E+02 -0.48443295781E+02  0.29853765051E+02  0.74730485732E+02  0.00000000000E+00 0. -1.
</event>
<event>
 7    1  0.6188600E-006  0.2791260E+02  0.7818608E-02  0.1638238E+00
          2   -1    0    0  502    0  0.00000000000E+00  0.00000000000E+00  0.64987622363E+02  0.64987622363E+02  0.00000000000E+00 0. -1.
          1   -1    0    0  501    0 -0.00000000000E+00 -0.00000000000E+00 -0.20977917593E+04  0.20977917593E+04  0.00000000000E+00 0. -1.
         25    2    1    2    0    0  0.49737727030E+01 -0.55484887798E+00 -0.82366426250E+03  0.83310973302E+03  0.12499585454E+03 0.  0.
          2    1    1    2  501    0  0.84954388436E+01 -0.24005401492E+02 -0.12660148954E+04  0.12662709612E+04  0.00000000000E+00 0. -1.
          1    1    1    2  502    0 -0.13469211547E+02  0.24560250370E+02  0.56875020979E+02  0.63398687441E+02  0.00000000000E+00 0. -1.
         22    1    3    3    0    0 -0.48691946396E+02 -0.29126882988E+02 -0.25674170094E+03  0.26293645992E+03  0.00000000000E+00 0.  1.
         22    1    3    3    0    0  0.53665719099E+02  0.28572034110E+02 -0.56692256157E+03  0.57017327310E+03  0.00000000000E+00 0.  1.
</event>
<event>
 7    1  0.6188600E-006  0.1416734E+03  0.7818608E-02  0.1349983E+00
          2   -1    0    0  502    0  0.00000000000E+00  0.00000000000E+00  0.34222401321E+04  0.34222401321E+04  0.00000000000E+00 0. -1.
          1   -1    0    0  501    0 -0.00000000000E+00 -0.00000000000E+00 -0.70942976970E+02  0.70942976970E+02  0.00000000000E+00 0. -1.
         25    2    1    2    0    0 -0.14135371076E+03 -0.14872673808E+02  0.21958023764E+03  0.28990085711E+03  0.12499983287E+03 0.  0.
          2    1    1    2  501    0  0.13251189092E+01  0.37654056778E+02 -0.23808440336E+02  0.44569336580E+02  0.00000000000E+00 0. -1.
          1    1    1    2  502    0  0.14002859185E+03 -0.22781382970E+02  0.31555253578E+04  0.31587129154E+04  0.00000000000E+00 0. -1.
         22    1    3    3    0    0 -0.12176848928E+03  0.30633846523E+02  0.20098665035E+03  0.23698445340E+03  0.00000000000E+00 0.  1.
         22    1    3    3    0    0 -0.19585221474E+02 -0.45506520331E+02  0.18593587291E+02  0.52916403705E+02  0.00000000000E+00 0.  1.
</event>
<event>
 7    1  0.6188600E-006  0.1087567E+03  0.7818608E-02  0.1355636E+00
          2   -1    0    0  502    0  0.00000000000E+00  0.00000000000E+00  0.13090617912E+04  0.13090617912E+04  0.00000000000E+00 0. -1.
          1   -1    0    0  501    0 -0.00000000000E+00 -0.00000000000E+00 -0.48947071214E+03  0.48947071214E+03  0.00000000000E+00 0. -1.
         25    2    1    2    0    0  0.15127726266E+03 -0.16576153010E+02 -0.32841773796E+03  0.38294352612E+03  0.12501181762E+03 0.  0.
          2    1    1    2  501    0 -0.45881520372E+02 -0.91234050847E+01 -0.12732648543E+03  0.13564801629E+03  0.00000000000E+00 0. -1.
          1    1    1    2  502    0 -0.10539574229E+03  0.25699558095E+02  0.12753353024E+04  0.12799409609E+04  0.00000000000E+00 0. -1.
         22    1    3    3    0    0 -0.15526338226E+02  0.17420167525E+02 -0.67347775034E+02  0.71275888050E+02  0.00000000000E+00 0. -1.
         22    1    3    3    0    0  0.16680360089E+03 -0.33996320535E+02 -0.26106996293E+03  0.31166763807E+03  0.00000000000E+00 0. -1.
</event>
<event>
 7    1  0.6188600E-006  0.2150901E+03  0.7818608E-02  0.1220858E+00
          2   -1    0    0  502    0  0.00000000000E+00  0.00000000000E+00  0.26169032982E+04  0.26169032982E+04  0.00000000000E+00 0. -1.
          1   -1    0    0  501    0 -0.00000000000E+00 -0.00000000000E+00 -0.45210522807E+03  0.45210522807E+03  0.00000000000E+00 0. -1.
         25    2    1    2    0    0  0.23060820475E+03  0.83431804386E+02  0.12903590244E+04  0.13193908506E+04  0.12499917831E+03 0.  0.
          2    1    1    2  501    0 -0.72091529539E+02  0.43436894086E+02 -0.42558834284E+03  0.43383106155E+03  0.00000000000E+00 0. -1.
          1    1    1    2  502    0 -0.15851667521E+03 -0.12686869847E+03  0.13000273886E+04  0.13157866142E+04  0.00000000000E+00 0. -1.
         22    1    3    3    0    0  0.22544674858E+03  0.47906432893E+02  0.12041000340E+04  0.12259600950E+04  0.00000000000E+00 0. -1.
         22    1    3    3    0    0  0.51614561675E+01  0.35525371494E+02  0.86258990418E+02  0.93430755522E+02  0.00000000000E+00 0. -1.
</event>
<event>
 7    1  0.6188600E-006  0.2371993E+02  0.7818608E-02  0.1680744E+00
          2   -1    0    0  502    0  0.00000000000E+00  0.00000000000E+00  0.13780277402E+03  0.13780277402E+03  0.00000000000E+00 0. -1.
          1   -1    0    0  501    0 -0.00000000000E+00 -0.00000000000E+00 -0.15833401692E+04  0.15833401692E+04  0.00000000000E+00 0. -1.
         25    2    1    2    0    0  0.45352863043E+01  0.46320730113E+02 -0.12270055046E+04  0.12342340488E+04  0.12500000049E+03 0.  0.
          2    1    1    2  501    0 -0.65654836939E+01 -0.22706717875E+02 -0.35127355343E+03  0.35206790532E+03  0.00000000000E+00 0. -1.
          1    1    1    2  502    0  0.20301973896E+01 -0.23614012238E+02  0.13274166286E+03  0.13484098907E+03  0.00000000000E+00 0. -1.
         22    1    3    3    0    0 -0.46901297852E+02  0.14906241535E+02 -0.92302943934E+03  0.92434045333E+03  0.00000000000E+00 0. -1.
         22    1    3    3    0    0  0.51436584156E+02  0.31414488578E+02 -0.30397606523E+03  0.30989359548E+03  0.00000000000E+00 0. -1.
</event>
<event>
 7    1  0.6188600E-006  0.4398673E+02  0.7818608E-02  0.1495296E+00
          2   -1    0    0  502    0  0.00000000000E+00  0.00000000000E+00  0.21557730263E+03  0.21557730263E+03  0.00000000000E+00 0. -1.
          1   -1    0    0  501    0 -0.00000000000E+00 -0.00000000000E+00 -0.13907827433E+03  0.13907827433E+03  0.00000000000E+00 0. -1.
         25    2    1    2    0    0 -0.34194313308E+02 -0.66661712800E+02  0.23686126909E+02  0.14764547340E+03  0.12500047276E+03 0.  0.
          2    1    1    2  501    0  0.13151734925E+01  0.39719980739E+02 -0.68097160990E+02  0.78845607906E+02  0.00000000000E+00 0. -1.
          1    1    1    2  502    0  0.32879139815E+02  0.26941732062E+02  0.12091006238E+03  0.12816449565E+03  0.00000000000E+00 0. -1.
         22    1    3    3    0    0 -0.30826721628E+02 -0.80120028920E+01  0.67315159596E+02  0.74470193152E+02  0.00000000000E+00 0.  1.
         22    1    3    3    0    0 -0.33675916800E+01 -0.58649709908E+02 -0.43629032687E+02  0.73175280247E+02  0.00000000000E+00 0.  1.
</event>
<event>
 7    1  0.6188600E-006  0.1248232E+03  0.7818608E-02  0.1260144E+00
          2   -1    0    0  502    0  0.00000000000E+00  0.00000000000E+00  0.14995417397E+04  0.14995417397E+04  0.00000000000E+00 0. -1.
          1   -1    0    0  501    0 -0.00000000000E+00 -0.00000000000E+00 -0.41997655009E+03  0.41997655009E+03  0.00000000000E+00 0. -1.
         25    2    1    2    0    0 -0.52176523539E+02  0.61197306292E+02 -0.99926380773E+02  0.17907786843E+03  0.12496440085E+03 0.  0.
          2    1    1    2  501    0  0.14796789263E+03 -0.43883342554E+02 -0.25747024478E+03  0.30018522940E+03  0.00000000000E+00 0. -1.
          1    1    1    2  502    0 -0.95791369094E+02 -0.17313963738E+02  0.14369618151E+04  0.14402551919E+04  0.00000000000E+00 0. -1.
         22    1    3    3    0    0 -0.67195860125E+02  0.45694959754E+02 -0.12304039984E+03  0.14745254476E+03  0.00000000000E+00 0. -1.
         22    1    3    3    0    0  0.15019336586E+02  0.15502346538E+02  0.23114019063E+02  0.31625323665E+02  0.00000000000E+00 0. -1.
</event>
<event>
 7    1  0.6188600E-006  0.9096465E+02  0.7818608E-02  0.1320619E+00
          2   -1    0    0  502    0  0.00000000000E+00  0.00000000000E+00  0.34953521820E+03  0.34953521820E+03  0.00000000000E+00 0. -1.
          1   -1    0    0  501    0 -0.00000000000E+00 -0.00000000000E+00 -0.76778809519E+03  0.76778809519E+03  0.00000000000E+00 0. -1.
         25    2    1    2    0    0  0.54305762694E+02 -0.15038489986E+02  0.14089925265E+03  0.19660464956E+03  0.12500206715E+03 0.  0.
          2    1    1    2  501    0  0.62087505958E+02  0.43517106243E+02 -0.71786138628E+03  0.72185425595E+03  0.00000000000E+00 0. -1.
          1    1    1    2  502    0 -0.11639326865E+03 -0.28478616257E+02  0.15870925665E+03  0.19886440787E+03  0.00000000000E+00 0. -1.
         22    1    3    3    0    0 -0.24806770440E+01 -0.52258591279E+02  0.11040571187E+03  0.12217420077E+03  0.00000000000E+00 0.  1.
         22    1    3    3    0    0  0.56786439738E+02  0.37220101293E+02  0.30493540778E+02  0.74430448793E+02  0.00000000000E+00 0.  1.
</event>
<event>
 7    1  0.6188600E-006  0.4426195E+02  0.7818608E-02  0.1512419E+00
          2   -1    0    0  502    0  0.00000000000E+00  0.00000000000E+00  0.24181098034E+04  0.24181098034E+04  0.00000000000E+00 0. -1.
          1   -1    0    0  501    0 -0.00000000000E+00 -0.00000000000E+00 -0.11305200210E+03  0.11305200210E+03  0.00000000000E+00 0. -1.
         25    2    1    2    0    0  0.53240777852E+02  0.35886294660E+02  0.64891223721E+02  0.15479809248E+03  0.12501668668E+03 0.  0.
          2    1    1    2  501    0 -0.34865239207E+02  0.43262501008E+01 -0.63340979039E+02  0.72431905749E+02  0.00000000000E+00 0. -1.
          1    1    1    2  502    0 -0.18375538645E+02 -0.40212544760E+02  0.23035075566E+04  0.23039318073E+04  0.00000000000E+00 0. -1.
         22    1    3    3    0    0 -0.26210837619E+01 -0.76954926279E+00 -0.34734591220E+02  0.34841844288E+02  0.00000000000E+00 0. -1.
         22    1    3    3    0    0  0.55861861614E+02  0.36655843922E+02  0.99625814942E+02  0.11995624819E+03  0.00000000000E+00 0. -1.
</event>
<event>
 7    1  0.6188600E-006  0.1790268E+03  0.7818608E-02  0.1228530E+00
          2   -1    0    0  502    0  0.00000000000E+00  0.00000000000E+00  0.15116711466E+04  0.15116711466E+04  0.00000000000E+00 0. -1.
          1   -1    0    0  501    0 -0.00000000000E+00 -0.00000000000E+00 -0.75315420179E+02  0.75315420179E+02  0.00000000000E+00 0. -1.
         25    2    1    2    0    0  0.87908944717E+02 -0.77537586881E+02  0.47162566436E+03  0.50179118448E+03  0.12499426227E+03 0.  0.
          2    1    1    2  501    0 -0.11512181069E+03  0.16683801342E+03  0.12048858219E+03  0.23580808395E+03  0.00000000000E+00 0. -1.
          1    1    1    2  502    0  0.27212865971E+02 -0.89300426543E+02  0.84424147990E+03  0.84938729838E+03  0.00000000000E+00 0. -1.
         22    1    3    3    0    0  0.97429935484E+02 -0.37363027810E+02  0.43250049522E+03  0.44491040282E+03  0.00000000000E+00 0. -1.
         22    1    3    3    0    0 -0.95209907675E+01 -0.40174559072E+02  0.39125169135E+02  0.56880781655E+02  0.00000000000E+00 0. -1.
</event>
<event>
 7    1  0.6188600E-006  0.1521659E+03  0.7818608E-02  0.1235033E+00
          2   -1    0    0  502    0  0.00000000000E+00  0.00000000000E+00  0.44069372415E+02  0.44069372415E+02  0.00000000000E+00 0. -1.
          1   -1    0    0  501    0 -0.00000000000E+00 -0.00000000000E+00 -0.19229921747E+04  0.19229921747E+04  0.00000000000E+00 0. -1.
         25    2    1    2    0    0  0.15969206115E+03 -0.15002407539E+03 -0.82614393410E+03  0.86379805790E+03  0.12499802952E+03 0.  0.
          2    1    1    2  501    0 -0.60579613992E+02  0.12303278930E+03 -0.94300061535E+03  0.95292031011E+03  0.00000000000E+00 0. -1.
          1    1    1    2  502    0 -0.99112447155E+02  0.26991286094E+02 -0.10977825281E+03  0.15034317908E+03  0.00000000000E+00 0. -1.
         22    1    3    3    0    0  0.14119705581E+02 -0.18598696928E+01 -0.26166977605E+01  0.14480065888E+02  0.00000000000E+00 0. -1.
         22    1    3    3    0    0  0.14557235557E+03 -0.14816420570E+03 -0.82352723634E+03  0.84931799201E+03  0.00000000000E+00 0. -1.
</event>
<event>
 7    1  0.6188600E-006  0.1539161E+03  0.7818608E-02  0.1215354E+00
          2   -1    0    0  502    0  0.00000000000E+00  0.00000000000E+00  0.28445646414E+04  0.28445646414E+04  0.00000000000E+00 0. -1.
          1   -1    0    0  501    0 -0.00000000000E+00 -0.00000000000E+00 -0.41508139638E+03  0.41508139638E+03  0.00000000000E+00 0. -1.
         25    2    1    2    0    0  0.20814343599E+03 -0.10222928120E+03  0.51851422645E+03  0.58159965541E+03  0.12500656089E+03 0.  0.
          2    1    1    2  501    0 -0.85819463275E+02  0.12613674526E+03 -0.36659554488E+03  0.39707398845E+03  0.00000000000E+00 0. -1.
          1    1    1    2  502    0 -0.12232397271E+03 -0.23907464059E+02  0.22775645635E+04  0.22809723940E+04  0.00000000000E+00 0. -1.
         22    1    3    3    0    0 -0.98054110127E+01  0.18863992180E+01  0.82921603039E+02  0.83520637196E+02  0.00000000000E+00 0.  1.
         22    1    3    3    0    0  0.21794884700E+03 -0.10411568042E+03  0.43559262341E+03  0.49807901821E+03  0.00000000000E+00 0.  1.
</event>
<event>
 7    1  0.6188600E-006  0.4976030E+02  0.7818608E-02  0.1499324E+00
          2   -1    0    0  502    0  0.00000000000E+00  0.00000000000E+00  0.25997489789E+02  0.25997489789E+02  0.00000000000E+00 0. -1.
          1   -1    0    0  501    0 -0.00000000000E+00 -0.00000000000E+00 -0.11042819323E+04  0.11042819323E+04  0.00000000000E+00 0. -1.
         25    2    1    2    0    0 -0.49686298227E+02  0.21361876424E+02 -0.43692967230E+03  0.45766598491E+03  0.12500222885E+03 0.  0.
          2    1    1    2  501    0  0.10007650904E+01 -0.34153488867E+02 -0.61470954092E+03  0.61565841344E+03  0.00000000000E+00 0. -1.
          1    1    1    2  502    0  0.48685533137E+02  0.12791612443E+02 -0.26645229303E+02  0.56955023749E+02  0.00000000000E+00 0. -1.
         22    1    3    3    0    0 -0.88598085103E+02 -0.56355231774E+01 -0.29151331436E+03  0.30473167255E+03  0.00000000000E+00 0. -1.
         22    1    3    3    0    0  0.38911786876E+02  0.26997399601E+02 -0.14541635794E+03  0.15293431237E+03  0.00000000000E+00 0. -1.
</event>
<event>
 7    1  0.6188600E-006  0.1115202E+03  0.7818608E-02  0.1351098E+00
          2   -1    0    0  502    0  0.00000000000E+00  0.00000000000E+00  0.57699593167E+03  0.57699593167E+03  0.00000000000E+00 0. -1.
          1   -1    0    0  501    0 -0.00000000000E+00 -0.00000000000E+00 -0.46640214220E+03  0.46640214220E+03  0.00000000000E+00 0. -1.
         25    2    1    2    0    0 -0.14200665158E+03  0.10312926841E+02 -0.19446851844E+03  0.27150257950E+03  0.12499360167E+03 0.  0.
          2    1    1    2  501    0  0.98721109770E+02 -0.29659399905E+02 -0.22091763922E+03  0.24378297897E+03  0.00000000000E+00 0. -1.
          1    1    1    2  502    0  0.43285541811E+02  0.19346473064E+02  0.52597994713E+03  0.52811251541E+03  0.00000000000E+00 0. -1.
         22    1    3    3    0    0 -0.12267622028E+03  0.58133295517E+02 -0.12176842614E+03  0.18236360567E+03  0.00000000000E+00 0. -1.
         22    1    3    3    0    0 -0.19330431305E+02 -0.47820368676E+02 -0.72700092297E+02  0.89138973826E+02  0.00000000000E+00 0. -1.
</event>
<event>
 7    1  0.6188600E-006  0.8148946E+02  0.7818608E-02  0.1392054E+00
          2   -1    0    0  502    0  0.00000000000E+00  0.00000000000E+00  0.22984359909E+04  0.22984359909E+04  0.00000000000E+00 0. -1.
          1   -1    0    0  501    0 -0.00000000000E+00 -0.00000000000E+00 -0.10638542083E+04  0.10638542083E+04  0.00000000000E+00 0. -1.
         25    2    1    2    0    0  0.35722472374E+02  0.42195358363E+02  0.28431459457E+03  0.31546265083E+03  0.12500140831E+03 0.  0.
          2    1    1    2  501    0 -0.10527734293E+02 -0.80993905856E+02 -0.10464209505E+04  0.10496035688E+04  0.00000000000E+00 0. -1.
          1    1    1    2  502    0 -0.25194738081E+02  0.38798547493E+02  0.19966881386E+04  0.19972239796E+04  0.00000000000E+00 0. -1.
         22    1    3    3    0    0  0.26593519698E+02  0.85574477888E+02  0.21796413033E+03  0.23566622301E+03  0.00000000000E+00 0. -1.
         22    1    3    3    0    0  0.91289526761E+01 -0.43379119525E+02  0.66350464241E+02  0.79796427819E+02  0.00000000000E+00 0. -1.
</event>
<event>
 7    1  0.6188600E-006  0.1518772E+03  0.7818608E-02  0.1301838E+00
          2   -1    0    0  502    0  0.00000000000E+00  0.00000000000E+00  0.19303610586E+04  0.19303610586E+04  0.00000000000E+00 0. -1.
          1   -1    0    0  501    0 -0.00000000000E+00 -0.00000000000E+00 -0.56756282618E+03  0.56756282618E+03  0.00000000000E+00 0. -1.
         25    2    1    2    0    0  0.17196259590E+03  0.15158896062E+02  0.81775521236E+03  0.84507369072E+03  0.12500011552E+03 0.  0.
          2    1    1    2  501    0 -0.36288437715E+02  0.39761248115E+02 -0.54770451152E+03  0.55034356497E+03  0.00000000000E+00 0. -1.
          1    1    1    2  502    0 -0.13567415819E+03 -0.54920144177E+02  0.10927475315E+04  0.11025066291E+04  0.00000000000E+00 0. -1.
         22    1    3    3    0    0  0.86112290752E+01  0.37200013383E+02  0.73980234782E+02  0.83253044390E+02  0.00000000000E+00 0.  1.
         22    1    3    3    0    0  0.16335136683E+03 -0.22041117321E+02  0.74377497758E+03  0.76182064632E+03  0.00000000000E+00 0.  1.
</event>
<event>
 7    1  0.6188600E-006  0.1458161E+03  0.7818608E-02  0.1318600E+00
          2   -1    0    0  502    0  0.00000000000E+00  0.00000000000E+00  0.34885503807E+03  0.34885503807E+03  0.00000000000E+00 0. -1.
          1   -1    0    0  501    0 -0.00000000000E+00 -0.00000000000E+00 -0.13448810128E+04  0.13448810128E+04  0.00000000000E+00 0. -1.
         25    2    1    2    0    0  0.11138372704E+02 -0.11212637374E+03  0.28469365172E+02  0.17069197221E+03  0.12501542940E+03 0.  0.
          2    1    1    2  501    0 -0.51750935839E+02  0.13801106084E+03 -0.12671311039E+04  0.12756748986E+04  0.00000000000E+00 0. -1.
          1    1    1    2  502    0  0.40612563134E+02 -0.25884687095E+02  0.24263576399E+03  0.24736918013E+03  0.00000000000E+00 0. -1.
         22    1    3    3    0    0 -0.21292817209E+01 -0.45676169495E+02 -0.49502922777E+02  0.67389803857E+02  0.00000000000E+00 0. -1.
         22    1    3    3    0    0  0.13267654425E+02 -0.66450204249E+02  0.77972287949E+02  0.10330216835E+03  0.00000000000E+00 0. -1.
</event>
<event>
 7    1  0.6188600E-006  0.2580755E+02  0.7818608E-02  0.1673649E+00
          2   -1    0    0  502    0  0.00000000000E+00  0.00000000000E+00  0.15801156814E+04  0.15801156814E+04  0.00000000000E+00 0. -1.
          1   -1    0    0  501    0 -0.00000000000E+00 -0.00000000000E+00 -0.22134580215E+02  0.22134580215E+02  0.00000000000E+00 0. -1.
         25    2    1    2    0    0  0.12886311561E+02  0.10748720248E+02  0.10714667596E+04  0.10788638526E+04  0.12499841441E+03 0.  0.
          2    1    1    2  501    0  0.13553866661E+02 -0.18063146013E+02 -0.10997836052E+02  0.25118458216E+02  0.00000000000E+00 0. -1.
          1    1    1    2  502    0 -0.26440178222E+02  0.73144257645E+01  0.49751217768E+03  0.49826795079E+03  0.00000000000E+00 0. -1.
         22    1    3    3    0    0  0.51335396382E+02  0.15242550500E+02  0.94707739520E+03  0.94859013845E+03  0.00000000000E+00 0. -1.
         22    1    3    3    0    0 -0.38449084821E+02 -0.44938302512E+01  0.12438936435E+03  0.13027371415E+03  0.00000000000E+00 0. -1.
</event>
<event>
 7    1  0.6188600E-006  0.3359436E+02  0.7818608E-02  0.1616327E+00
          2   -1    0    0  502    0  0.00000000000E+00  0.00000000000E+00  0.15290828811E+04  0.15290828811E+04  0.00000000000E+00 0. -1.
          1   -1    0    0  501    0 -0.00000000000E+00 -0.00000000000E+00 -0.24241325949E+03  0.24241325949E+03  0.00000000000E+00 0. -1.
         25    2    1    2    0    0  0.31361934296E+02 -0.44020913315E+02 -0.67256004374E+02  0.15188501681E+03  0.12499710587E+03 0.  0.
          2    1    1    2  501    0 -0.25251886240E+02  0.20780345756E+02 -0.13073136225E+03  0.13475967351E+03  0.00000000000E+00 0. -1.
          1    1    1    2  502    0 -0.61100480563E+01  0.23240567559E+02  0.14846569883E+04  0.14848514503E+04  0.00000000000E+00 0. -1.
         22    1    3    3    0    0 -0.31117554369E+02  0.59621429353E+01  0.16778014969E+02  0.35851793883E+02  0.00000000000E+00 0.  1.
         22    1    3    3    0    0  0.62479488666E+02 -0.49983056250E+02 -0.84034019344E+02  0.11603322293E+03  0.00000000000E+00 0.  1.
</event>
<event>
 7    1  0.6188600E-006  0.7134645E+02  0.7818608E-02  0.1380749E+00
          2   -1    0    0  502    0  0.00000000000E+00  0.00000000000E+00  0.85136270030E+03  0.85136270030E+03  0.00000000000E+00 0. -1.
          1   -1    0    0  501    0 -0.00000000000E+00 -0.00000000000E+00 -0.11388678085E+04  0.11388678085E+04  0.00000000000E+00 0. -1.
         25    2    1    2    0    0 -0.38751603448E+02  0.11650093705E+03 -0.94089744772E+03  0.95707212797E+03  0.12499958365E+03 0.  0.
          2    1    1    2  501    0 -0.17623292092E+01 -0.57863511601E+02 -0.18392131117E+03  0.19281685736E+03  0.00000000000E+00 0. -1.
          1    1    1    2  502    0  0.40513932657E+02 -0.58637425450E+02  0.83731365070E+03  0.84034152346E+03  0.00000000000E+00 0. -1.
         22    1    3    3    0    0 -0.46648797785E+02  0.38974939085E+02 -0.14307464411E+03  0.15545259727E+03  0.00000000000E+00 0.  1.
         22    1    3    3    0    0  0.78971943373E+01  0.77525997966E+02 -0.79782280362E+03  0.80161953071E+03  0.00000000000E+00 0.  1.
</event>
<event>
 7    1  0.6188600E-006  0.1378323E+03  0.7818608E-02  0.1391408E+00
          2   -1    0    0  502    0  0.00000000000E+00  0.00000000000E+00  0.16245769905E+04  0.16245769905E+04  0.00000000000E+00 0. -1.
          1   -1    0    0  501    0 -0.00000000000E+00 -0.00000000000E+00 -0.74152215310E+02  0.74152215310E+02  0.00000000000E+00 0. -1.
         25    2    1    2    0    0 -0.57156004158E+02 -0.14112883302E+03  0.84420836382E+03  0.86688956319E+03  0.12500238760E+03 0.  0.
          2    1    1    2  501    0  0.30831644902E+02  0.13319990699E+03  0.12184588243E+02  0.13726350477E+03  0.00000000000E+00 0. -1.
          1    1    1    2  502    0  0.26324359256E+02  0.79289260266E+01  0.69403182308E+03  0.69457613781E+03  0.00000000000E+00 0. -1.
         22    1    3    3    0    0 -0.78226202540E+02 -0.14811899112E+03  0.64300378429E+03  0.66446402529E+03  0.00000000000E+00 0.  1.
         22    1    3    3    0    0  0.21070198382E+02  0.69901581022E+01  0.20120457953E+03  0.20242553790E+03  0.00000000000E+00 0.  1.
</event>
<event>
 7    1  0.6188600E-006  0.9402040E+02  0.7818608E-02  0.1339147E+00
          2   -1    0    0  502    0  0.00000000000E+00  0.00000000000E+00  0.57308701951E+03  0.57308701951E+03  0.00000000000E+00 0. -1.
          1   -1    0    0  501    0 -0.00000000000E+00 -0.00000000000E+00 -0.17931155755E+04  0.17931155755E+04  0.00000000000E+00 0. -1.
         25    2    1    2    0    0 -0.34713223739E+02 -0.48447627220E+01 -0.38195780120E+03  0.40341524873E+03  0.12499448538E+03 0.  0.
          2    1    1    2  501    0 -0.58400967623E+02  0.21752829375E+02 -0.13957473011E+04  0.13971379270E+04  0.00000000000E+00 0. -1.
          1    1    1    2  502    0  0.93114191363E+02 -0.16908066653E+02  0.55767654625E+03  0.56564941933E+03  0.00000000000E+00 0. -1.
         22    1    3    3    0    0  0.33385686251E+02  0.36217540131E+02 -0.12206793397E+03  0.13163166323E+03  0.00000000000E+00 0.  1.
         22    1    3    3    0    0 -0.68098909990E+02 -0.41062302853E+02 -0.25988986723E+03  0.27178358550E+03  0.00000000000E+00 0.  1.
</event>
<event>
 7    1  0.6188600E-006  0.1473208E+03  0.7818608E-02  0.1240769E+00
          2   -1    0    0  502    0  0.00000000000E+00  0.00000000000E+00  0.55957135084E+02  0.55957135084E+02  0.00000000000E+00 0. -1.
          1   -1    0    0  501    0 -0.00000000000E+00 -0.00000000000E+00 -0.10504993811E+04  0.10504993811E+04  0.00000000000E+00 0. -1.
         25    2    1    2    0    0 -0.37287113855E+02  0.40971605017E+02 -0.28780149690E+03  0.31862726650E+03  0.12499852825E+03 0.  0.
          2    1    1    2  501    0  0.12344855971E+03  0.80398227410E+02 -0.55909176195E+03  0.57817559629E+03  0.00000000000E+00 0. -1.
          1    1    1    2  502    0 -0.86161445851E+02 -0.12136983243E+03 -0.14764898721E+03  0.20965365343E+03  0.00000000000E+00 0. -1.
         22    1    3    3    0    0  0.15963350515E+02  0.41251361102E+02 -0.24859591036E+03  0.25250035643E+03  0.00000000000E+00 0. -1.
         22    1    3    3    0    0 -0.53250464370E+02 -0.27975608500E+00 -0.39205586536E+02  0.66126910064E+02  0.00000000000E+00 0. -1.
</event>
<event>
 7    1  0.6188600E-006  0.7111750E+02  0.7818608E-02  0.1363499E+00
          2   -1    0    0  502    0  0.00000000000E+00  0.00000000000E+00  0.30676670314E+03  0.30676670314E+03  0.00000000000E+00 0. -1.
          1   -1    0    0  501    0 -0.00000000000E+00 -0.00000000000E+00 -0.47238231099E+03  0.47238231099E+03  0.00000000000E+00 0. -1.
         25    2    1    2    0    0 -0.45582281503E+02  0.21354022826E+02  0.82307657367E+02  0.15789627113E+03  0.12499177292E+03 0.  0.
          2    1    1    2  501    0  0.56923691286E+02  0.44639861253E+02 -0.42542973961E+03  0.43153619453E+03  0.00000000000E+00 0. -1.
          1    1    1    2  502    0 -0.11341409783E+02 -0.65993884079E+02  0.17750647439E+03  0.18971654847E+03  0.00000000000E+00 0. -1.
         22    1    3    3    0    0 -0.53272993732E+02  0.62550695541E+02  0.23081669357E+02  0.85342631985E+02  0.00000000000E+00 0. -1.
         22    1    3    3    0    0  0.76907122288E+01 -0.41196672715E+02  0.59225988010E+02  0.72553639144E+02  0.00000000000E+00 0. -1.
</event>
<event>
 7    1  0.6188600E-006  0.3196315E+02  0.7818608E-02  0.1577394E+00
          2   -1    0    0  502    0  0.00000000000E+00  0.00000000000E+00  0.83783628486E+03  0.83783628486E+03  0.00000000000E+00 0. -1.
          1   -1    0    0  501    0 -0.00000000000E+00 -0.00000000000E+00 -0.32850722452E+03  0.32850722452E+03  0.00000000000E+00 0. -1.
         25    2    1    2    0    0 -0.10785793059E+02  0.25045184910E+02  0.65419224778E+02  0.14369705540E+03  0.12500229654E+03 0.  0.
          2    1    1    2  501    0  0.31943353664E+02 -0.84548129599E+00 -0.28813235693E+03  0.28989885786E+03  0.00000000000E+00 0. -1.
          1    1    1    2  502    0 -0.21157560606E+02 -0.24199703614E+02  0.73204219249E+03  0.73274759612E+03  0.00000000000E+00 0. -1.
         22    1    3    3    0    0  0.52780025633E+02 -0.84986285475E+01  0.42382510915E+02  0.68221954124E+02  0.00000000000E+00 0. -1.
         22    1    3    3    0    0 -0.63565818692E+02  0.33543813458E+02  0.23036713864E+02  0.75475101278E+02  0.00000000000E+00 0. -1.
</event>
<event>
 7    1  0.6188600E-006  0.3963700E+02  0.7818608E-02  0.1602663E+00
          2   -1    0    0  502    0  0.00000000000E+00  0.00000000000E+00  0.45792930290E+03  0.45792930290E+03  0.00000000000E+00 0. -1.
          1   -1    0    0  501    0 -0.00000000000E+00 -0.00000000000E+00 -0.29674037222E+03  0.29674037222E+03  0.00000000000E+00 0. -1.
         25    2    1    2    0    0 -0.51740520371E+02  0.32340646713E+02  0.12264280655E+03  0.18544201364E+03  0.12499793417E+03 0.  0.
          2    1    1    2  501    0  0.35294051860E+02 -0.17593354490E+02 -0.26346986803E+03  0.26640489405E+03  0.00000000000E+00 0. -1.
          1    1    1    2  502    0  0.16446468511E+02 -0.14747292223E+02  0.30201599215E+03  0.30282276743E+03  0.00000000000E+00 0. -1.
         22    1    3    3    0    0  0.32867057338E+02  0.21815205078E+02  0.81990046008E+02  0.90986341145E+02  0.00000000000E+00 0. -1.
         22    1    3    3    0    0 -0.84607577709E+02  0.10525441635E+02  0.40652760538E+02  0.94455672496E+02  0.00000000000E+00 0. -1.
</event>
<event>
 7    1  0.6188600E-006  0.2611544E+03  0.7818608E-02  0.1173382E+00
          2   -1    0    0  502    0  0.00000000000E+00  0.00000000000E+00  0.28807715347E+03  0.28807715347E+03  0.00000000000E+00 0. -1.
          1   -1    0    0  501    0 -0.00000000000E+00 -0.00000000000E+00 -0.13244514360E+04  0.13244514360E+04  0.00000000000E+00 0. -1.
         25    2    1    2    0    0  0.21069177383E+02  0.42425149738E+02  0.14626673760E+02  0.13447091584E+03  0.12499873622E+03 0.  0.
          2    1    1    2  501    0 -0.22963642163E+03  0.12437337338E+03 -0.11604244557E+04  0.11894479979E+04  0.00000000000E+00 0. -1.
          1    1    1    2  502    0  0.20856724424E+03 -0.16679852312E+03  0.10942349948E+03  0.28860967573E+03  0.00000000000E+00 0. -1.
         22    1    3    3    0    0  0.60020815026E+02  0.39898921131E+02  0.45039466878E+02  0.84988091639E+02  0.00000000000E+00 0.  1.
         22    1    3    3    0    0 -0.38951637643E+02  0.25262286069E+01 -0.30412793117E+02  0.49482824204E+02  0.00000000000E+00 0.  1.
</event>
<event>
 7    1  0.6188600E-006  0.9282122E+02  0.7818608E-02  0.1308733E+00
          2   -1    0    0  502    0  0.00000000000E+00  0.00000000000E+00  0.56582874593E+02  0.56582874593E+02  0.00000000000E+00 0. -1.
          1   -1    0    0  501    0 -0.00000000000E+00 -0.00000000000E+00 -0.90022255029E+03  0.90022255029E+03  0.00000000000E+00 0. -1.
         25    2    1    2    0    0 -0.10353488604E+02  0.12841125637E+03 -0.16135212905E+03  0.24136265610E+03  0.12499910688E+03 0.  0.
          2    1    1    2  501    0  0.64299661680E+02 -0.65727949154E+02 -0.56197729084E+03  0.56944980922E+03  0.00000000000E+00 0. -1.
          1    1    1    2  502    0 -0.53946173077E+02 -0.62683307214E+02 -0.12031025580E+03  0.14599295957E+03  0.00000000000E+00 0. -1.
         22    1    3    3    0    0  0.53140136231E+02  0.91500784416E+02 -0.10144425974E+03  0.14658514748E+03  0.00000000000E+00 0. -1.
         22    1    3    3    0    0 -0.63493624835E+02  0.36910471952E+02 -0.59907869316E+02  0.94777508621E+02  0.00000000000E+00 0. -1.
</event>
<event>
 7    1  0.6188600E-006  0.4151503E+02  0.7818608E-02  0.1610018E+00
          2   -1    0    0  502    0  0.00000000000E+00  0.00000000000E+00  0.50508274127E+03  0.50508274127E+03  0.00000000000E+00 0. -1.
          1   -1    0    0  501    0 -0.00000000000E+00 -0.00000000000E+00 -0.65792884837E+03  0.65792884837E+03  0.00000000000E+00 0. -1.
         25    2    1    2    0    0 -0.98894129417E+01  0.25667422942E+02 -0.80087359201E+02  0.15097969647E+03  0.12499706618E+03 0.  0.
          2    1    1    2  501    0  0.12432738076E+02  0.15901683346E+02 -0.54128353664E+03  0.54165976734E+03  0.00000000000E+00 0. -1.
          1    1    1    2  502    0 -0.25433251344E+01 -0.41569106288E+02  0.46852478874E+03  0.47037212583E+03  0.00000000000E+00 0. -1.
         22    1    3    3    0    0 -0.83112773126E+01  0.76133440965E+02 -0.56953834012E+02  0.95441696194E+02  0.00000000000E+00 0. -1.
         22    1    3    3    0    0 -0.15781356292E+01 -0.50466018023E+02 -0.23133525189E+02  0.55538000277E+02  0.00000000000E+00 0. -1.
</event>
<event>
 7    1  0.6188600E-006  0.1223870E+03  0.7818608E-02  0.1376657E+00
          2   -1    0    0  502    0  0.00000000000E+00  0.00000000000E+00  0.63603421347E+02  0.63603421347E+02  0.00000000000E+00 0. -1.
          1   -1    0    0  501    0 -0.00000000000E+00 -0.00000000000E+00 -0.94458246103E+03  0.94458246103E+03  0.00000000000E+00 0. -1.
         25    2    1    2    0    0 -0.15171401790E+03  0.18834490582E+02 -0.55431049452E+03  0.58843621987E+03  0.12500071703E+03 0.  0.
          2    1    1    2  501    0  0.34894729661E+02 -0.20431180509E+00 -0.29531513373E+03  0.29736965567E+03  0.00000000000E+00 0. -1.
          1    1    1    2  502    0  0.11681928823E+03 -0.18630178777E+02 -0.31353411428E+02  0.12238000684E+03  0.00000000000E+00 0. -1.
         22    1    3    3    0    0 -0.79977405304E+02  0.70447137688E+02 -0.34906066811E+03  0.36496922417E+03  0.00000000000E+00 0. -1.
         22    1    3    3    0    0 -0.71736612591E+02 -0.51612647106E+02 -0.20524982641E+03  0.22346699571E+03  0.00000000000E+00 0. -1.
</event>
<event>
 7    1  0.6188600E-006  0.1726125E+03  0.7818608E-02  0.1197503E+00
          2   -1    0    0  502    0  0.00000000000E+00  0.00000000000E+00  0.44865329403E+03  0.44865329403E+03  0.00000000000E+00 0. -1.
          1   -1    0    0  501    0 -0.00000000000E+00 -0.00000000000E+00 -0.54727771289E+03  0.54727771289E+03  0.00000000000E+00 0. -1.
         25    2    1    2    0    0  0.64430771445E+02  0.59842516793E+02 -0.60883083940E+02  0.16451129764E+03  0.12499906406E+03 0.  0.
          2    1    1    2  501    0 -0.29145036130E+02  0.13143788980E+03 -0.39901336651E+03  0.42111402097E+03  0.00000000000E+00 0. -1.
          1    1    1    2  502    0 -0.35285735316E+02 -0.19128040659E+03  0.36127203159E+03  0.41030568832E+03  0.00000000000E+00 0. -1.
         22    1    3    3    0    0  0.84689344576E+02  0.48632077342E+01 -0.73519700684E+01  0.85146857476E+02  0.00000000000E+00 0.  1.
         22    1    3    3    0    0 -0.20258573131E+02  0.54979309059E+02 -0.53531113871E+02  0.79364440162E+02  0.00000000000E+00 0.  1.
</event>
<event>
 7    1  0.6188600E-006  0.8649316E+02  0.7818608E-02  0.1337890E+00
          2   -1    0    0  502    0  0.00000000000E+00  0.00000000000E+00  0.11598336527E+04  0.11598336527E+04  0.00000000000E+00 0. -1.
          1   -1    0    0  501    0 -0.00000000000E+00 -0.00000000000E+00 -0.20677767931E+03  0.20677767931E+03  0.00000000000E+00 0. -1.
         25    2    1    2    0    0 -0.13474070152E+03 -0.22361632569E+02  0.14761515840E+03  0.23679134621E+03  0.12499922957E+03 0.  0.
          2    1    1    2  501    0  0.70497255827E+02  0.46096850008E+02 -0.14994452864E+03  0.17198297686E+03  0.00000000000E+00 0. -1.
          1    1    1    2  502    0  0.64243445694E+02 -0.23735217439E+02  0.95538534365E+03  0.95783700895E+03  0.00000000000E+00 0. -1.
         22    1    3    3    0    0 -0.42585580302E+01  0.35582352837E+02  0.72192391055E+01  0.36556211007E+02  0.00000000000E+00 0.  1.
         22    1    3    3    0    0 -0.13048214349E+03 -0.57943985406E+02  0.14039591929E+03  0.20023513520E+03  0.00000000000E+00 0.  1.
</event>
<event>
 7    1  0.6188600E-006  0.5562097E+03  0.7818608E-02  0.1152487E+00
          2   -1    0    0  502    0  0.00000000000E+00  0.00000000000E+00  0.45582674958E+03  0.45582674958E+03  0.00000000000E+00 0. -1.
          1   -1    0    0  501    0 -0.00000000000E+00 -0.00000000000E+00 -0.26171174162E+04  0.26171174162E+04  0.00000000000E+00 0. -1.
         25    2    1    2    0    0 -0.38341268300E+03  0.43305592561E+03 -0.13726941737E+04  0.14948102588E+04  0.12500278052E+03 0.  0.
          2    1    1    2  501    0 -0.28756861026E+02 -0.63399232908E+02 -0.98741529676E+03  0.98986634859E+03  0.00000000000E+00 0. -1.
          1    1    1    2  502    0  0.41216954403E+03 -0.36965669270E+03  0.19881880384E+03  0.58826755838E+03  0.00000000000E+00 0. -1.
         22    1    3    3    0    0 -0.35616000206E+03  0.33428788512E+03 -0.11633577284E+04  0.12617446420E+04  0.00000000000E+00 0.  1.
         22    1    3    3    0    0 -0.27252680939E+02  0.98768040488E+02 -0.20933644524E+03  0.23306561682E+03  0.00000000000E+00 0.  1.
</event>
<event>
 7    1  0.6188600E-006  0.5593380E+02  0.7818608E-02  0.1449143E+00
          2   -1    0    0  502    0  0.00000000000E+00  0.00000000000E+00  0.78445009330E+03  0.78445009330E+03  0.00000000000E+00 0. -1.
          1   -1    0    0  501    0 -0.00000000000E+00 -0.00000000000E+00 -0.14605702044E+03  0.14605702044E+03  0.00000000000E+00 0. -1.
         25    2    1    2    0    0  0.69210169360E+02 -0.13669683755E+02  0.23349704657E+03  0.27408896552E+03  0.12500792961E+03 0.  0.
          2    1    1    2  501    0 -0.49902635322E+02 -0.25262335596E+02 -0.11859684717E+03  0.13112463830E+03  0.00000000000E+00 0. -1.
          1    1    1    2  502    0 -0.19307534038E+02  0.38932019351E+02  0.52349287346E+03  0.52529350992E+03  0.00000000000E+00 0. -1.
         22    1    3    3    0    0  0.52573155361E+02 -0.23001494470E+02  0.21569330475E+02  0.61304497629E+02  0.00000000000E+00 0.  1.
         22    1    3    3    0    0  0.16637014000E+02  0.93318107150E+01  0.21192771609E+03  0.21278446789E+03  0.00000000000E+00 0.  1.
</event>
<event>
 7    1  0.6188600E-006  0.9747997E+02  0.7818608E-02  0.1300377E+00
          2   -1    0    0  502    0  0.00000000000E+00  0.00000000000E+00  0.30115704434E+04  0.30115704434E+04  0.00000000000E+00 0. -1.
          1   -1    0    0  501    0 -0.00000000000E+00 -0.00000000000E+00 -0.15492119606E+03  0.15492119606E+03  0.00000000000E+00 0. -1.
         25    2    1    2    0    0  0.22378232025E+02 -0.16151170302E+02  0.34235300331E+03  0.36550168659E+03  0.12499703379E+03 0.  0.
          2    1    1    2  501    0 -0.99623201095E+02 -0.19335203236E+02 -0.12461526243E+03  0.16070966341E+03  0.00000000000E+00 0. -1.
          1    1    1    2  502    0  0.77244969070E+02  0.35486373537E+02  0.26389115064E+04  0.26402802894E+04  0.00000000000E+00 0. -1.
         22    1    3    3    0    0 -0.51506816054E+02  0.48202371393E+00  0.11939609140E+03  0.13003311535E+03  0.00000000000E+00 0. -1.
         22    1    3    3    0    0  0.73885048080E+02 -0.16633194015E+02  0.22295691191E+03  0.23546857124E+03  0.00000000000E+00 0. -1.
</event>
<event>
 7    1  0.6188600E-006  0.9520370E+02  0.7818608E-02  0.1297405E+00
          2   -1    0    0  502    0  0.00000000000E+00  0.00000000000E+00  0.35700098041E+03  0.35700098041E+03  0.00000000000E+00 0. -1.
          1   -1    0    0  501    0 -0.00000000000E+00 -0.00000000000E+00 -0.27442398055E+03  0.27442398055E+03  0.00000000000E+00 0. -1.
         25    2    1    2    0    0  0.13027868581E+03 -0.36767197077E+02 -0.10890111330E+03  0.21402884903E+03  0.12499813193E+03 0.  0.
          2    1    1    2  501    0 -0.78612891560E+02 -0.42699610662E+02 -0.86049793951E+02  0.12412820191E+03  0.00000000000E+00 0. -1.
          1    1    1    2  502    0 -0.51665794249E+02  0.79466807739E+02  0.27752790710E+03  0.29326791002E+03  0.00000000000E+00 0. -1.
         22    1    3    3    0    0  0.14462276192E+03 -0.33974263612E+02 -0.55376375134E+02  0.15854506229E+03  0.00000000000E+00 0. -1.
         22    1    3    3    0    0 -0.14344076107E+02 -0.27929334654E+01 -0.53524738162E+02  0.55483786749E+02  0.00000000000E+00 0. -1.
</event>
<event>
 7    1  0.6188600E-006  0.4419042E+02  0.7818608E-02  0.1575018E+00
          2   -1    0    0  502    0  0.00000000000E+00  0.00000000000E+00  0.17905517020E+04  0.17905517020E+04  0.00000000000E+00 0. -1.
          1   -1    0    0  501    0 -0.00000000000E+00 -0.00000000000E+00 -0.36488188556E+02  0.36488188556E+02  0.00000000000E+00 0. -1.
         25    2    1    2    0    0 -0.20257268933E+02 -0.13393607578E+02  0.19757800773E+03  0.23505716302E+03  0.12500022033E+03 0.  0.
          2    1    1    2  501    0  0.42910451766E+02  0.19478052827E+02  0.13778393458E+02  0.49097306841E+02  0.00000000000E+00 0. -1.
          1    1    1    2  502    0 -0.22653182833E+02 -0.60844452496E+01  0.15427071123E+04  0.15428854207E+04  0.00000000000E+00 0. -1.
         22    1    3    3    0    0  0.30887995912E+02  0.20632155382E+02  0.15723892384E+03  0.16156680753E+03  0.00000000000E+00 0. -1.
         22    1    3    3    0    0 -0.51145264845E+02 -0.34025762959E+02  0.40339083891E+02  0.73490355491E+02  0.00000000000E+00 0. -1.
</event>
<event>
 7    1  0.6188600E-006  0.8404277E+02  0.7818608E-02  0.1324901E+00
          2   -1    0    0  502    0  0.00000000000E+00  0.00000000000E+00  0.14494532176E+04  0.14494532176E+04  0.00000000000E+00 0. -1.
          1   -1    0    0  501    0 -0.00000000000E+00 -0.00000000000E+00 -0.97135997618E+02  0.97135997618E+02  0.00000000000E+00 0. -1.
         25    2    1    2    0    0  0.68526772856E+02 -0.42600022441E+02  0.48383627535E+02  0.15644870698E+03  0.12499816796E+03 0.  0.
          2    1    1    2  501    0  0.85553143130E+01  0.78532567749E+02 -0.43297888251E+01  0.79115767528E+02  0.00000000000E+00 0. -1.
          1    1    1    2  502    0 -0.77082087169E+02 -0.35932545309E+02  0.13082633812E+04  0.13110247407E+04  0.00000000000E+00 0. -1.
         22    1    3    3    0    0 -0.15210352882E+02  0.25326208405E+02  0.37990849468E+02  0.48125630492E+02  0.00000000000E+00 0.  1.
         22    1    3    3    0    0  0.83737125738E+02 -0.67926230846E+02  0.10392778066E+02  0.10832307649E+03  0.00000000000E+00 0.  1.
</event>
<event>
 7    1  0.6188600E-006  0.2294733E+03  0.7818608E-02  0.1273898E+00
          2   -1    0    0  502    0  0.00000000000E+00  0.00000000000E+00  0.13319024937E+04  0.13319024937E+04  0.00000000000E+00 0. -1.
          1   -1    0    0  501    0 -0.00000000000E+00 -0.00000000000E+00 -0.61702344963E+03  0.61702344963E+03  0.00000000000E+00 0. -1.
         25    2    1    2    0    0 -0.12956164375E+02 -0.21130273362E+03 -0.34219083989E+03  0.42134900093E+03  0.12499480891E+03 0.  0.
          2    1    1    2  501    0 -0.44913576849E+02 -0.11353777688E+02 -0.22261165593E+03  0.22738092930E+03  0.00000000000E+00 0. -1.
          1    1    1    2  502    0  0.57869741225E+02  0.22265651131E+03  0.12796815399E+04  0.13001960131E+04  0.00000000000E+00 0. -1.
         22    1    3    3    0    0  0.29814324827E+02 -0.72527321929E+02 -0.44587863446E+02  0.90206341006E+02  0.00000000000E+00 0.  1.
         22    1    3    3    0    0 -0.42770489202E+02 -0.13877541169E+03 -0.29760297644E+03  0.33114265992E+03  0.00000000000E+00 0.  1.
</event>
<event>
 7    1  0.6188600E-006  0.1200045E+03  0.7818608E-02  0.1295167E+00
          2   -1    0    0  502    0  0.00000000000E+00  0.00000000000E+00  0.11287914734E+04  0.11287914734E+04  0.00000000000E+00 0. -1.
          1   -1    0    0  501    0 -0.00000000000E+00 -0.00000000000E+00 -0.84287943268E+02  0.84287943268E+02  0.00000000000E+00 0. -1.
         25    2    1    2    0    0 -0.14257259971E+03  0.59343293285E+02  0.48075458219E+03  0.52019178560E+03  0.12500381139E+03 0.  0.
          2    1    1    2  501    0  0.11747730516E+03  0.86323545422E+01 -0.65765879534E+01  0.11797748209E+03  0.00000000000E+00 0. -1.
          1    1    1    2  502    0  0.25095294550E+02 -0.67975647827E+02  0.57032553592E+03  0.57491014900E+03  0.00000000000E+00 0. -1.
         22    1    3    3    0    0 -0.53680451593E+01 -0.25469310333E+02  0.14953527149E+03  0.15178372474E+03  0.00000000000E+00 0. -1.
         22    1    3    3    0    0 -0.13720455455E+03  0.84812603617E+02  0.33121931070E+03  0.36840806085E+03  0.00000000000E+00 0. -1.
</event>
<event>
 7    1  0.6188600E-006  0.3547619E+02  0.7818608E-02  0.1572603E+00
          2   -1    0    0  502    0  0.00000000000E+00  0.00000000000E+00  0.13071474674E+04  0.13071474674E+04  0.00000000000E+00 0. -1.
          1   -1    0    0  501    0 -0.00000000000E+00 -0.00000000000E+00 -0.72474565871E+03  0.72474565871E+03  0.00000000000E+00 0. -1.
         25    2    1    2    0    0  0.20108966914E+02  0.51385185003E+02 -0.21310797203E+02  0.13829225144E+03  0.12500315573E+03 0.  0.
          2    1    1    2  501    0  0.71789239186E+01 -0.28778419245E+02 -0.64435151167E+03  0.64503380141E+03  0.00000000000E+00 0. -1.
          1    1    1    2  502    0 -0.27287890833E+02 -0.22606765757E+02  0.12480641176E+04  0.12485670733E+04  0.00000000000E+00 0. -1.
         22    1    3    3    0    0  0.87652849785E+01  0.74004529504E+02  0.30586496721E+02  0.80554542948E+02  0.00000000000E+00 0.  1.
         22    1    3    3    0    0  0.11343681936E+02 -0.22619344502E+02 -0.51897293925E+02  0.57737708495E+02  0.00000000000E+00 0.  1.
</event>
<event>
 7    1  0.6188600E-006  0.6182026E+02  0.7818608E-02  0.1399211E+00
          2   -1    0    0  502    0  0.00000000000E+00  0.00000000000E+00  0.83833284684E+03  0.83833284684E+03  0.00000000000E+00 0. -1.
          1   -1    0    0  501    0 -0.00000000000E+00 -0.00000000000E+00 -0.14931495072E+04  0.14931495072E+04  0.00000000000E+00 0. -1.
         25    2    1    2    0    0  0.53901173510E+02  0.75990766180E+02 -0.11013782401E+03  0.19087976067E+03  0.12499923882E+03 0.  0.
          2    1    1    2  501    0 -0.58720207903E+02 -0.18593179259E+02 -0.13408934135E+04  0.13423073103E+04  0.00000000000E+00 0. -1.
          1    1    1    2  502    0  0.48190343921E+01 -0.57397586920E+02  0.79621457712E+03  0.79829528302E+03  0.00000000000E+00 0. -1.
         22    1    3    3    0    0  0.54079753261E+02  0.71188687591E+02 -0.92502233289E+01  0.89877781378E+02  0.00000000000E+00 0.  1.
         22    1    3    3    0    0 -0.17857975036E+00  0.48020785881E+01 -0.10088760069E+03  0.10100197930E+03  0.00000000000E+00 0.  1.
</event>
<event>
 7    1  0.6188600E-006  0.4772103E+02  0.7818608E-02  0.1509272E+00
          2   -1    0    0  502    0  0.00000000000E+00  0.00000000000E+00  0.50472590273E+02  0.50472590273E+02  0.00000000000E+00 0. -1.
          1   -1    0    0  501    0 -0.00000000000E+00 -0.00000000000E+00 -0.14247306718E+04  0.14247306718E+04  0.00000000000E+00 0. -1.
         25    2    1    2    0    0  0.16912509231E+02 -0.76371220101E+02 -0.17374294706E+03  0.22788008418E+03  0.12499649948E+03 0.  0.
          2    1    1    2  501    0 -0.83995866231E+00  0.47220900401E+02 -0.12113853257E+04  0.12123056241E+04  0.00000000000E+00 0. -1.
          1    1    1    2  502    0 -0.16072550569E+02  0.29150319699E+02  0.10870191172E+02  0.35017553833E+02  0.00000000000E+00 0. -1.
         22    1    3    3    0    0 -0.26254340674E+02  0.14433615000E+02 -0.34997424267E+01  0.30164015702E+02  0.00000000000E+00 0.  1.
         22    1    3    3    0    0  0.43166849905E+02 -0.90804835101E+02 -0.17024320464E+03  0.19771606848E+03  0.00000000000E+00 0.  1.
</event>
<event>
 7    1  0.6188600E-006  0.7379851E+02  0.7818608E-02  0.1404844E+00
          2   -1    0    0  502    0  0.00000000000E+00  0.00000000000E+00  0.12120306481E+04  0.12120306481E+04  0.00000000000E+00 0. -1.
          1   -1    0    0  501    0 -0.00000000000E+00 -0.00000000000E+00 -0.10059492158E+03  0.10059492158E+03  0.00000000000E+00 0. -1.
         25    2    1    2    0    0 -0.13626282459E+02 -0.94701823427E+02  0.56803742779E+03  0.58944499755E+03  0.12499909933E+03 0.  0.
          2    1    1    2  501    0  0.43330274532E+02  0.59379398789E+02 -0.73856540518E+02  0.10420275557E+03  0.00000000000E+00 0. -1.
          1    1    1    2  502    0 -0.29703992073E+02  0.35322424638E+02  0.61725483928E+03  0.61897781660E+03  0.00000000000E+00 0. -1.
         22    1    3    3    0    0 -0.12078209330E+02  0.53211215808E+01  0.34207624863E+03  0.34233077185E+03  0.00000000000E+00 0.  1.
         22    1    3    3    0    0 -0.15480731289E+01 -0.10002294501E+03  0.22596117915E+03  0.24711422570E+03  0.00000000000E+00 0.  1.
</event>
<event>
 7    1  0.6188600E-006  0.4512501E+02  0.7818608E-02  0.1523004E+00
          2   -1    0    0  502    0  0.00000000000E+00  0.00000000000E+00  0.23357136304E+04  0.23357136304E+04  0.00000000000E+00 0. -1.
          1   -1    0    0  501    0 -0.00000000000E+00 -0.00000000000E+00 -0.12271885637E+02  0.12271885637E+02  0.00000000000E+00 0. -1.
         25    2    1    2    0    0 -0.53549116190E+02  0.40007729029E+02  0.13777960382E+04  0.13850662257E+04  0.12497359999E+03 0.  0.
          2    1    1    2  501    0  0.21469212685E+02 -0.38904336406E+02  0.50773764993E+02  0.67471843728E+02  0.00000000000E+00 0. -1.
          1    1    1    2  502    0  0.32079903505E+02 -0.11033926229E+01  0.89487194161E+03  0.89544744657E+03  0.00000000000E+00 0. -1.
         22    1    3    3    0    0  0.25195031391E+02 -0.14958879334E+01  0.73048165274E+02  0.77285585573E+02  0.00000000000E+00 0.  1.
         22    1    3    3    0    0 -0.78744147580E+02  0.41503616963E+02  0.13047478729E+04  0.13077806402E+04  0.00000000000E+00 0.  1.
</event>
<event>
 7    1  0.6188600E-006  0.9901226E+02  0.7818608E-02  0.1462475E+00
          2   -1    0    0  502    0  0.00000000000E+00  0.00000000000E+00  0.68864143913E+03  0.68864143913E+03  0.00000000000E+00 0. -1.
          1   -1    0    0  501    0 -0.00000000000E+00 -0.00000000000E+00 -0.65753806804E+03  0.65753806804E+03  0.00000000000E+00 0. -1.
         25    2    1    2    0    0 -0.74196158215E+02 -0.34869969271E+02  0.11316464712E+03  0.18748779724E+03  0.12499780841E+03 0.  0.
          2    1    1    2  501    0  0.82564252711E+02  0.55508701589E+02 -0.61615420434E+03  0.62413466120E+03  0.00000000000E+00 0. -1.
          1    1    1    2  502    0 -0.83680944952E+01 -0.20638732318E+02  0.53409292831E+03  0.53455704873E+03  0.00000000000E+00 0. -1.
         22    1    3    3    0    0 -0.18092879374E+02 -0.18063009182E+01 -0.27219942585E+02  0.32734389888E+02  0.00000000000E+00 0. -1.
         22    1    3    3    0    0 -0.56103278841E+02 -0.33063668352E+02  0.14038458970E+03  0.15475340736E+03  0.00000000000E+00 0. -1.
</event>
<event>
 7    1  0.6188600E-006  0.6733829E+02  0.7818608E-02  0.1453771E+00
          2   -1    0    0  502    0  0.00000000000E+00  0.00000000000E+00  0.23622344549E+04  0.23622344549E+04  0.00000000000E+00 0. -1.
          1   -1    0    0  501    0 -0.00000000000E+00 -0.00000000000E+00 -0.47198408870E+03  0.47198408870E+03  0.00000000000E+00 0. -1.
         25    2    1    2    0    0  0.79796632025E+02 -0.47990072168E+02  0.56359844792E+03  0.58475516774E+03  0.12499938475E+03 0.  0.
          2    1    1    2  501    0 -0.34886309653E+02 -0.43848428627E+00 -0.46013518210E+03  0.46145599214E+03  0.00000000000E+00 0. -1.
          1    1    1    2  502    0 -0.44910322372E+02  0.48428556454E+02  0.17867871004E+04  0.17880073837E+04  0.00000000000E+00 0. -1.
         22    1    3    3    0    0  0.73266884730E+02 -0.19332519269E+02  0.54440083191E+03  0.54964902300E+03  0.00000000000E+00 0. -1.
         22    1    3    3    0    0  0.65297472948E+01 -0.28657552899E+02  0.19197616008E+02  0.35106144736E+02  0.00000000000E+00 0. -1.
</event>
<event>
 7    1  0.6188600E-006  0.2034426E+03  0.7818608E-02  0.1337844E+00
          2   -1    0    0  502    0  0.00000000000E+00  0.00000000000E+00  0.82751433576E+03  0.82751433576E+03  0.00000000000E+00 0. -1.
          1   -1    0    0  501    0 -0.00000000000E+00 -0.00000000000E+00 -0.22787765534E+03  0.22787765534E+03  0.00000000000E+00 0. -1.
         25    2    1    2    0    0 -0.16859478525E+03  0.11480278497E+03  0.96849165316E+02  0.25808696899E+03  0.12500096675E+03 0.  0.
          2    1    1    2  501    0  0.18310333531E+03 -0.89544006579E+02 -0.76186249805E+02  0.21759895490E+03  0.00000000000E+00 0. -1.
          1    1    1    2  502    0 -0.14508550059E+02 -0.25258778391E+02  0.57897376491E+03  0.57970606721E+03  0.00000000000E+00 0. -1.
         22    1    3    3    0    0 -0.66644858471E+02  0.57997544458E+02  0.10949931738E+03  0.14069595882E+03  0.00000000000E+00 0.  1.
         22    1    3    3    0    0 -0.10194992678E+03  0.56805240511E+02 -0.12650152060E+02  0.11739101016E+03  0.00000000000E+00 0.  1.
</event>
<event>
 7    1  0.6188600E-006  0.2208220E+03  0.7818608E-02  0.1243447E+00
          2   -1    0    0  502    0  0.00000000000E+00  0.00000000000E+00  0.13062381466E+03  0.13062381466E+03  0.00000000000E+00 0. -1.
          1   -1    0    0  501    0 -0.00000000000E+00 -0.00000000000E+00 -0.82576131098E+03  0.82576131098E+03  0.00000000000E+00 0. -1.
         25    2    1    2    0    0 -0.12111643151E+03 -0.16115642254E+03 -0.12601610935E+03  0.26860083781E+03  0.12500307097E+03 0.  0.
          2    1    1    2  501    0 -0.64631490512E+02 -0.67294933229E+01 -0.34715566225E+03  0.35318489418E+03  0.00000000000E+00 0. -1.
          1    1    1    2  502    0  0.18574792202E+03  0.16788591586E+03 -0.22196572472E+03  0.33459939365E+03  0.00000000000E+00 0. -1.
         22    1    3    3    0    0 -0.62531231391E+02 -0.12403410549E+03 -0.17763884650E+02  0.14003631608E+03  0.00000000000E+00 0. -1.
         22    1    3    3    0    0 -0.58585200115E+02 -0.37122317052E+02 -0.10825222470E+03  0.12856452173E+03  0.00000000000E+00 0. -1.
</event>
<event>
 7    1  0.6188600E-006  0.1555905E+03  0.7818608E-02  0.1323693E+00
          2   -1    0    0  502    0  0.00000000000E+00  0.00000000000E+00  0.18341222533E+03  0.18341222533E+03  0.00000000000E+00 0. -1.
          1   -1    0    0  501    0 -0.00000000000E+00 -0.00000000000E+00 -0.65085725562E+03  0.65085725562E+03  0.00000000000E+00 0. -1.
         25    2    1    2    0    0  0.18794207924E+03 -0.52800078671E+02 -0.40540322144E+03  0.46699755469E+03  0.12499948270E+03 0.  0.
          2    1    1    2  501    0 -0.41543429630E+02  0.11592251948E+02 -0.17345824962E+03  0.17874003808E+03  0.00000000000E+00 0. -1.
          1    1    1    2  502    0 -0.14639864961E+03  0.41207826723E+02  0.11141644077E+03  0.18853188819E+03  0.00000000000E+00 0. -1.
         22    1    3    3    0    0  0.16361761093E+03 -0.15297313692E+02 -0.21057831827E+03  0.26711038643E+03  0.00000000000E+00 0.  1.
         22    1    3    3    0    0  0.24324468309E+02 -0.37502764980E+02 -0.19482490317E+03  0.19988716826E+03  0.00000000000E+00 0.  1.
</event>
<event>
 7    1  0.6188600E-006  0.5914732E+02  0.7818608E-02  0.1489102E+00
          2   -1    0    0  502    0  0.00000000000E+00  0.00000000000E+00  0.12585760412E+04  0.12585760412E+04  0.00000000000E+00 0. -1.
          1   -1    0    0  501    0 -0.00000000000E+00 -0.00000000000E+00 -0.13079193333E+04  0.13079193333E+04  0.00000000000E+00 0. -1.
         25    2    1    2    0    0  0.22003832880E+02 -0.30911825869E+02 -0.10223158046E+02  0.13103688668E+03  0.12500577214E+03 0.  0.
          2    1    1    2  501    0 -0.13271485482E+02 -0.27854217799E+02 -0.12363602459E+04  0.12367451829E+04  0.00000000000E+00 0. -1.
          1    1    1    2  502    0 -0.87323473981E+01  0.58766043667E+02  0.11972401119E+04  0.11987133048E+04  0.00000000000E+00 0. -1.
         22    1    3    3    0    0  0.99007965042E+01 -0.58031937231E+02  0.41060124905E+02  0.71775102699E+02  0.00000000000E+00 0.  1.
         22    1    3    3    0    0  0.12103036376E+02  0.27120111363E+02 -0.51283282951E+02  0.59261783976E+02  0.00000000000E+00 0.  1.
</event>
<event>
 7    1  0.6188600E-006  0.2233324E+02  0.7818608E-02  0.1711729E+00
          2   -1    0    0  502    0  0.00000000000E+00  0.00000000000E+00  0.17976159682E+03  0.17976159682E+03  0.00000000000E+00 0. -1.
          1   -1    0    0  501    0 -0.00000000000E+00 -0.00000000000E+00 -0.13495145948E+04  0.13495145948E+04  0.00000000000E+00 0. -1.
         25    2    1    2    0    0 -0.77955422094E+01  0.37070564846E+02 -0.19105988932E+03  0.23144004445E+03  0.12500246242E+03 0.  0.
          2    1    1    2  501    0 -0.67539509190E+01 -0.20179832791E+02 -0.11373859916E+04  0.11375850453E+04  0.00000000000E+00 0. -1.
          1    1    1    2  502    0  0.14549493128E+02 -0.16890732055E+02  0.15869288288E+03  0.16025110189E+03  0.00000000000E+00 0. -1.
         22    1    3    3    0    0  0.45894831472E+02  0.24373988052E+02 -0.27432884304E+02  0.58762147601E+02  0.00000000000E+00 0.  1.
         22    1    3    3    0    0 -0.53690373682E+02  0.12696576794E+02 -0.16362700502E+03  0.17267789685E+03  0.00000000000E+00 0.  1.
</event>
<event>
 7    1  0.6188600E-006  0.6405509E+02  0.7818608E-02  0.1419715E+00
          2   -1    0    0  502    0  0.00000000000E+00  0.00000000000E+00  0.43600740688E+03  0.43600740688E+03  0.00000000000E+00 0. -1.
          1   -1    0    0  501    0 -0.00000000000E+00 -0.00000000000E+00 -0.10159455980E+04  0.10159455980E+04  0.00000000000E+00 0. -1.
         25    2    1    2    0    0 -0.44346828849E+02  0.58024628011E+02 -0.21449756551E+03  0.25878294941E+03  0.12500364239E+03 0.  0.
          2    1    1    2  501    0  0.62837612133E+02 -0.14418558108E+02 -0.77661008413E+03  0.77928151722E+03  0.00000000000E+00 0. -1.
          1    1    1    2  502    0 -0.18490783284E+02 -0.43606069904E+02  0.41116945856E+03  0.41388853820E+03  0.00000000000E+00 0. -1.
         22    1    3    3    0    0  0.43498511659E+02  0.20019567158E+02 -0.87633728273E+02  0.99862775430E+02  0.00000000000E+00 0. -1.
         22    1    3    3    0    0 -0.87845340508E+02  0.38005060854E+02 -0.12686383724E+03  0.15892017398E+03  0.00000000000E+00 0. -1.
</event>
<event>
 7    1  0.6188600E-006  0.2628835E+02  0.7818608E-02  0.1689769E+00
          2   -1    0    0  502    0  0.00000000000E+00  0.00000000000E+00  0.21368165927E+04  0.21368165927E+04  0.00000000000E+00 0. -1.
          1   -1    0    0  501    0 -0.00000000000E+00 -0.00000000000E+00 -0.44291668405E+01  0.44291668405E+01  0.00000000000E+00 0. -1.
         25    2    1    2    0    0 -0.12206854811E+01  0.85222606773E+01  0.15116845545E+04  0.15168680558E+04  0.12499754987E+03 0.  0.
          2    1    1    2  501    0 -0.21115884211E+00  0.20310913630E+02  0.69192162398E+02  0.72111948648E+02  0.00000000000E+00 0. -1.
          1    1    1    2  502    0  0.14318443232E+01 -0.28833174307E+02  0.55151070896E+03  0.55226575507E+03  0.00000000000E+00 0. -1.
         22    1    3    3    0    0 -0.93046550662E+01 -0.50227215703E+02  0.35410673457E+03  0.35777217510E+03  0.00000000000E+00 0. -1.
         22    1    3    3    0    0  0.80839695851E+01  0.58749476380E+02  0.11575778199E+04  0.11590958807E+04  0.00000000000E+00 0. -1.
</event>
<event>
 7    1  0.6188600E-006  0.1468175E+03  0.7818608E-02  0.1250524E+00
          2   -1    0    0  502    0  0.00000000000E+00  0.00000000000E+00  0.25696014167E+04  0.25696014167E+04  0.00000000000E+00 0. -1.
          1   -1    0    0  501    0 -0.00000000000E+00 -0.00000000000E+00 -0.34179791197E+03  0.34179791197E+03  0.00000000000E+00 0. -1.
         25    2    1    2    0    0 -0.47328229291E+02  0.21033553787E+03  0.19820729219E+03  0.31842230861E+03  0.12500254464E+03 0.  0.
          2    1    1    2  501    0 -0.27720633953E+02 -0.86709467118E+02 -0.27200636112E+03  0.28683518913E+03  0.00000000000E+00 0. -1.
          1    1    1    2  502    0  0.75048863244E+02 -0.12362607075E+03  0.23016025736E+04  0.23061418309E+04  0.00000000000E+00 0. -1.
         22    1    3    3    0    0 -0.61068660525E+02  0.22236899676E+03  0.18781084573E+03  0.29740589401E+03  0.00000000000E+00 0.  1.
         22    1    3    3    0    0  0.13740431234E+02 -0.12033458897E+02  0.10396446460E+02  0.21016414597E+02  0.00000000000E+00 0.  1.
</event>
<event>
 7    1  0.6188600E-006  0.2031371E+03  0.7818608E-02  0.1348583E+00
          2   -1    0    0  502    0  0.00000000000E+00  0.00000000000E+00  0.70583148514E+03  0.70583148514E+03  0.00000000000E+00 0. -1.
          1   -1    0    0  501    0 -0.00000000000E+00 -0.00000000000E+00 -0.10757934187E+04  0.10757934187E+04  0.00000000000E+00 0. -1.
         25    2    1    2    0    0  0.21825999542E+03 -0.40688366061E+01 -0.47050564072E+03  0.53352925647E+03  0.12499571404E+03 0.  0.
          2    1    1    2  501    0 -0.19508351384E+03 -0.89718511269E+01 -0.55688221611E+03  0.59013208192E+03  0.00000000000E+00 0. -1.
          1    1    1    2  502    0 -0.23176481576E+02  0.13040687733E+02  0.65742592329E+03  0.65796356544E+03  0.00000000000E+00 0. -1.
         22    1    3    3    0    0  0.41110915527E+02  0.95359688558E+00 -0.13365618502E+02  0.43239524517E+02  0.00000000000E+00 0. -1.
         22    1    3    3    0    0  0.17714907989E+03 -0.50224334917E+01 -0.45714002222E+03  0.49028973195E+03  0.00000000000E+00 0. -1.
</event>
<event>
 7    1  0.6188600E-006  0.9703253E+02  0.7818608E-02  0.1351764E+00
          2   -1    0    0  502    0  0.00000000000E+00  0.00000000000E+00  0.46428458703E+03  0.46428458703E+03  0.00000000000E+00 0. -1.
          1   -1    0    0  501    0 -0.00000000000E+00 -0.00000000000E+00 -0.44813938770E+03  0.44813938770E+03  0.00000000000E+00 0. -1.
         25    2    1    2    0    0 -0.86748717529E+02  0.11475141014E+03  0.31565159938E+02  0.19316983807E+03  0.12500000358E+03 0.  0.
          2    1    1    2  501    0  0.70549636305E+02 -0.63046366516E+02 -0.35908652536E+03  0.37134246756E+03  0.00000000000E+00 0. -1.
          1    1    1    2  502    0  0.16199081224E+02 -0.51705043626E+02  0.34366656476E+03  0.34791166911E+03  0.00000000000E+00 0. -1.
         22    1    3    3    0    0 -0.10722812676E+03  0.12591821233E+03  0.18462045914E+02  0.16641548757E+03  0.00000000000E+00 0. -1.
         22    1    3    3    0    0  0.20479409232E+02 -0.11166802184E+02  0.13103114024E+02  0.26754350499E+02  0.00000000000E+00 0. -1.
</event>
<event>
 7    1  0.6188600E-006  0.1222991E+03  0.7818608E-02  0.1248164E+00
          2   -1    0    0  502    0  0.00000000000E+00  0.00000000000E+00  0.63262327882E+03  0.63262327882E+03  0.00000000000E+00 0. -1.
          1   -1    0    0  501    0 -0.00000000000E+00 -0.00000000000E+00 -0.24819611029E+03  0.24819611029E+03  0.00000000000E+00 0. -1.
         25    2    1    2    0    0 -0.48316672584E+02  0.32590154245E+02  0.32673818784E+03  0.35465648813E+03  0.12500704850E+03 0.  0.
          2    1    1    2  501    0  0.11294876177E+03  0.58747338756E+02 -0.20461560290E+03  0.24099007769E+03  0.00000000000E+00 0. -1.
          1    1    1    2  502    0 -0.64632089186E+02 -0.91337493001E+02  0.26230458358E+03  0.28517282330E+03  0.00000000000E+00 0. -1.
         22    1    3    3    0    0  0.35988163685E+02 -0.11216376247E+02  0.54090122794E+02  0.65929480549E+02  0.00000000000E+00 0.  1.
         22    1    3    3    0    0 -0.84304836268E+02  0.43806530492E+02  0.27264806505E+03  0.28872700758E+03  0.00000000000E+00 0.  1.
</event>
<event>
 7    1  0.6188600E-006  0.6631688E+02  0.7818608E-02  0.1511137E+00
          2   -1    0    0  502    0  0.00000000000E+00  0.00000000000E+00  0.10365689050E+04  0.10365689050E+04  0.00000000000E+00 0. -1.
          1   -1    0    0  501    0 -0.00000000000E+00 -0.00000000000E+00 -0.16933280682E+03  0.16933280682E+03  0.00000000000E+00 0. -1.
         25    2    1    2    0    0 -0.39086500936E+02 -0.19937660851E+02  0.16733361702E+03  0.21342727734E+03  0.12500159380E+03 0.  0.
          2    1    1    2  501    0  0.61852828015E+02  0.26352280106E+02 -0.13838538409E+03  0.15385294774E+03  0.00000000000E+00 0. -1.
          1    1    1    2  502    0 -0.22766327079E+02 -0.64146192555E+01  0.83828786529E+03  0.83862148677E+03  0.00000000000E+00 0. -1.
         22    1    3    3    0    0  0.32433624650E+02 -0.98023355544E+00  0.22564473517E+01  0.32526795422E+02  0.00000000000E+00 0.  1.
         22    1    3    3    0    0 -0.71520125586E+02 -0.18957427296E+02  0.16507716966E+03  0.18090048192E+03  0.00000000000E+00 0.  1.
</event>
<event>
 7    1  0.6188600E-006  0.7290615E+02  0.7818608E-02  0.1390963E+00
          2   -1    0    0  502    0  0.00000000000E+00  0.00000000000E+00  0.10590954757E+04  0.10590954757E+04  0.00000000000E+00 0. -1.
          1   -1    0    0  501    0 -0.00000000000E+00 -0.00000000000E+00 -0.15735406767E+03  0.15735406767E+03  0.00000000000E+00 0. -1.
         25    2    1    2    0    0 -0.46215033566E+02  0.82818729931E+02  0.11548405577E+03  0.19482325314E+03  0.12499904589E+03 0.  0.
          2    1    1    2  501    0  0.51125208184E+02 -0.10347298766E+02 -0.11036271078E+03  0.12206875699E+03  0.00000000000E+00 0. -1.
          1    1    1    2  502    0 -0.49101746179E+01 -0.72471431165E+02  0.89662006306E+03  0.89955753325E+03  0.00000000000E+00 0. -1.
         22    1    3    3    0    0 -0.76564981151E+01 -0.32575354195E+02  0.37742411806E+02  0.50440710872E+02  0.00000000000E+00 0.  1.
         22    1    3    3    0    0 -0.38558535451E+02  0.11539408413E+03  0.77741643960E+02  0.14438254227E+03  0.00000000000E+00 0.  1.
</event>
<event>
 7    1  0.6188600E-006  0.9303399E+02  0.7818608E-02  0.1366033E+00
          2   -1    0    0  502    0  0.00000000000E+00  0.00000000000E+00  0.23663917123E+04  0.23663917123E+04  0.00000000000E+00 0. -1.
          1   -1    0    0  501    0 -0.00000000000E+00 -0.00000000000E+00 -0.42470227773E+02  0.42470227773E+02  0.00000000000E+00 0. -1.
         25    2    1    2    0    0  0.37243341710E+02 -0.70091836887E+02  0.79418429024E+03  0.80786958735E+03  0.12499860480E+03 0.  0.
          2    1    1    2  501    0  0.63508357173E+01  0.94813820572E+02  0.28907174565E+02  0.99325819539E+02  0.00000000000E+00 0. -1.
          1    1    1    2  502    0 -0.43594177427E+02 -0.24721983685E+02  0.15008300197E+04  0.15016665332E+04  0.00000000000E+00 0. -1.
         22    1    3    3    0    0  0.13168710118E+01 -0.22175870817E+02  0.15982705138E+02  0.27366955609E+02  0.00000000000E+00 0.  1.
         22    1    3    3    0    0  0.35926470698E+02 -0.47915966070E+02  0.77820158510E+03  0.78050263174E+03  0.00000000000E+00 0.  1.
</event>
<event>
 7    1  0.6188600E-006  0.6064096E+02  0.7818608E-02  0.1456776E+00
          2   -1    0    0  502    0  0.00000000000E+00  0.00000000000E+00  0.17015099945E+04  0.17015099945E+04  0.00000000000E+00 0. -1.
          1   -1    0    0  501    0 -0.00000000000E+00 -0.00000000000E+00 -0.13119265844E+03  0.13119265844E+03  0.00000000000E+00 0. -1.
         25    2    1    2    0    0  0.51614143746E+02  0.69444934536E+01  0.48374415970E+02  0.14379495317E+03  0.12499863445E+03 0.  0.
          2    1    1    2  501    0 -0.54815092325E+02  0.30820410964E+02 -0.71382390755E+02  0.95131686564E+02  0.00000000000E+00 0. -1.
          1    1    1    2  502    0  0.32009485798E+01 -0.37764904418E+02  0.15933253109E+04  0.15937760132E+04  0.00000000000E+00 0. -1.
         22    1    3    3    0    0  0.62070985106E+02  0.14210511200E+02 -0.25675351570E+02  0.68658353453E+02  0.00000000000E+00 0. -1.
         22    1    3    3    0    0 -0.10456841360E+02 -0.72660177464E+01  0.74049767539E+02  0.75136599722E+02  0.00000000000E+00 0. -1.
</event>
<event>
 7    1  0.6188600E-006  0.4522136E+02  0.7818608E-02  0.1512878E+00
          2   -1    0    0  502    0  0.00000000000E+00  0.00000000000E+00  0.75720160704E+03  0.75720160704E+03  0.00000000000E+00 0. -1.
          1   -1    0    0  501    0 -0.00000000000E+00 -0.00000000000E+00 -0.33304642289E+02  0.33304642289E+02  0.00000000000E+00 0. -1.
         25    2    1    2    0    0 -0.28484063654E+02 -0.34392245130E+02  0.30697788043E+03  0.33444711677E+03  0.12500114575E+03 0.  0.
          2    1    1    2  501    0  0.32176216912E+02 -0.11826051133E+02 -0.22302659502E+01  0.34353144054E+02  0.00000000000E+00 0. -1.
          1    1    1    2  502    0 -0.36921532576E+01  0.46218296263E+02  0.41914935027E+03  0.42170598850E+03  0.00000000000E+00 0. -1.
         22    1    3    3    0    0  0.31398925485E+02 -0.59909819306E+02  0.15486895390E+03  0.16899547879E+03  0.00000000000E+00 0.  1.
         22    1    3    3    0    0 -0.59882989139E+02  0.25517574176E+02  0.15210892653E+03  0.16545163798E+03  0.00000000000E+00 0.  1.
</event>
<event>
 7    1  0.6188600E-006  0.6292419E+02  0.7818608E-02  0.1402747E+00
          2   -1    0    0  502    0  0.00000000000E+00  0.00000000000E+00  0.10965460055E+04  0.10965460055E+04  0.00000000000E+00 0. -1.
          1   -1    0    0  501    0 -0.00000000000E+00 -0.00000000000E+00 -0.15267453728E+03  0.15267453728E+03  0.00000000000E+00 0. -1.
         25    2    1    2    0    0  0.13048814070E+02 -0.16218083940E+02  0.37437428304E+03  0.39523968647E+03  0.12500003267E+03 0.  0.
          2    1    1    2  501    0  0.18888712126E+02  0.61030624216E+02 -0.13393910746E+03  0.14839543472E+03  0.00000000000E+00 0. -1.
          1    1    1    2  502    0 -0.31937526196E+02 -0.44812540276E+02  0.70343629262E+03  0.70558542156E+03  0.00000000000E+00 0. -1.
         22    1    3    3    0    0 -0.45488061854E+02 -0.34099878796E+01  0.60898749861E+02  0.76088432256E+02  0.00000000000E+00 0.  1.
         22    1    3    3    0    0  0.58536875924E+02 -0.12808096061E+02  0.31347553318E+03  0.31915125422E+03  0.00000000000E+00 0.  1.
</event>
<event>
 7    1  0.6188600E-006  0.9583616E+02  0.7818608E-02  0.1310511E+00
          2   -1    0    0  502    0  0.00000000000E+00  0.00000000000E+00  0.14524279820E+04  0.14524279820E+04  0.00000000000E+00 0. -1.
          1   -1    0    0  501    0 -0.00000000000E+00 -0.00000000000E+00 -0.74861470181E+02  0.74861470181E+02  0.00000000000E+00 0. -1.
         25    2    1    2    0    0 -0.35723107235E+02  0.55423916480E+02  0.15318216228E+03  0.20841560111E+03  0.12499734811E+03 0.  0.
          2    1    1    2  501    0  0.10952546217E+03 -0.27763166159E+02  0.23501909691E+02  0.11540779877E+03  0.00000000000E+00 0. -1.
          1    1    1    2  502    0 -0.73802354935E+02 -0.27660750321E+02  0.12008824398E+04  0.12034660523E+04  0.00000000000E+00 0. -1.
         22    1    3    3    0    0  0.26614819275E+02 -0.17711680617E+02  0.58302722723E+01  0.32496835385E+02  0.00000000000E+00 0. -1.
         22    1    3    3    0    0 -0.62337926510E+02  0.73135597097E+02  0.14735189001E+03  0.17591876572E+03  0.00000000000E+00 0. -1.
</event>
<event>
 7    1  0.6188600E-006  0.1019614E+03  0.7818608E-02  0.1277885E+00
          2   -1    0    0  502    0  0.00000000000E+00  0.00000000000E+00  0.11613082355E+04  0.11613082355E+04  0.00000000000E+00 0. -1.
          1   -1    0    0  501    0 -0.00000000000E+00 -0.00000000000E+00 -0.18958422753E+04  0.18958422753E+04  0.00000000000E+00 0. -1.
         25    2    1    2    0    0  0.45825447880E+02  0.15705791347E+03  0.21446931273E+02  0.20700636908E+03  0.12499802448E+03 0.  0.
          2    1    1    2  501    0  0.33646272002E+02 -0.94547086946E+02 -0.17992200745E+04  0.18020166758E+04  0.00000000000E+00 0. -1.
          1    1    1    2  502    0 -0.79471719883E+02 -0.62510826519E+02  0.10432391035E+04  0.10481274659E+04  0.00000000000E+00 0. -1.
         22    1    3    3    0    0  0.18863739206E+02  0.45694113239E+02 -0.51331970025E+02  0.71265445962E+02  0.00000000000E+00 0. -1.
         22    1    3    3    0    0  0.26961708675E+02  0.11136380023E+03  0.72778901298E+02  0.13574092312E+03  0.00000000000E+00 0. -1.
</event>
<event>
 7    1  0.6188600E-006  0.1398084E+03  0.7818608E-02  0.1389039E+00
          2   -1    0    0  502    0  0.00000000000E+00  0.00000000000E+00  0.23144568637E+03  0.23144568637E+03  0.00000000000E+00 0. -1.
          1   -1    0    0  501    0 -0.00000000000E+00 -0.00000000000E+00 -0.45264975133E+03  0.45264975133E+03  0.00000000000E+00 0. -1.
         25    2    1    2    0    0 -0.11967245652E+03 -0.96056051513E+01 -0.31418015287E+02  0.17613977823E+03  0.12499746113E+03 0.  0.
          2    1    1    2  501    0  0.14153859583E+03  0.26487378787E+02 -0.33263250010E+03  0.36246259872E+03  0.00000000000E+00 0. -1.
          1    1    1    2  502    0 -0.21866139301E+02 -0.16881773636E+02  0.14284645043E+03  0.14549306076E+03  0.00000000000E+00 0. -1.
         22    1    3    3    0    0 -0.11123965677E+03 -0.55815842962E+02 -0.34240484551E+02  0.12908168091E+03  0.00000000000E+00 0.  1.
         22    1    3    3    0    0 -0.84327997498E+01  0.46210237811E+02  0.28224692646E+01  0.47058097315E+02  0.00000000000E+00 0.  1.
</event>
<event>
 7    1  0.6188600E-006  0.6881458E+02  0.7818608E-02  0.1366763E+00
          2   -1    0    0  502    0  0.00000000000E+00  0.00000000000E+00  0.40647218945E+03  0.40647218945E+03  0.00000000000E+00 0. -1.
          1   -1    0    0  501    0 -0.00000000000E+00 -0.00000000000E+00 -0.33470862129E+03  0.33470862129E+03  0.00000000000E+00 0. -1.
         25    2    1    2    0    0  0.20832425546E+02 -0.28850200277E+02 -0.82173937755E+02  0.15376621343E+03  0.12500067334E+03 0.  0.
          2    1    1    2  501    0 -0.60658032452E+02 -0.29253969085E+02 -0.20802872783E+03  0.21865759354E+03  0.00000000000E+00 0. -1.
          1    1    1    2  502    0  0.39825606906E+02  0.58104169361E+02  0.36196623374E+03  0.36875700378E+03  0.00000000000E+00 0. -1.
         22    1    3    3    0    0 -0.23859427322E+02  0.47102042772E+01 -0.93610754081E+02  0.96718310448E+02  0.00000000000E+00 0. -1.
         22    1    3    3    0    0  0.44691852867E+02 -0.33560404554E+02  0.11436816326E+02  0.57047902978E+02  0.00000000000E+00 0. -1.
</event>
<event>
 7    1  0.6188600E-006  0.5328750E+02  0.7818608E-02  0.1493334E+00
          2   -1    0    0  502    0  0.00000000000E+00  0.00000000000E+00  0.99140276754E+03  0.99140276754E+03  0.00000000000E+00 0. -1.
          1   -1    0    0  501    0 -0.00000000000E+00 -0.00000000000E+00 -0.35307568828E+02  0.35307568828E+02  0.00000000000E+00 0. -1.
         25    2    1    2    0    0 -0.59986192283E+02  0.22501481436E+02  0.19579490212E+03  0.24096709972E+03  0.12499935809E+03 0.  0.
          2    1    1    2  501    0  0.76981945829E+01 -0.32350840606E+02  0.11696894217E+02  0.35251332203E+02  0.00000000000E+00 0. -1.
          1    1    1    2  502    0  0.52287997700E+02  0.98493591706E+01  0.74860340238E+03  0.75049190444E+03  0.00000000000E+00 0. -1.
         22    1    3    3    0    0 -0.28934076370E+02 -0.98272473386E+01  0.19369634297E+03  0.19609188878E+03  0.00000000000E+00 0. -1.
         22    1    3    3    0    0 -0.31052115912E+02  0.32328728774E+02  0.20985591482E+01  0.44875210944E+02  0.00000000000E+00 0. -1.
</event>
<event>
 7    1  0.6188600E-006  0.3229661E+02  0.7818608E-02  0.1618063E+00
          2   -1    0    0  502    0  0.00000000000E+00  0.00000000000E+00  0.53058308591E+02  0.53058308591E+02  0.00000000000E+00 0. -1.
          1   -1    0    0  501    0 -0.00000000000E+00 -0.00000000000E+00 -0.78360096705E+03  0.78360096705E+03  0.00000000000E+00 0. -1.
         25    2    1    2    0    0  0.38312173937E+02  0.23238460908E+01 -0.29460056991E+03  0.32231938880E+03  0.12500827842E+03 0.  0.
          2    1    1    2  501    0 -0.23586412601E+02 -0.22206180694E+02 -0.47062375921E+03  0.47173738039E+03  0.00000000000E+00 0. -1.
          1    1    1    2  502    0 -0.14725761336E+02  0.19882334603E+02  0.34681670661E+02  0.42602506452E+02  0.00000000000E+00 0. -1.
         22    1    3    3    0    0  0.96937362131E+01  0.52268970631E+02 -0.22879626561E+03  0.23489092143E+03  0.00000000000E+00 0.  1.
         22    1    3    3    0    0  0.28618437724E+02 -0.49945124540E+02 -0.65804304303E+02  0.87428467377E+02  0.00000000000E+00 0.  1.
</event>
<event>
 7    1  0.6188600E-006  0.4694289E+02  0.7818608E-02  0.1559942E+00
          2   -1    0    0  502    0  0.00000000000E+00  0.00000000000E+00  0.10846380237E+04  0.10846380237E+04  0.00000000000E+00 0. -1.
          1   -1    0    0  501    0 -0.00000000000E+00 -0.00000000000E+00 -0.18460560270E+02  0.18460560270E+02  0.00000000000E+00 0. -1.
         25    2    1    2    0    0 -0.31960923247E+02 -0.45101276845E+02  0.69383438221E+03  0.70716857658E+03  0.12500247986E+03 0.  0.
          2    1    1    2  501    0  0.77085846454E+01  0.46082347395E+02  0.36706520221E+02  0.59416947460E+02  0.00000000000E+00 0. -1.
          1    1    1    2  502    0  0.24252338601E+02 -0.98107054995E+00  0.33563656098E+03  0.33651305992E+03  0.00000000000E+00 0. -1.
         22    1    3    3    0    0 -0.62459566869E+02 -0.10443511745E+02  0.17185032087E+03  0.18314692794E+03  0.00000000000E+00 0. -1.
         22    1    3    3    0    0  0.30498643622E+02 -0.34657765100E+02  0.52198406135E+03  0.52402164864E+03  0.00000000000E+00 0. -1.
</event>
<event>
 7    1  0.6188600E-006  0.2095430E+03  0.7818608E-02  0.1329366E+00
          2   -1    0    0  502    0  0.00000000000E+00  0.00000000000E+00  0.33128869340E+04  0.33128869340E+04  0.00000000000E+00 0. -1.
          1   -1    0    0  501    0 -0.00000000000E+00 -0.00000000000E+00 -0.82672518854E+03  0.82672518854E+03  0.00000000000E+00 0. -1.
         25    2    1    2    0    0 -0.12769599872E+03 -0.19003028788E+03  0.63727446544E+03  0.68859407783E+03  0.12500112530E+03 0.  0.
          2    1    1    2  501    0 -0.33593199807E+01  0.30272204840E+02 -0.79674576006E+03  0.79732772283E+03  0.00000000000E+00 0. -1.
          1    1    1    2  502    0  0.13105531870E+03  0.15975808304E+03  0.26456330400E+04  0.26536903218E+04  0.00000000000E+00 0. -1.
         22    1    3    3    0    0 -0.42701177453E+02 -0.15997759782E+03  0.34397939728E+03  0.38175652989E+03  0.00000000000E+00 0.  1.
         22    1    3    3    0    0 -0.84994821264E+02 -0.30052690060E+02  0.29329506816E+03  0.30683754794E+03  0.00000000000E+00 0.  1.
</event>
<event>
 7    1  0.6188600E-006  0.4130413E+02  0.7818608E-02  0.1598069E+00
          2   -1    0    0  502    0  0.00000000000E+00  0.00000000000E+00  0.76707457629E+02  0.76707457629E+02  0.00000000000E+00 0. -1.
          1   -1    0    0  501    0 -0.00000000000E+00 -0.00000000000E+00 -0.70673500162E+03  0.70673500162E+03  0.00000000000E+00 0. -1.
         25    2    1    2    0    0  0.23777712946E+02 -0.12683302278E+02 -0.97117518377E+02  0.16057142954E+03  0.12500050327E+03 0.  0.
          2    1    1    2  501    0 -0.23494992201E+02  0.34473696705E+02 -0.57444944916E+03  0.57596234257E+03  0.00000000000E+00 0. -1.
          1    1    1    2  502    0 -0.28272074452E+00 -0.21790394427E+02  0.41539423548E+02  0.46908687137E+02  0.00000000000E+00 0. -1.
         22    1    3    3    0    0  0.48949551463E+02 -0.33863412827E+02 -0.11013704173E+03  0.12519168214E+03  0.00000000000E+00 0. -1.
         22    1    3    3    0    0 -0.25171838517E+02  0.21180110549E+02  0.13019523354E+02  0.35379747393E+02  0.00000000000E+00 0. -1.
</event>
<event>
 7    1  0.6188600E-006  0.3728395E+02  0.7818608E-02  0.1541735E+00
          2   -1    0    0  502    0  0.00000000000E+00  0.00000000000E+00  0.14187946178E+04  0.14187946178E+04  0.00000000000E+00 0. -1.
          1   -1    0    0  501    0 -0.00000000000E+00 -0.00000000000E+00 -0.78140643811E+03  0.78140643811E+03  0.00000000000E+00 0. -1.
         25    2    1    2    0    0 -0.33846491772E+02  0.30259172986E+02  0.26128012029E+02  0.13553112926E+03  0.12499924572E+03 0.  0.
          2    1    1    2  501    0  0.37116161425E+02  0.39317345222E+01 -0.72600498403E+03  0.72696375756E+03  0.00000000000E+00 0. -1.
          1    1    1    2  502    0 -0.32696696530E+01 -0.34190907508E+02  0.13372651517E+04  0.13377061691E+04  0.00000000000E+00 0. -1.
         22    1    3    3    0    0  0.39137207831E+02  0.38370745830E+02  0.29066103298E+02  0.62039290238E+02  0.00000000000E+00 0. -1.
         22    1    3    3    0    0 -0.72983699604E+02 -0.81115728442E+01 -0.29380912687E+01  0.73491839017E+02  0.00000000000E+00 0. -1.
</event>
<event>
 7    1  0.6188600E-006  0.3087805E+02  0.7818608E-02  0.1606706E+00
          2   -1    0    0  502    0  0.00000000000E+00  0.00000000000E+00  0.11534190395E+04  0.11534190395E+04  0.00000000000E+00 0. -1.
          1   -1    0    0  501    0 -0.00000000000E+00 -0.00000000000E+00 -0.27099923463E+02  0.27099923463E+02  0.00000000000E+00 0. -1.
         25    2    1    2    0    0  0.67147402505E+01  0.29246010780E+01  0.26986897165E+03  0.29750273910E+03  0.12499990754E+03 0.  0.
          2    1    1    2  501    0  0.20584500454E+02 -0.18503694436E+02  0.17453116733E+01  0.27733634446E+02  0.00000000000E+00 0. -1.
          1    1    1    2  502    0 -0.27299240705E+02  0.15579093358E+02  0.85470483270E+03  0.85528258940E+03  0.00000000000E+00 0. -1.
         22    1    3    3    0    0 -0.25329916281E+02  0.51425999524E+01  0.11893007345E+00  0.25846956057E+02  0.00000000000E+00 0.  1.
         22    1    3    3    0    0  0.32044656531E+02 -0.22179988744E+01  0.26975004157E+03  0.27165578304E+03  0.00000000000E+00 0.  1.
</event>
<event>
 7    1  0.6188600E-006  0.4913756E+02  0.7818608E-02  0.1504377E+00
          2   -1    0    0  502    0  0.00000000000E+00  0.00000000000E+00  0.11240422231E+04  0.11240422231E+04  0.00000000000E+00 0. -1.
          1   -1    0    0  501    0 -0.00000000000E+00 -0.00000000000E+00 -0.27268810311E+03  0.27268810311E+03  0.00000000000E+00 0. -1.
         25    2    1    2    0    0  0.37730986312E+02 -0.63901688613E+02 -0.12738587809E+03  0.19328632243E+03  0.12500154945E+03 0.  0.
          2    1    1    2  501    0 -0.10313938460E+02  0.44785485656E+02 -0.10738437394E+03  0.11680548283E+03  0.00000000000E+00 0. -1.
          1    1    1    2  502    0 -0.27417047852E+02  0.19116202957E+02  0.10861243720E+04  0.10866385209E+04  0.00000000000E+00 0. -1.
         22    1    3    3    0    0  0.13556630456E+02 -0.48509450090E+02 -0.14906950911E+03  0.15734887202E+03  0.00000000000E+00 0.  1.
         22    1    3    3    0    0  0.24174355856E+02 -0.15392238523E+02  0.21683631023E+02  0.35937450413E+02  0.00000000000E+00 0.  1.
</event>
<event>
 7    1  0.6188600E-006  0.1522312E+03  0.7818608E-02  0.1203947E+00
          2   -1    0    0  502    0  0.00000000000E+00  0.00000000000E+00  0.51326231378E+03  0.51326231378E+03  0.00000000000E+00 0. -1.
          1   -1    0    0  501    0 -0.00000000000E+00 -0.00000000000E+00 -0.14730691826E+04  0.14730691826E+04  0.00000000000E+00 0. -1.
         25    2    1    2    0    0  0.10468853566E+03  0.93847169955E+02  0.11874071095E+03  0.22246881358E+03  0.12500414302E+03 0.  0.
          2    1    1    2  501    0  0.68162900195E+02 -0.12496804479E+03 -0.13948371941E+04  0.14020820202E+04  0.00000000000E+00 0. -1.
          1    1    1    2  502    0 -0.17285143586E+03  0.31120874834E+02  0.31628961434E+03  0.36178066265E+03  0.00000000000E+00 0. -1.
         22    1    3    3    0    0  0.88485263772E+01 -0.30074215544E+02  0.22852079213E+02  0.38793973553E+02  0.00000000000E+00 0.  1.
         22    1    3    3    0    0  0.95840009284E+02  0.12392138550E+03  0.95888631733E+02  0.18367484003E+03  0.00000000000E+00 0.  1.
</event>
<event>
 7    1  0.6188600E-006  0.6412330E+02  0.7818608E-02  0.1412696E+00
          2   -1    0    0  502    0  0.00000000000E+00  0.00000000000E+00  0.21611445729E+04  0.21611445729E+04  0.00000000000E+00 0. -1.
          1   -1    0    0  501    0 -0.00000000000E+00 -0.00000000000E+00 -0.95094726227E+02  0.95094726227E+02  0.00000000000E+00 0. -1.
         25    2    1    2    0    0  0.10047444762E+03 -0.47874631524E+02  0.26637677896E+03  0.31459547463E+03  0.12500651713E+03 0.  0.
          2    1    1    2  501    0 -0.48452764518E+02  0.12151531979E+02 -0.61595739258E+02  0.79305518179E+02  0.00000000000E+00 0. -1.
          1    1    1    2  502    0 -0.52021683104E+02  0.35723099545E+02  0.18612688069E+04  0.18623383063E+04  0.00000000000E+00 0. -1.
         22    1    3    3    0    0  0.33008023820E+02  0.33046707325E+02  0.29233330305E+02  0.55101743187E+02  0.00000000000E+00 0.  1.
         22    1    3    3    0    0  0.67466423802E+02 -0.80921338849E+02  0.23714344865E+03  0.25949373145E+03  0.00000000000E+00 0.  1.
</event>
<event>
 7    1  0.6188600E-006  0.1113544E+03  0.7818608E-02  0.1423500E+00
          2   -1    0    0  502    0  0.00000000000E+00  0.00000000000E+00  0.19196863228E+04  0.19196863228E+04  0.00000000000E+00 0. -1.
          1   -1    0    0  501    0 -0.00000000000E+00 -0.00000000000E+00 -0.90561272010E+03  0.90561272010E+03  0.00000000000E+00 0. -1.
         25    2    1    2    0    0 -0.19366135701E+02 -0.11543879516E+03 -0.23832709294E+02  0.17289866463E+03  0.12499915024E+03 0.  0.
          2    1    1    2  501    0 -0.67256419729E+01  0.11100421184E+03 -0.80332143607E+03  0.81098242826E+03  0.00000000000E+00 0. -1.
          1    1    1    2  502    0  0.26091777674E+02  0.44345833163E+01  0.18412277481E+04  0.18414179500E+04  0.00000000000E+00 0. -1.
         22    1    3    3    0    0  0.10628338591E+02 -0.32907745914E+02  0.48199584746E+02  0.59321844981E+02  0.00000000000E+00 0.  1.
         22    1    3    3    0    0 -0.29994474292E+02 -0.82531049245E+02 -0.72032294039E+02  0.11357681965E+03  0.00000000000E+00 0.  1.
</event>
<event>
 7    1  0.6188600E-006  0.9383791E+02  0.7818608E-02  0.1474355E+00
          2   -1    0    0  502    0  0.00000000000E+00  0.00000000000E+00  0.98047576283E+03  0.98047576283E+03  0.00000000000E+00 0. -1.
          1   -1    0    0  501    0 -0.00000000000E+00 -0.00000000000E+00 -0.16575566103E+04  0.16575566103E+04  0.00000000000E+00 0. -1.
         25    2    1    2    0    0 -0.90593210653E+02  0.14131393793E+02 -0.14510496069E+04  0.14593074230E+04  0.12500546776E+03 0.  0.
          2    1    1    2  501    0 -0.29720870707E+01 -0.21372042686E+02 -0.19954004584E+03  0.20070333182E+03  0.00000000000E+00 0. -1.
          1    1    1    2  502    0  0.93565297724E+02  0.72406488928E+01  0.97350880528E+03  0.97802161831E+03  0.00000000000E+00 0. -1.
         22    1    3    3    0    0 -0.74307535064E+02  0.24748577936E+02 -0.14231443749E+04  0.14252978684E+04  0.00000000000E+00 0.  1.
         22    1    3    3    0    0 -0.16285675589E+02 -0.10617184143E+02 -0.27905231947E+02  0.34009554519E+02  0.00000000000E+00 0.  1.
</event>
<event>
 7    1  0.6188600E-006  0.2907615E+03  0.7818608E-02  0.1198499E+00
          2   -1    0    0  502    0  0.00000000000E+00  0.00000000000E+00  0.73303229860E+03  0.73303229860E+03  0.00000000000E+00 0. -1.
          1   -1    0    0  501    0 -0.00000000000E+00 -0.00000000000E+00 -0.30298022544E+04  0.30298022544E+04  0.00000000000E+00 0. -1.
         25    2    1    2    0    0  0.23528537596E+03  0.23158672203E+03  0.16428167681E+03  0.38936444113E+03  0.12499832288E+03 0.  0.
          2    1    1    2  501    0 -0.79032802598E+02 -0.21329950308E+01 -0.28744363951E+04  0.28755234868E+04  0.00000000000E+00 0. -1.
          1    1    1    2  502    0 -0.15625257336E+03 -0.22945372700E+03  0.41338476253E+03  0.49794662506E+03  0.00000000000E+00 0. -1.
         22    1    3    3    0    0  0.82654981264E+02  0.56205721027E+02  0.11377523106E+03  0.15144547602E+03  0.00000000000E+00 0.  1.
         22    1    3    3    0    0  0.15263039470E+03  0.17538100101E+03  0.50506445748E+02  0.23791896512E+03  0.00000000000E+00 0.  1.
</event>
<event>
 7    1  0.6188600E-006  0.4573139E+02  0.7818608E-02  0.1547973E+00
          2   -1    0    0  502    0  0.00000000000E+00  0.00000000000E+00  0.21586089138E+04  0.21586089138E+04  0.00000000000E+00 0. -1.
          1   -1    0    0  501    0 -0.00000000000E+00 -0.00000000000E+00 -0.23315052401E+02  0.23315052401E+02  0.00000000000E+00 0. -1.
         25    2    1    2    0    0 -0.14167850501E+02  0.67984316836E+02  0.38580190143E+03  0.41144699472E+03  0.12499170769E+03 0.  0.
          2    1    1    2  501    0 -0.40407404622E+01 -0.26590044417E+02  0.75319422268E+01  0.27930059063E+02  0.00000000000E+00 0. -1.
          1    1    1    2  502    0  0.18208590964E+02 -0.41394272419E+02  0.17419600177E+04  0.17425469124E+04  0.00000000000E+00 0. -1.
         22    1    3    3    0    0 -0.51378161708E+02 -0.12802562182E+02  0.12012968540E+03  0.13128123405E+03  0.00000000000E+00 0.  1.
         22    1    3    3    0    0  0.37210311206E+02  0.80786879018E+02  0.26567221603E+03  0.28016576067E+03  0.00000000000E+00 0.  1.
</event>
<event>
 7    1  0.6188600E-006  0.9156122E+02  0.7818608E-02  0.1424147E+00
          2   -1    0    0  502    0  0.00000000000E+00  0.00000000000E+00  0.17565145321E+04  0.17565145321E+04  0.00000000000E+00 0. -1.
          1   -1    0    0  501    0 -0.00000000000E+00 -0.00000000000E+00 -0.89326860480E+02  0.89326860480E+02  0.00000000000E+00 0. -1.
         25    2    1    2    0    0  0.63542512589E+02  0.56559792244E+02  0.18546812010E+02  0.15234776278E+03  0.12501678121E+03 0.  0.
          2    1    1    2  501    0 -0.92974050666E+02 -0.43926463734E+02  0.96484876000E+02  0.14100723247E+03  0.00000000000E+00 0. -1.
          1    1    1    2  502    0  0.29431538077E+02 -0.12633328510E+02  0.15521559837E+04  0.15524863974E+04  0.00000000000E+00 0. -1.
         22    1    3    3    0    0  0.86141348990E+02  0.79342771203E+02  0.41793757425E+01  0.11718820132E+03  0.00000000000E+00 0. -1.
         22    1    3    3    0    0 -0.22598836401E+02 -0.22782978959E+02  0.14367436268E+02  0.35159561457E+02  0.00000000000E+00 0. -1.
</event>
<event>
 7    1  0.6188600E-006  0.1995242E+03  0.7818608E-02  0.1270434E+00
          2   -1    0    0  502    0  0.00000000000E+00  0.00000000000E+00  0.11111178106E+04  0.11111178106E+04  0.00000000000E+00 0. -1.
          1   -1    0    0  501    0 -0.00000000000E+00 -0.00000000000E+00 -0.23728186744E+03  0.23728186744E+03  0.00000000000E+00 0. -1.
         25    2    1    2    0    0  0.11993775912E+03 -0.10472319250E+03  0.19780475150E+03  0.28302614937E+03  0.12500027361E+03 0.  0.
          2    1    1    2  501    0 -0.13900223722E+03  0.15640829051E+03 -0.13723922459E+03  0.25023944545E+03  0.00000000000E+00 0. -1.
          1    1    1    2  502    0  0.19064478100E+02 -0.51685098006E+02  0.81327041623E+03  0.81513408320E+03  0.00000000000E+00 0. -1.
         22    1    3    3    0    0  0.68925046775E+02 -0.10463537209E+03  0.19519210066E+03  0.23194650100E+03  0.00000000000E+00 0. -1.
         22    1    3    3    0    0  0.51012712346E+02 -0.87820409533E-01  0.26126508358E+01  0.51079648371E+02  0.00000000000E+00 0. -1.
</event>
<event>
 7    1  0.6188600E-006  0.7732575E+02  0.7818608E-02  0.1420167E+00
          2   -1    0    0  502    0  0.00000000000E+00  0.00000000000E+00  0.27227126759E+04  0.27227126759E+04  0.00000000000E+00 0. -1.
          1   -1    0    0  501    0 -0.00000000000E+00 -0.00000000000E+00 -0.63255716774E+03  0.63255716774E+03  0.00000000000E+00 0. -1.
         25    2    1    2    0    0  0.23590920179E+02  0.45517864166E+02  0.23564921750E+03  0.27163344529E+03  0.12500306964E+03 0.  0.
          2    1    1    2  501    0 -0.12680972249E+01 -0.77618917340E+02 -0.61195803713E+03  0.61686217554E+03  0.00000000000E+00 0. -1.
          1    1    1    2  502    0 -0.22322822954E+02  0.32101053174E+02  0.24664643278E+04  0.24667742228E+04  0.00000000000E+00 0. -1.
         22    1    3    3    0    0  0.69305011837E+02  0.11144419431E+01  0.14625275930E+03  0.16184652065E+03  0.00000000000E+00 0. -1.
         22    1    3    3    0    0 -0.45714091658E+02  0.44403422223E+02  0.89396458201E+02  0.10978692463E+03  0.00000000000E+00 0. -1.
</event>
<event>
 7    1  0.6188600E-006  0.1512431E+03  0.7818608E-02  0.1236942E+00
          2   -1    0    0  502    0  0.00000000000E+00  0.00000000000E+00  0.14137632264E+04  0.14137632264E+04  0.00000000000E+00 0. -1.
          1   -1    0    0  501    0 -0.00000000000E+00 -0.00000000000E+00 -0.18760808567E+03  0.18760808567E+03  0.00000000000E+00 0. -1.
         25    2    1    2    0    0  0.95832482714E+02 -0.54773222614E+02  0.26026198110E+03  0.30910535586E+03  0.12500340618E+03 0.  0.
          2    1    1    2  501    0 -0.58538384516E+02  0.14901363931E+03 -0.12098543813E+03  0.20067207928E+03  0.00000000000E+00 0. -1.
          1    1    1    2  502    0 -0.37294098198E+02 -0.94240416696E+02  0.10868785978E+04  0.10915938770E+04  0.00000000000E+00 0. -1.
         22    1    3    3    0    0  0.61460306466E+02  0.34902675025E+02  0.10676499327E+03  0.12804034435E+03  0.00000000000E+00 0.  1.
         22    1    3    3    0    0  0.34372176249E+02 -0.89675897640E+02  0.15349698783E+03  0.18106501150E+03  0.00000000000E+00 0.  1.
</event>
<event>
 7    1  0.6188600E-006  0.1827959E+03  0.7818608E-02  0.1313467E+00
          2   -1    0    0  502    0  0.00000000000E+00  0.00000000000E+00  0.87930494103E+03  0.87930494103E+03  0.00000000000E+00 0. -1.
          1   -1    0    0  501    0 -0.00000000000E+00 -0.00000000000E+00 -0.77849949979E+03  0.77849949979E+03  0.00000000000E+00 0. -1.
         25    2    1    2    0    0  0.15569677856E+03  0.13780026705E+03 -0.95190474203E+02  0.26060789544E+03  0.12499939332E+03 0.  0.
          2    1    1    2  501    0 -0.27440994699E+01 -0.40137565379E+02 -0.58957049408E+03  0.59094155525E+03  0.00000000000E+00 0. -1.
          1    1    1    2  502    0 -0.15295267909E+03 -0.97662701666E+02  0.78556640952E+03  0.80625499013E+03  0.00000000000E+00 0. -1.
         22    1    3    3    0    0  0.56936424102E+02 -0.10680847387E+02  0.11107822502E+01  0.57940234101E+02  0.00000000000E+00 0. -1.
         22    1    3    3    0    0  0.98760354463E+02  0.14848111443E+03 -0.96301256453E+02  0.20266766133E+03  0.00000000000E+00 0. -1.
</event>
<event>
 7    1  0.6188600E-006  0.1035055E+03  0.7818608E-02  0.1355868E+00
          2   -1    0    0  502    0  0.00000000000E+00  0.00000000000E+00  0.69945338826E+03  0.69945338826E+03  0.00000000000E+00 0. -1.
          1   -1    0    0  501    0 -0.00000000000E+00 -0.00000000000E+00 -0.44481891039E+03  0.44481891039E+03  0.00000000000E+00 0. -1.
         25    2    1    2    0    0  0.49292051183E+02  0.10949854455E+03 -0.57445469437E+02  0.18260563480E+03  0.12500079332E+03 0.  0.
          2    1    1    2  501    0 -0.48659610386E+02 -0.62286548113E+01 -0.31871785597E+03  0.32247112357E+03  0.00000000000E+00 0. -1.
          1    1    1    2  502    0 -0.63244079683E+00 -0.10326988974E+03  0.63079780327E+03  0.63919554029E+03  0.00000000000E+00 0. -1.
         22    1    3    3    0    0  0.42858123037E+02  0.87466205633E+02 -0.96624394392E+02  0.13719850375E+03  0.00000000000E+00 0. -1.
         22    1    3    3    0    0  0.64339281451E+01  0.22032338921E+02  0.39178924956E+02  0.45407131052E+02  0.00000000000E+00 0. -1.
</event>
<event>
 7    1  0.6188600E-006  0.2554289E+03  0.7818608E-02  0.1289513E+00
          2   -1    0    0  502    0  0.00000000000E+00  0.00000000000E+00  0.58239410196E+03  0.58239410196E+03  0.00000000000E+00 0. -1.
          1   -1    0    0  501    0 -0.00000000000E+00 -0.00000000000E+00 -0.52510878795E+03  0.52510878795E+03  0.00000000000E+00 0. -1.
         25    2    1    2    0    0  0.23145003062E+03  0.23464833011E+02  0.93989303958E+02  0.28031802674E+03  0.12499796717E+03 0.  0.
          2    1    1    2  501    0 -0.25553498384E+03 -0.50069101053E+02 -0.39171336409E+03  0.47036624289E+03  0.00000000000E+00 0. -1.
          1    1    1    2  502    0  0.24084953220E+02  0.26604268042E+02  0.35500937414E+03  0.35681862028E+03  0.00000000000E+00 0. -1.
         22    1    3    3    0    0  0.26915867477E+02  0.25291780509E+02 -0.24131489585E+02  0.44118781409E+02  0.00000000000E+00 0. -1.
         22    1    3    3    0    0  0.20453416314E+03 -0.18269474978E+01  0.11812079354E+03  0.23619924534E+03  0.00000000000E+00 0. -1.
</event>
<event>
 7    1  0.6188600E-006  0.5658249E+02  0.7818608E-02  0.1419938E+00
          2   -1    0    0  502    0  0.00000000000E+00  0.00000000000E+00  0.19584211432E+04  0.19584211432E+04  0.00000000000E+00 0. -1.
          1   -1    0    0  501    0 -0.00000000000E+00 -0.00000000000E+00 -0.44620310616E+02  0.44620310616E+02  0.00000000000E+00 0. -1.
         25    2    1    2    0    0 -0.30881563226E+02  0.99169176204E+02  0.68294613685E+03  0.70201775743E+03  0.12500123782E+03 0.  0.
          2    1    1    2  501    0  0.34033854283E+00 -0.55209385005E+02 -0.12425796102E+02  0.56591451932E+02  0.00000000000E+00 0. -1.
          1    1    1    2  502    0  0.30541224683E+02 -0.43959791199E+02  0.12432804919E+04  0.12444322445E+04  0.00000000000E+00 0. -1.
         22    1    3    3    0    0 -0.42947217960E+02  0.77812482769E+02  0.66669589184E+03  0.67259397723E+03  0.00000000000E+00 0.  1.
         22    1    3    3    0    0  0.12065654734E+02  0.21356693435E+02  0.16250245004E+02  0.29423780201E+02  0.00000000000E+00 0.  1.
</event>
<event>
 7    1  0.6188600E-006  0.5937209E+02  0.7818608E-02  0.1515936E+00
          2   -1    0    0  502    0  0.00000000000E+00  0.00000000000E+00  0.13750348229E+04  0.13750348229E+04  0.00000000000E+00 0. -1.
          1   -1    0    0  501    0 -0.00000000000E+00 -0.00000000000E+00 -0.34835040623E+03  0.34835040623E+03  0.00000000000E+00 0. -1.
         25    2    1    2    0    0 -0.67629795811E+02  0.14967925254E+02 -0.60651521561E+02  0.15524174192E+03  0.12499425307E+03 0.  0.
          2    1    1    2  501    0  0.49104087203E+02 -0.32603797214E+02 -0.23666549702E+03  0.24389501112E+03  0.00000000000E+00 0. -1.
          1    1    1    2  502    0  0.18525708608E+02  0.17635871960E+02  0.13240014353E+04  0.13242484761E+04  0.00000000000E+00 0. -1.
         22    1    3    3    0    0 -0.89923959814E+02 -0.17322612115E+02 -0.69565014603E+02  0.11500296820E+03  0.00000000000E+00 0.  1.
         22    1    3    3    0    0  0.22294164003E+02  0.32290537369E+02  0.89134930420E+01  0.40238773718E+02  0.00000000000E+00 0.  1.
</event>
<event>
 7    1  0.6188600E-006  0.8760245E+02  0.7818608E-02  0.1414167E+00
          2   -1    0    0  502    0  0.00000000000E+00  0.00000000000E+00  0.17810723662E+04  0.17810723662E+04  0.00000000000E+00 0. -1.
          1   -1    0    0  501    0 -0.00000000000E+00 -0.00000000000E+00 -0.19477261233E+03  0.19477261233E+03  0.00000000000E+00 0. -1.
         25    2    1    2    0    0  0.77298014369E+02  0.45498979357E+01  0.62121490753E+03  0.63837942847E+03  0.12499859503E+03 0.  0.
          2    1    1    2  501    0  0.40218034606E+01  0.35925167992E+02 -0.18262412835E+03  0.18616757198E+03  0.00000000000E+00 0. -1.
          1    1    1    2  502    0 -0.81319817829E+02 -0.40475065928E+02  0.11477089747E+04  0.11512979781E+04  0.00000000000E+00 0. -1.
         22    1    3    3    0    0  0.86356470069E+02  0.42687786672E+02  0.30778447427E+03  0.32250731721E+03  0.00000000000E+00 0.  1.
         22    1    3    3    0    0 -0.90584557007E+01 -0.38137888736E+02  0.31343043326E+03  0.31587211126E+03  0.00000000000E+00 0.  1.
</event>
<event>
 7    1  0.6188600E-006  0.2836863E+03  0.7818608E-02  0.1135734E+00
          2   -1    0    0  502    0  0.00000000000E+00  0.00000000000E+00  0.21909108770E+04  0.21909108770E+04  0.00000000000E+00 0. -1.
          1   -1    0    0  501    0 -0.00000000000E+00 -0.00000000000E+00 -0.50715305108E+03  0.50715305108E+03  0.00000000000E+00 0. -1.
         25    2    1    2    0    0 -0.10632814038E+03  0.23009395493E+03 -0.12521993595E+03  0.30911829599E+03  0.12500074811E+03 0.  0.
          2    1    1    2  501    0  0.27000828275E+03 -0.19793137783E+03 -0.18870821469E+03  0.38430729030E+03  0.00000000000E+00 0. -1.
          1    1    1    2  502    0 -0.16368014237E+03 -0.32162577100E+02  0.19976859766E+04  0.20046383418E+04  0.00000000000E+00 0. -1.
         22    1    3    3    0    0 -0.60057134730E+02  0.22114497104E+03 -0.12692724969E+03  0.26195893640E+03  0.00000000000E+00 0. -1.
         22    1    3    3    0    0 -0.46271005652E+02  0.89489838881E+01  0.17073137428E+01  0.47159359589E+02  0.00000000000E+00 0. -1.
</event>
<event>
 7    1  0.6188600E-006  0.8374000E+02  0.7818608E-02  0.1347822E+00
          2   -1    0    0  502    0  0.00000000000E+00  0.00000000000E+00  0.18778393739E+03  0.18778393739E+03  0.00000000000E+00 0. -1.
          1   -1    0    0  501    0 -0.00000000000E+00 -0.00000000000E+00 -0.10636338459E+04  0.10636338459E+04  0.00000000000E+00 0. -1.
         25    2    1    2    0    0 -0.69320059082E+02  0.38736998513E+02 -0.72566079810E+03  0.74061774368E+03  0.12500089081E+03 0.  0.
          2    1    1    2  501    0  0.48782903419E+02  0.42853236226E+02 -0.31720852267E+03  0.32378606884E+03  0.00000000000E+00 0. -1.
          1    1    1    2  502    0  0.20537155663E+02 -0.81590234739E+02  0.16701941230E+03  0.18701397074E+03  0.00000000000E+00 0. -1.
         22    1    3    3    0    0 -0.85526088875E+02  0.11782409197E+02 -0.67825486369E+03  0.68372742900E+03  0.00000000000E+00 0.  1.
         22    1    3    3    0    0  0.16206029793E+02  0.26954589317E+02 -0.47405934414E+02  0.56890314681E+02  0.00000000000E+00 0.  1.
</event>
<event>
 7    1  0.6188600E-006  0.1893359E+03  0.7818608E-02  0.1176143E+00
          2   -1    0    0  502    0  0.00000000000E+00  0.00000000000E+00  0.14990978209E+04  0.14990978209E+04  0.00000000000E+00 0. -1.
          1   -1    0    0  501    0 -0.00000000000E+00 -0.00000000000E+00 -0.25880684005E+04  0.25880684005E+04  0.00000000000E+00 0. -1.
         25    2    1    2    0    0  0.26789438266E+03 -0.71151314714E+02 -0.58562118188E+03  0.65985414144E+03  0.12500163784E+03 0.  0.
          2    1    1    2  501    0 -0.17526789939E+03 -0.53884160676E+02 -0.19568920427E+04  0.19654640180E+04  0.00000000000E+00 0. -1.
          1    1    1    2  502    0 -0.92626483271E+02  0.12503547539E+03  0.14535426450E+04  0.14618480620E+04  0.00000000000E+00 0. -1.
         22    1    3    3    0    0  0.23816516941E+03 -0.10147106065E+03 -0.53028883999E+03  0.59010615815E+03  0.00000000000E+00 0.  1.
         22    1    3    3    0    0  0.29729213247E+02  0.30319745936E+02 -0.55332341895E+02  0.69747983293E+02  0.00000000000E+00 0.  1.
</event>
<event>
 7    1  0.6188600E-006  0.7107122E+02  0.7818608E-02  0.1438598E+00
          2   -1    0    0  502    0  0.00000000000E+00  0.00000000000E+00  0.11669932601E+03  0.11669932601E+03  0.00000000000E+00 0. -1.
          1   -1    0    0  501    0 -0.00000000000E+00 -0.00000000000E+00 -0.70912410703E+03  0.70912410703E+03  0.00000000000E+00 0. -1.
         25    2    1    2    0    0 -0.10497784733E+03 -0.35888715848E+01 -0.17127967497E+03  0.23664933304E+03  0.12503180131E+03 0.  0.
          2    1    1    2  501    0  0.68581980172E+02 -0.30076688141E+01 -0.49861941891E+03  0.50332281787E+03  0.00000000000E+00 0. -1.
          1    1    1    2  502    0  0.36395867159E+02  0.65965403989E+01  0.77474312860E+02  0.85851282138E+02  0.00000000000E+00 0. -1.
         22    1    3    3    0    0  0.12540016939E+02  0.21013672635E-01 -0.96496757231E+02  0.97308152909E+02  0.00000000000E+00 0.  1.
         22    1    3    3    0    0 -0.11751786427E+03 -0.36098852574E+01 -0.74782917743E+02  0.13934118013E+03  0.00000000000E+00 0.  1.
</event>
<event>
 7    1  0.6188600E-006  0.6238984E+02  0.7818608E-02  0.1416622E+00
          2   -1    0    0  502    0  0.00000000000E+00  0.00000000000E+00  0.50276206858E+03  0.50276206858E+03  0.00000000000E+00 0. -1.
          1   -1    0    0  501    0 -0.00000000000E+00 -0.00000000000E+00 -0.13659553936E+04  0.13659553936E+04  0.00000000000E+00 0. -1.
         25    2    1    2    0    0 -0.48111922697E+02 -0.50863400180E+01 -0.16220153622E+03  0.21041648569E+03  0.12500052454E+03 0.  0.
          2    1    1    2  501    0  0.45174897287E+02 -0.44629610989E+02 -0.11774930519E+04  0.11792041641E+04  0.00000000000E+00 0. -1.
          1    1    1    2  502    0  0.29370254099E+01  0.49715951007E+02  0.47650126307E+03  0.47909681236E+03  0.00000000000E+00 0. -1.
         22    1    3    3    0    0 -0.90626957496E+02 -0.54180531918E+01 -0.12038808026E+03  0.15078425181E+03  0.00000000000E+00 0.  1.
         22    1    3    3    0    0  0.42515034799E+02  0.33171317384E+00 -0.41813455956E+02  0.59632233872E+02  0.00000000000E+00 0.  1.
</event>
<event>
 7    1  0.6188600E-006  0.6736055E+02  0.7818608E-02  0.1379770E+00
          2   -1    0    0  502    0  0.00000000000E+00  0.00000000000E+00  0.10689147933E+04  0.10689147933E+04  0.00000000000E+00 0. -1.
          1   -1    0    0  501    0 -0.00000000000E+00 -0.00000000000E+00 -0.12969267337E+03  0.12969267337E+03  0.00000000000E+00 0. -1.
         25    2    1    2    0    0 -0.70355540314E+02  0.53304802649E+02  0.39988975152E+02  0.15816396652E+03  0.12500167252E+03 0.  0.
          2    1    1    2  501    0  0.34477251555E+01 -0.61711179715E+02 -0.55657949661E+02  0.83174298139E+02  0.00000000000E+00 0. -1.
          1    1    1    2  502    0  0.66907815159E+02  0.84063770657E+01  0.95489109448E+03  0.95726920206E+03  0.00000000000E+00 0. -1.
         22    1    3    3    0    0 -0.17722495140E+01  0.78815255229E+02  0.11637959780E+02  0.79689569160E+02  0.00000000000E+00 0. -1.
         22    1    3    3    0    0 -0.68583290800E+02 -0.25510452580E+02  0.28351015372E+02  0.78474397357E+02  0.00000000000E+00 0. -1.
</event>
<event>
 7    1  0.6188600E-006  0.6850679E+02  0.7818608E-02  0.1389699E+00
          2   -1    0    0  502    0  0.00000000000E+00  0.00000000000E+00  0.29185879934E+04  0.29185879934E+04  0.00000000000E+00 0. -1.
          1   -1    0    0  501    0 -0.00000000000E+00 -0.00000000000E+00 -0.23498362392E+03  0.23498362392E+03  0.00000000000E+00 0. -1.
         25    2    1    2    0    0 -0.52940963511E+02 -0.10794302306E+03  0.22814995088E+02  0.17492768919E+03  0.12499892239E+03 0.  0.
          2    1    1    2  501    0  0.37832628275E+02  0.41393479040E+02 -0.15355393238E+03  0.16347335568E+03  0.00000000000E+00 0. -1.
          1    1    1    2  502    0  0.15108335236E+02  0.66549544022E+02  0.28143433068E+04  0.28151705725E+04  0.00000000000E+00 0. -1.
         22    1    3    3    0    0 -0.42459365705E+02  0.67685599195E+01  0.39683385291E+02  0.58509676188E+02  0.00000000000E+00 0. -1.
         22    1    3    3    0    0 -0.10481597805E+02 -0.11471158298E+03 -0.16868390203E+02  0.11641801300E+03  0.00000000000E+00 0. -1.
</event>
<event>
 7    1  0.6188600E-006  0.1142093E+03  0.7818608E-02  0.1333203E+00
          2   -1    0    0  502    0  0.00000000000E+00  0.00000000000E+00  0.28976580053E+03  0.28976580053E+03  0.00000000000E+00 0. -1.
          1   -1    0    0  501    0 -0.00000000000E+00 -0.00000000000E+00 -0.29458098078E+03  0.29458098078E+03  0.00000000000E+00 0. -1.
         25    2    1    2    0    0  0.66160017851E+02  0.82321702874E+02  0.17900673969E+02  0.16461931611E+03  0.12500029752E+03 0.  0.
          2    1    1    2  501    0 -0.10747020204E+03 -0.47495767187E+02 -0.20133638234E+03  0.23311377283E+03  0.00000000000E+00 0. -1.
          1    1    1    2  502    0  0.41310184188E+02 -0.34825935687E+02  0.17862052813E+03  0.18661369238E+03  0.00000000000E+00 0. -1.
         22    1    3    3    0    0  0.71620479593E+02  0.36617034816E+02 -0.40662571313E+02  0.90131820361E+02  0.00000000000E+00 0. -1.
         22    1    3    3    0    0 -0.54604617426E+01  0.45704668058E+02  0.58563245282E+02  0.74487495747E+02  0.00000000000E+00 0. -1.
</event>
<event>
 7    1  0.6188600E-006  0.7058229E+02  0.7818608E-02  0.1402025E+00
          2   -1    0    0  502    0  0.00000000000E+00  0.00000000000E+00  0.57322221371E+03  0.57322221371E+03  0.00000000000E+00 0. -1.
          1   -1    0    0  501    0 -0.00000000000E+00 -0.00000000000E+00 -0.88793036002E+02  0.88793036002E+02  0.00000000000E+00 0. -1.
         25    2    1    2    0    0  0.24250153581E+02  0.11059004004E+02  0.38787802513E+03  0.40839267163E+03  0.12499936140E+03 0.  0.
          2    1    1    2  501    0 -0.72615500440E+02 -0.13082311070E+01 -0.57009852190E+02  0.92330090542E+02  0.00000000000E+00 0. -1.
          1    1    1    2  502    0  0.48365346859E+02 -0.97507728968E+01  0.15356100477E+03  0.16129248754E+03  0.00000000000E+00 0. -1.
         22    1    3    3    0    0  0.70384077691E+01 -0.48134723877E+02  0.74271754995E+02  0.88785046132E+02  0.00000000000E+00 0.  1.
         22    1    3    3    0    0  0.17211745811E+02  0.59193727881E+02  0.31360627013E+03  0.31960762550E+03  0.00000000000E+00 0.  1.
</event>
<event>
 7    1  0.6188600E-006  0.4208158E+02  0.7818608E-02  0.1550109E+00
          2   -1    0    0  502    0  0.00000000000E+00  0.00000000000E+00  0.16667388808E+04  0.16667388808E+04  0.00000000000E+00 0. -1.
          1   -1    0    0  501    0 -0.00000000000E+00 -0.00000000000E+00 -0.66131250241E+02  0.66131250241E+02  0.00000000000E+00 0. -1.
         25    2    1    2    0    0 -0.65959567304E+00 -0.63400214075E+02  0.94532020450E+03  0.95565449734E+03  0.12500082814E+03 0.  0.
          2    1    1    2  501    0  0.15796580500E+02  0.38864634784E+02 -0.53418851443E+02  0.67923232269E+02  0.00000000000E+00 0. -1.
          1    1    1    2  502    0 -0.15136984827E+02  0.24535579291E+02  0.70870627748E+03  0.70929240141E+03  0.00000000000E+00 0. -1.
         22    1    3    3    0    0  0.17608157707E+02 -0.47788517693E+02  0.91741993648E+03  0.91883248174E+03  0.00000000000E+00 0. -1.
         22    1    3    3    0    0 -0.18267753380E+02 -0.15611696382E+02  0.27900268021E+02  0.36822015604E+02  0.00000000000E+00 0. -1.
</event>
<event>
 7    1  0.6188600E-006  0.5080837E+02  0.7818608E-02  0.1451533E+00
          2   -1    0    0  502    0  0.00000000000E+00  0.00000000000E+00  0.22139587378E+03  0.22139587378E+03  0.00000000000E+00 0. -1.
          1   -1    0    0  501    0 -0.00000000000E+00 -0.00000000000E+00 -0.82113636612E+03  0.82113636612E+03  0.00000000000E+00 0. -1.
         25    2    1    2    0    0 -0.15683052709E+02 -0.62396279312E+01  0.14237028580E+03  0.19020834920E+03  0.12500010691E+03 0.  0.
          2    1    1    2  501    0  0.36030530144E+02 -0.36133779420E+02 -0.78621361358E+03  0.78786781587E+03  0.00000000000E+00 0. -1.
          1    1    1    2  502    0 -0.20347477435E+02  0.42373407351E+02  0.44102835433E+02  0.64456074824E+02  0.00000000000E+00 0. -1.
         22    1    3    3    0    0  0.52926066432E+02  0.13725297685E+02  0.62341914193E+02  0.82922051167E+02  0.00000000000E+00 0. -1.
         22    1    3    3    0    0 -0.68609119141E+02 -0.19964925616E+02  0.80028371606E+02  0.10728629803E+03  0.00000000000E+00 0. -1.
</event>
<event>
 7    1  0.6188600E-006  0.7406243E+02  0.7818608E-02  0.1400420E+00
          2   -1    0    0  502    0  0.00000000000E+00  0.00000000000E+00  0.72586454405E+03  0.72586454405E+03  0.00000000000E+00 0. -1.
          1   -1    0    0  501    0 -0.00000000000E+00 -0.00000000000E+00 -0.37841717826E+03  0.37841717826E+03  0.00000000000E+00 0. -1.
         25    2    1    2    0    0  0.40438093609E+02  0.78988875166E+02  0.24022628842E+02  0.15516504527E+03  0.12499849104E+03 0.  0.
          2    1    1    2  501    0  0.23377775214E+02 -0.41486915586E+02 -0.30886232042E+03  0.31251178780E+03  0.00000000000E+00 0. -1.
          1    1    1    2  502    0 -0.63815868823E+02 -0.37501959579E+02  0.63228705736E+03  0.63660488923E+03  0.00000000000E+00 0. -1.
         22    1    3    3    0    0  0.34649023123E+02 -0.55127906312E+01  0.54781203791E+02  0.65053254743E+02  0.00000000000E+00 0.  1.
         22    1    3    3    0    0  0.57890704861E+01  0.84501665797E+02 -0.30758574949E+02  0.90111790530E+02  0.00000000000E+00 0.  1.
</event>
<event>
 7    1  0.6188600E-006  0.2393104E+02  0.7818608E-02  0.1698392E+00
          2   -1    0    0  502    0  0.00000000000E+00  0.00000000000E+00  0.59780658335E+03  0.59780658335E+03  0.00000000000E+00 0. -1.
          1   -1    0    0  501    0 -0.00000000000E+00 -0.00000000000E+00 -0.26173295106E+03  0.26173295106E+03  0.00000000000E+00 0. -1.
         25    2    1    2    0    0  0.30291893968E+02  0.10680218251E+00  0.30223532319E+03  0.32846686865E+03  0.12500673169E+03 0.  0.
          2    1    1    2  501    0 -0.13068406523E+02 -0.16829001721E+02 -0.24764882404E+03  0.24856375157E+03  0.00000000000E+00 0. -1.
          1    1    1    2  502    0 -0.17223487445E+02  0.16722199538E+02  0.28148713313E+03  0.28250891419E+03  0.00000000000E+00 0. -1.
         22    1    3    3    0    0 -0.35845001228E+02 -0.25444396116E+02  0.50568436946E+02  0.67003344856E+02  0.00000000000E+00 0.  1.
         22    1    3    3    0    0  0.66136895195E+02  0.25551198299E+02  0.25166688624E+03  0.26146352379E+03  0.00000000000E+00 0.  1.
</event>
<event>
 7    1  0.6188600E-006  0.4582990E+02  0.7818608E-02  0.1491069E+00
          2   -1    0    0  502    0  0.00000000000E+00  0.00000000000E+00  0.94844383247E+01  0.94844383247E+01  0.00000000000E+00 0. -1.
          1   -1    0    0  501    0 -0.00000000000E+00 -0.00000000000E+00 -0.18947206963E+04  0.18947206963E+04  0.00000000000E+00 0. -1.
         25    2    1    2    0    0 -0.37711560097E+02 -0.13299085390E+02 -0.11603785906E+04  0.11677766497E+04  0.12499921033E+03 0.  0.
          2    1    1    2  501    0 -0.24211942542E+01  0.39203555091E+02 -0.61954942244E+03  0.62079325686E+03  0.00000000000E+00 0. -1.
          1    1    1    2  502    0  0.40132754351E+02 -0.25904469701E+02 -0.10530824490E+03  0.11563522805E+03  0.00000000000E+00 0. -1.
         22    1    3    3    0    0 -0.42982683577E+02  0.37354141852E+02 -0.26985432847E+03  0.27579739229E+03  0.00000000000E+00 0. -1.
         22    1    3    3    0    0  0.52711234807E+01 -0.50653227242E+02 -0.89052426213E+03  0.89197925739E+03  0.00000000000E+00 0. -1.
</event>
<event>
 7    1  0.6188600E-006  0.6394703E+02  0.7818608E-02  0.1483611E+00
          2   -1    0    0  502    0  0.00000000000E+00  0.00000000000E+00  0.14202798788E+03  0.14202798788E+03  0.00000000000E+00 0. -1.
          1   -1    0    0  501    0 -0.00000000000E+00 -0.00000000000E+00 -0.29117123094E+04  0.29117123094E+04  0.00000000000E+00 0. -1.
         25    2    1    2    0    0 -0.54954452875E+02  0.71019682629E+02 -0.67238838978E+02  0.16795849730E+03  0.12500083255E+03 0.  0.
          2    1    1    2  501    0  0.28904177401E+02 -0.56844901309E+02 -0.27913411781E+04  0.27920695491E+04  0.00000000000E+00 0. -1.
          1    1    1    2  502    0  0.26050275474E+02 -0.14174781320E+02  0.88895695571E+02  0.93712250901E+02  0.00000000000E+00 0. -1.
         22    1    3    3    0    0 -0.61015821550E+02  0.99203292378E+02 -0.28912674285E+02  0.12000069347E+03  0.00000000000E+00 0.  1.
         22    1    3    3    0    0  0.60613686751E+01 -0.28183609749E+02 -0.38326164693E+02  0.47957803836E+02  0.00000000000E+00 0.  1.
</event>
<event>
 7    1  0.6188600E-006  0.9240087E+02  0.7818608E-02  0.1347569E+00
          2   -1    0    0  502    0  0.00000000000E+00  0.00000000000E+00  0.30262774785E+04  0.30262774785E+04  0.00000000000E+00 0. -1.
          1   -1    0    0  501    0 -0.00000000000E+00 -0.00000000000E+00 -0.78668021104E+02  0.78668021104E+02  0.00000000000E+00 0. -1.
         25    2    1    2    0    0 -0.81588823021E+01  0.54357433575E+02  0.31747643097E+03  0.34559938797E+03  0.12500541906E+03 0.  0.
          2    1    1    2  501    0 -0.57017479201E+02  0.15060797676E+02 -0.50124965386E+02  0.77397239718E+02  0.00000000000E+00 0. -1.
          1    1    1    2  502    0  0.65176361503E+02 -0.69418231251E+02  0.26802579918E+04  0.26819488719E+04  0.00000000000E+00 0. -1.
         22    1    3    3    0    0  0.13489294803E+02  0.92080348104E+02  0.21629732561E+03  0.23546822428E+03  0.00000000000E+00 0. -1.
         22    1    3    3    0    0 -0.21648177105E+02 -0.37722914529E+02  0.10117910536E+03  0.11013116369E+03  0.00000000000E+00 0. -1.
</event>
<event>
 7    1  0.6188600E-006  0.8822245E+02  0.7818608E-02  0.1457939E+00
          2   -1    0    0  502    0  0.00000000000E+00  0.00000000000E+00  0.37820309070E+03  0.37820309070E+03  0.00000000000E+00 0. -1.
          1   -1    0    0  501    0 -0.00000000000E+00 -0.00000000000E+00 -0.16273868192E+04  0.16273868192E+04  0.00000000000E+00 0. -1.
         25    2    1    2    0    0 -0.27169591054E+02  0.73469872878E+02 -0.68933582956E+03  0.70494290107E+03  0.12499839585E+03 0.  0.
          2    1    1    2  501    0 -0.25688611441E+02 -0.27121027610E+01 -0.92479951968E+03  0.92516020875E+03  0.00000000000E+00 0. -1.
          1    1    1    2  502    0  0.52858202496E+02 -0.70757770117E+02  0.36495162070E+03  0.37548680010E+03  0.00000000000E+00 0. -1.
         22    1    3    3    0    0  0.48231936401E+02  0.34064537786E+02 -0.21130884569E+03  0.21940405806E+03  0.00000000000E+00 0. -1.
         22    1    3    3    0    0 -0.75401527455E+02  0.39405335092E+02 -0.47802698386E+03  0.48553884301E+03  0.00000000000E+00 0. -1.
</event>
<event>
 7    1  0.6188600E-006  0.1168582E+03  0.7818608E-02  0.1335587E+00
          2   -1    0    0  502    0  0.00000000000E+00  0.00000000000E+00  0.19947666088E+03  0.19947666088E+03  0.00000000000E+00 0. -1.
          1   -1    0    0  501    0 -0.00000000000E+00 -0.00000000000E+00 -0.48384910074E+03  0.48384910074E+03  0.00000000000E+00 0. -1.
         25    2    1    2    0    0  0.33265643802E+02 -0.65378342369E+02 -0.17388596526E+03  0.22637370983E+03  0.12501118703E+03 0.  0.
          2    1    1    2  501    0 -0.51976306882E-01 -0.51718076385E+02 -0.25946774139E+03  0.26457186349E+03  0.00000000000E+00 0. -1.
          1    1    1    2  502    0 -0.33213667495E+02  0.11709641875E+03  0.14898126679E+03  0.19238018829E+03  0.00000000000E+00 0. -1.
         22    1    3    3    0    0  0.51175852140E+02 -0.77897689450E+02 -0.18083686716E+03  0.20344284305E+03  0.00000000000E+00 0.  1.
         22    1    3    3    0    0 -0.17910208337E+02  0.12519347082E+02  0.69509019058E+01  0.22930866781E+02  0.00000000000E+00 0.  1.
</event>
<event>
 7    1  0.6188600E-006  0.3461574E+02  0.7818608E-02  0.1581573E+00
          2   -1    0    0  502    0  0.00000000000E+00  0.00000000000E+00  0.25488028131E+03  0.25488028131E+03  0.00000000000E+00 0. -1.
          1   -1    0    0  501    0 -0.00000000000E+00 -0.00000000000E+00 -0.64449279052E+03  0.64449279052E+03  0.00000000000E+00 0. -1.
         25    2    1    2    0    0  0.52683674981E+01  0.62953405093E+02 -0.17091706397E+03  0.22097464665E+03  0.12500505908E+03 0.  0.
          2    1    1    2  501    0 -0.19065339334E+01 -0.28690423930E+02 -0.44679304781E+03  0.44771732473E+03  0.00000000000E+00 0. -1.
          1    1    1    2  502    0 -0.33618335647E+01 -0.34262981162E+02  0.22809760258E+03  0.23068110045E+03  0.00000000000E+00 0. -1.
         22    1    3    3    0    0  0.10352592284E+02 -0.17896789683E+02  0.98377900962E+01  0.22896579699E+02  0.00000000000E+00 0.  1.
         22    1    3    3    0    0 -0.50842247862E+01  0.80850194775E+02 -0.18075485407E+03  0.19807806695E+03  0.00000000000E+00 0.  1.
</event>
<event>
 7    1  0.6188600E-006  0.2621404E+02  0.7818608E-02  0.1686631E+00
          2   -1    0    0  502    0  0.00000000000E+00  0.00000000000E+00  0.28573851390E+03  0.28573851390E+03  0.00000000000E+00 0. -1.
          1   -1    0    0  501    0 -0.00000000000E+00 -0.00000000000E+00 -0.17121522375E+03  0.17121522375E+03  0.00000000000E+00 0. -1.
         25    2    1    2    0    0  0.17273781222E+02 -0.45780023560E+01  0.18284800738E+02  0.12758300309E+03  0.12499498836E+03 0.  0.
          2    1    1    2  501    0 -0.10759950511E+02  0.24244163813E+02 -0.11454277906E+03  0.11757382468E+03  0.00000000000E+00 0. -1.
          1    1    1    2  502    0 -0.65138307109E+01 -0.19666161457E+02  0.21078126848E+03  0.21179690989E+03  0.00000000000E+00 0. -1.
         22    1    3    3    0    0  0.74504921415E+01  0.33119736515E+02 -0.43110006686E+02  0.54871663511E+02  0.00000000000E+00 0. -1.
         22    1    3    3    0    0  0.98232890808E+01 -0.37697738871E+02  0.61394807425E+02  0.72711339577E+02  0.00000000000E+00 0. -1.
</event>
<event>
 7    1  0.6188600E-006  0.4985176E+02  0.7818608E-02  0.1473220E+00
          2   -1    0    0  502    0  0.00000000000E+00  0.00000000000E+00  0.30669216891E+03  0.30669216891E+03  0.00000000000E+00 0. -1.
          1   -1    0    0  501    0 -0.00000000000E+00 -0.00000000000E+00 -0.40266136883E+03  0.40266136883E+03  0.00000000000E+00 0. -1.
         25    2    1    2    0    0 -0.20696523953E+01  0.56885559059E+00 -0.23315027909E+03  0.26455433810E+03  0.12500135243E+03 0.  0.
          2    1    1    2  501    0  0.51828391294E+02 -0.36129112265E+01 -0.14719073019E+03  0.15609082717E+03  0.00000000000E+00 0. -1.
          1    1    1    2  502    0 -0.49758738898E+02  0.30440556359E+01  0.28437180937E+03  0.28870837247E+03  0.00000000000E+00 0. -1.
         22    1    3    3    0    0  0.62418292281E+01 -0.41926003136E+02 -0.21231000727E+03  0.21650009090E+03  0.00000000000E+00 0. -1.
         22    1    3    3    0    0 -0.83114816234E+01  0.42494858727E+02 -0.20840271823E+02  0.48054247207E+02  0.00000000000E+00 0. -1.
</event>
<event>
 7    1  0.6188600E-006  0.2485489E+02  0.7818608E-02  0.1696326E+00
          2   -1    0    0  502    0  0.00000000000E+00  0.00000000000E+00  0.18891179093E+04  0.18891179093E+04  0.00000000000E+00 0. -1.
          1   -1    0    0  501    0 -0.00000000000E+00 -0.00000000000E+00 -0.14697271831E+02  0.14697271831E+02  0.00000000000E+00 0. -1.
         25    2    1    2    0    0  0.18053878819E+02 -0.13843695315E+01  0.67592721823E+03  0.68762713365E+03  0.12500244621E+03 0.  0.
          2    1    1    2  501    0 -0.49843546616E+01 -0.20134490616E+02  0.36276966631E+01  0.21057105376E+02  0.00000000000E+00 0. -1.
          1    1    1    2  502    0 -0.13069524158E+02  0.21518860147E+02  0.11948657226E+04  0.11951309421E+04  0.00000000000E+00 0. -1.
         22    1    3    3    0    0 -0.44488345486E+02  0.28854991785E+02  0.21218592403E+03  0.21871143041E+03  0.00000000000E+00 0.  1.
         22    1    3    3    0    0  0.62542224306E+02 -0.30239361317E+02  0.46374129421E+03  0.46891570324E+03  0.00000000000E+00 0.  1.
</event>
<event>
 7    1  0.6188600E-006  0.1274048E+03  0.7818608E-02  0.1290411E+00
          2   -1    0    0  502    0  0.00000000000E+00  0.00000000000E+00  0.18050969508E+04  0.18050969508E+04  0.00000000000E+00 0. -1.
          1   -1    0    0  501    0 -0.00000000000E+00 -0.00000000000E+00 -0.36375468392E+03  0.36375468392E+03  0.00000000000E+00 0. -1.
         25    2    1    2    0    0  0.25965182242E+02  0.19225062804E+03  0.12782600228E+03  0.26381641942E+03  0.12500048651E+03 0.  0.
          2    1    1    2  501    0 -0.23961829373E+02 -0.67201997458E+02 -0.28898460347E+03  0.29766151712E+03  0.00000000000E+00 0. -1.
          1    1    1    2  502    0 -0.20033528685E+01 -0.12504863058E+03  0.16025008681E+04  0.16073736982E+04  0.00000000000E+00 0. -1.
         22    1    3    3    0    0  0.72748837019E+02  0.14153277032E+03  0.10692271257E+03  0.19171954732E+03  0.00000000000E+00 0.  1.
         22    1    3    3    0    0 -0.46783654778E+02  0.50717857721E+02  0.20903289714E+02  0.72096872103E+02  0.00000000000E+00 0.  1.
</event>
<event>
 7    1  0.6188600E-006  0.8302417E+02  0.7818608E-02  0.1392028E+00
          2   -1    0    0  502    0  0.00000000000E+00  0.00000000000E+00  0.28061696347E+04  0.28061696347E+04  0.00000000000E+00 0. -1.
          1   -1    0    0  501    0 -0.00000000000E+00 -0.00000000000E+00 -0.14683290125E+03  0.14683290125E+03  0.00000000000E+00 0. -1.
         25    2    1    2    0    0  0.33609833061E+02 -0.36342268454E+02  0.21195318266E+02  0.13610870986E+03  0.12500383205E+03 0.  0.
          2    1    1    2  501    0 -0.73483631321E+02  0.58082927328E+02 -0.64592093287E+02  0.11377877234E+03  0.00000000000E+00 0. -1.
          1    1    1    2  502    0  0.39873798261E+02 -0.21740658874E+02  0.27027335085E+04  0.27031150538E+04  0.00000000000E+00 0. -1.
         22    1    3    3    0    0  0.80509815212E+02 -0.34042218972E+02  0.11534598635E+02  0.88168871966E+02  0.00000000000E+00 0. -1.
         22    1    3    3    0    0 -0.46899982151E+02 -0.23000494820E+01  0.96607196306E+01  0.47939837893E+02  0.00000000000E+00 0. -1.
</event>
<event>
 7    1  0.6188600E-006  0.4048517E+02  0.7818608E-02  0.1520380E+00
          2   -1    0    0  502    0  0.00000000000E+00  0.00000000000E+00  0.45958207118E+03  0.45958207118E+03  0.00000000000E+00 0. -1.
          1   -1    0    0  501    0 -0.00000000000E+00 -0.00000000000E+00 -0.26512149406E+04  0.26512149406E+04  0.00000000000E+00 0. -1.
         25    2    1    2    0    0  0.51249273477E+02 -0.32717532442E+02  0.10256317001E+03  0.17274648521E+03  0.12500087739E+03 0.  0.
          2    1    1    2  501    0 -0.36134121894E+02 -0.44689264546E+01 -0.26147447567E+04  0.26149982387E+04  0.00000000000E+00 0. -1.
          1    1    1    2  502    0 -0.15115151583E+02  0.37186458896E+02  0.32054871726E+03  0.32305228782E+03  0.00000000000E+00 0. -1.
         22    1    3    3    0    0  0.61413938346E+02 -0.31472933625E+02  0.12794925488E+03  0.14537272509E+03  0.00000000000E+00 0.  1.
         22    1    3    3    0    0 -0.10164664869E+02 -0.12445988169E+01 -0.25386084869E+02  0.27373760120E+02  0.00000000000E+00 0.  1.
</event>
<event>
 7    1  0.6188600E-006  0.1848265E+03  0.7818608E-02  0.1338362E+00
          2   -1    0    0  502    0  0.00000000000E+00  0.00000000000E+00  0.61020816546E+03  0.61020816546E+03  0.00000000000E+00 0. -1.
          1   -1    0    0  501    0 -0.00000000000E+00 -0.00000000000E+00 -0.73211307909E+03  0.73211307909E+03  0.00000000000E+00 0. -1.
         25    2    1    2    0    0  0.18120062472E+02  0.16339028781E+03 -0.11329200147E+03  0.23555188828E+03  0.12499956664E+03 0.  0.
          2    1    1    2  501    0  0.26323810198E+02  0.18051995979E+02 -0.54131869965E+03  0.54225893458E+03  0.00000000000E+00 0. -1.
          1    1    1    2  502    0 -0.44443872670E+02 -0.18144228379E+03  0.53270578750E+03  0.56451042169E+03  0.00000000000E+00 0. -1.
         22    1    3    3    0    0  0.49970861632E+02  0.54737017356E+02  0.17504483948E+01  0.74136982342E+02  0.00000000000E+00 0.  1.
         22    1    3    3    0    0 -0.31850799160E+02  0.10865327046E+03 -0.11504244987E+03  0.16141490594E+03  0.00000000000E+00 0.  1.
</event>
<event>
 7    1  0.6188600E-006  0.5324719E+02  0.7818608E-02  0.1514152E+00
          2   -1    0    0  502    0  0.00000000000E+00  0.00000000000E+00  0.15349271604E+04  0.15349271604E+04  0.00000000000E+00 0. -1.
          1   -1    0    0  501    0 -0.00000000000E+00 -0.00000000000E+00 -0.37956477744E+03  0.37956477744E+03  0.00000000000E+00 0. -1.
         25    2    1    2    0    0  0.25698451120E+02 -0.70875167635E+02  0.10815438339E+04  0.10913486430E+04  0.12498438338E+03 0.  0.
          2    1    1    2  501    0 -0.36611367786E+01  0.28631420290E+02 -0.37283748685E+03  0.37395314379E+03  0.00000000000E+00 0. -1.
          1    1    1    2  502    0 -0.22037314342E+02  0.42243747345E+02  0.44665603592E+03  0.44919015109E+03  0.00000000000E+00 0. -1.
         22    1    3    3    0    0 -0.46371930818E+02 -0.25942979599E+02  0.60214680194E+03  0.60448669567E+03  0.00000000000E+00 0.  1.
         22    1    3    3    0    0  0.72070381939E+02 -0.44932188036E+02  0.47939703199E+03  0.48686194732E+03  0.00000000000E+00 0.  1.
</event>
<event>
 7    1  0.6188600E-006  0.7076081E+02  0.7818608E-02  0.1415244E+00
          2   -1    0    0  502    0  0.00000000000E+00  0.00000000000E+00  0.50913382613E+03  0.50913382613E+03  0.00000000000E+00 0. -1.
          1   -1    0    0  501    0 -0.00000000000E+00 -0.00000000000E+00 -0.41738748828E+03  0.41738748828E+03  0.00000000000E+00 0. -1.
         25    2    1    2    0    0  0.10173499905E+02  0.58633715054E+02  0.68921955586E+02  0.15465241665E+03  0.12500288545E+03 0.  0.
          2    1    1    2  501    0 -0.44036862586E+02  0.55194264352E+01 -0.36987365211E+03  0.37252681496E+03  0.00000000000E+00 0. -1.
          1    1    1    2  502    0  0.33863362680E+02 -0.64153141489E+02  0.39269803437E+03  0.39934208280E+03  0.00000000000E+00 0. -1.
         22    1    3    3    0    0 -0.19196886879E+02 -0.26063659014E+02  0.55160430572E+02  0.63957078482E+02  0.00000000000E+00 0. -1.
         22    1    3    3    0    0  0.29370386785E+02  0.84697374068E+02  0.13761525014E+02  0.90695338163E+02  0.00000000000E+00 0. -1.
</event>
<event>
 7    1  0.6188600E-006  0.1315127E+03  0.7818608E-02  0.1428665E+00
          2   -1    0    0  502    0  0.00000000000E+00  0.00000000000E+00  0.46887772906E+03  0.46887772906E+03  0.00000000000E+00 0. -1.
          1   -1    0    0  501    0 -0.00000000000E+00 -0.00000000000E+00 -0.84048577141E+03  0.84048577141E+03  0.00000000000E+00 0. -1.
         25    2    1    2    0    0 -0.64621577498E+02  0.93731873692E+02  0.75837244018E+01  0.16925230821E+03  0.12500887383E+03 0.  0.
          2    1    1    2  501    0 -0.17885745112E+02  0.12010247600E+02 -0.74767101904E+03  0.74798134913E+03  0.00000000000E+00 0. -1.
          1    1    1    2  502    0  0.82507322610E+02 -0.10574212129E+03  0.36847925229E+03  0.39212984313E+03  0.00000000000E+00 0. -1.
         22    1    3    3    0    0  0.83602128852E+01  0.57026087836E+02 -0.44110146896E+02  0.72578047043E+02  0.00000000000E+00 0. -1.
         22    1    3    3    0    0 -0.72981790383E+02  0.36705785856E+02  0.51693871298E+02  0.96674261169E+02  0.00000000000E+00 0. -1.
</event>
<event>
 7    1  0.6188600E-006  0.8527785E+02  0.7818608E-02  0.1316774E+00
          2   -1    0    0  502    0  0.00000000000E+00  0.00000000000E+00  0.21165005977E+04  0.21165005977E+04  0.00000000000E+00 0. -1.
          1   -1    0    0  501    0 -0.00000000000E+00 -0.00000000000E+00 -0.41502200693E+03  0.41502200693E+03  0.00000000000E+00 0. -1.
         25    2    1    2    0    0  0.48367450770E+01  0.25108726531E+02  0.24254499983E+03  0.27404171547E+03  0.12496776634E+03 0.  0.
          2    1    1    2  501    0  0.83629829002E+02 -0.16684243736E+02 -0.39364289903E+03  0.40277418517E+03  0.00000000000E+00 0. -1.
          1    1    1    2  502    0 -0.88466574079E+02 -0.84244827945E+01  0.18525764900E+04  0.18547067040E+04  0.00000000000E+00 0. -1.
         22    1    3    3    0    0 -0.38509957656E+02  0.60211412771E+02  0.12674368886E+03  0.14550736659E+03  0.00000000000E+00 0. -1.
         22    1    3    3    0    0  0.43346702733E+02 -0.35102686240E+02  0.11580131097E+03  0.12853434888E+03  0.00000000000E+00 0. -1.
</event>
<event>
 7    1  0.6188600E-006  0.2048799E+03  0.7818608E-02  0.1359619E+00
          2   -1    0    0  502    0  0.00000000000E+00  0.00000000000E+00  0.10946866434E+04  0.10946866434E+04  0.00000000000E+00 0. -1.
          1   -1    0    0  501    0 -0.00000000000E+00 -0.00000000000E+00 -0.14084026788E+04  0.14084026788E+04  0.00000000000E+00 0. -1.
         25    2    1    2    0    0  0.13790448007E+03 -0.12160241574E+03  0.37452204658E+02  0.22545998665E+03  0.12499897923E+03 0.  0.
          2    1    1    2  501    0 -0.14829463717E+03  0.14324991065E+03 -0.13061611527E+04  0.13223345995E+04  0.00000000000E+00 0. -1.
          1    1    1    2  502    0  0.10390157104E+02 -0.21647494905E+02  0.95499291265E+03  0.95529473599E+03  0.00000000000E+00 0. -1.
         22    1    3    3    0    0  0.67489018988E+02 -0.46351536546E+02  0.79531088347E+02  0.11414213349E+03  0.00000000000E+00 0.  1.
         22    1    3    3    0    0  0.70415461080E+02 -0.75250879196E+02 -0.42078883688E+02  0.11131785316E+03  0.00000000000E+00 0.  1.
</event>
<event>
 7    1  0.6188600E-006  0.6452697E+02  0.7818608E-02  0.1538561E+00
          2   -1    0    0  502    0  0.00000000000E+00  0.00000000000E+00  0.19141982012E+04  0.19141982012E+04  0.00000000000E+00 0. -1.
          1   -1    0    0  501    0 -0.00000000000E+00 -0.00000000000E+00 -0.40947373023E+03  0.40947373023E+03  0.00000000000E+00 0. -1.
         25    2    1    2    0    0  0.41806396385E+02  0.29245567173E+02  0.76848672259E+03  0.78025651132E+03  0.12500121070E+03 0.  0.
          2    1    1    2  501    0 -0.41470127298E+02 -0.49502836947E+02 -0.40091476287E+03  0.40608244164E+03  0.00000000000E+00 0. -1.
          1    1    1    2  502    0 -0.33626908650E+00  0.20257269774E+02  0.11371525112E+04  0.11373329784E+04  0.00000000000E+00 0. -1.
         22    1    3    3    0    0  0.10082006078E+01  0.61889456076E+02  0.61526490041E+03  0.61837061615E+03  0.00000000000E+00 0.  1.
         22    1    3    3    0    0  0.40798195777E+02 -0.32643888903E+02  0.15322182219E+03  0.16188589517E+03  0.00000000000E+00 0.  1.
</event>
<event>
 7    1  0.6188600E-006  0.1917272E+03  0.7818608E-02  0.1262238E+00
          2   -1    0    0  502    0  0.00000000000E+00  0.00000000000E+00  0.48831486087E+03  0.48831486087E+03  0.00000000000E+00 0. -1.
          1   -1    0    0  501    0 -0.00000000000E+00 -0.00000000000E+00 -0.20715143794E+04  0.20715143794E+04  0.00000000000E+00 0. -1.
         25    2    1    2    0    0 -0.95608774286E+02 -0.22638160287E+03  0.15624876796E+02  0.27614861723E+03  0.12499701669E+03 0.  0.
          2    1    1    2  501    0  0.51140048803E+02  0.18305365810E+03 -0.19337404012E+04  0.19430583845E+04  0.00000000000E+00 0. -1.
          1    1    1    2  502    0  0.44468725483E+02  0.43327944767E+02  0.33491600592E+03  0.34062223850E+03  0.00000000000E+00 0. -1.
         22    1    3    3    0    0 -0.99598904258E+02 -0.23530641153E+03  0.31554628221E+02  0.25745823662E+03  0.00000000000E+00 0. -1.
         22    1    3    3    0    0  0.39901299728E+01  0.89248086639E+01 -0.15929751425E+02  0.18690380610E+02  0.00000000000E+00 0. -1.
</event>
<event>
 7    1  0.1132473E-005  0.1331943E+03  0.7818608E-02  0.1323307E+00
          2   -1    0    0  502    0  0.00000000000E+00  0.00000000000E+00  0.20002088979E+04  0.20002088979E+04  0.00000000000E+00 0. -1.
          1   -1    0    0  501    0 -0.00000000000E+00 -0.00000000000E+00 -0.16277019988E+04  0.16277019988E+04  0.00000000000E+00 0. -1.
         25    2    1    2    0    0  0.77365369671E+02 -0.46928940719E+02 -0.27236562817E+03  0.31304804704E+03  0.12501327309E+03 0.  0.
          2    1    1    2  501    0 -0.12159499283E+03  0.71416290876E+02 -0.13309470017E+04  0.13383966341E+04  0.00000000000E+00 0. -1.
          1    1    1    2  502    0  0.44229623162E+02 -0.24487350157E+02  0.19758195290E+04  0.19764662155E+04  0.00000000000E+00 0. -1.
         22    1    3    3    0    0  0.86055545912E+02 -0.50194852412E+02 -0.28235244490E+03  0.29941273074E+03  0.00000000000E+00 0. -1.
         22    1    3    3    0    0 -0.86901762408E+01  0.32659116931E+01  0.99868167289E+01  0.13635316302E+02  0.00000000000E+00 0. -1.
</event>
<event>
 7    1  0.6188600E-006  0.5911662E+02  0.7818608E-02  0.1434850E+00
          2   -1    0    0  502    0  0.00000000000E+00  0.00000000000E+00  0.96830004613E+02  0.96830004613E+02  0.00000000000E+00 0. -1.
          1   -1    0    0  501    0 -0.00000000000E+00 -0.00000000000E+00 -0.74285396510E+03  0.74285396510E+03  0.00000000000E+00 0. -1.
         25    2    1    2    0    0 -0.76753885222E+01  0.49656575696E+02 -0.85548002944E+02  0.15958227475E+03  0.12499341786E+03 0.  0.
          2    1    1    2  501    0  0.45735717789E+02 -0.42934347925E+00 -0.60300156861E+03  0.60473368681E+03  0.00000000000E+00 0. -1.
          1    1    1    2  502    0 -0.38060329267E+02 -0.49227232217E+02  0.42525611067E+02  0.75368008149E+02  0.00000000000E+00 0. -1.
         22    1    3    3    0    0  0.40439959739E+02  0.50148984741E+02 -0.35649061324E+01  0.64521465962E+02  0.00000000000E+00 0.  1.
         22    1    3    3    0    0 -0.48115348261E+02 -0.49240904427E+00 -0.81983096811E+02  0.95060808790E+02  0.00000000000E+00 0.  1.
</event>
<event>
 7    1  0.6188600E-006  0.4014296E+02  0.7818608E-02  0.1510778E+00
          2   -1    0    0  502    0  0.00000000000E+00  0.00000000000E+00  0.25082225443E+02  0.25082225443E+02  0.00000000000E+00 0. -1.
          1   -1    0    0  501    0 -0.00000000000E+00 -0.00000000000E+00 -0.22734582746E+04  0.22734582746E+04  0.00000000000E+00 0. -1.
         25    2    1    2    0    0 -0.10926077016E+02 -0.26067548003E+02 -0.39594259805E+03  0.41616645125E+03  0.12500031191E+03 0.  0.
          2    1    1    2  501    0 -0.30212770419E+02  0.26431908926E+02 -0.18384999030E+04  0.18389381041E+04  0.00000000000E+00 0. -1.
          1    1    1    2  502    0  0.41138847435E+02 -0.36436092235E+00 -0.13933548053E+02  0.43435944660E+02  0.00000000000E+00 0. -1.
         22    1    3    3    0    0  0.32498302041E+02 -0.25740574020E+02 -0.35183558265E+03  0.35426966283E+03  0.00000000000E+00 0.  1.
         22    1    3    3    0    0 -0.43424379057E+02 -0.32697398378E+00 -0.44107015399E+02  0.61896788413E+02  0.00000000000E+00 0.  1.
</event>
<event>
 7    1  0.6188600E-006  0.8002257E+02  0.7818608E-02  0.1453437E+00
          2   -1    0    0  502    0  0.00000000000E+00  0.00000000000E+00  0.82802311153E+03  0.82802311153E+03  0.00000000000E+00 0. -1.
          1   -1    0    0  501    0 -0.00000000000E+00 -0.00000000000E+00 -0.12686287668E+03  0.12686287668E+03  0.00000000000E+00 0. -1.
         25    2    1    2    0    0  0.57133755725E+02 -0.14699028833E+02  0.15429537883E+03  0.20715331241E+03  0.12500041369E+03 0.  0.
          2    1    1    2  501    0  0.14662550586E+02 -0.25518427942E+02 -0.95595438920E+02  0.10002333976E+03  0.00000000000E+00 0. -1.
          1    1    1    2  502    0 -0.71796306310E+02  0.40217456775E+02  0.64246029493E+03  0.64770933604E+03  0.00000000000E+00 0. -1.
         22    1    3    3    0    0 -0.33569543805E+02  0.14227869814E+01  0.86426116036E+02  0.92727623323E+02  0.00000000000E+00 0. -1.
         22    1    3    3    0    0  0.90703299530E+02 -0.16121815814E+02  0.67869262797E+02  0.11442568909E+03  0.00000000000E+00 0. -1.
</event>
<event>
 7    1  0.6188600E-006  0.9849148E+02  0.7818608E-02  0.1379005E+00
          2   -1    0    0  502    0  0.00000000000E+00  0.00000000000E+00  0.15852417349E+04  0.15852417349E+04  0.00000000000E+00 0. -1.
          1   -1    0    0  501    0 -0.00000000000E+00 -0.00000000000E+00 -0.50751412158E+03  0.50751412158E+03  0.00000000000E+00 0. -1.
         25    2    1    2    0    0  0.38037912592E+02  0.13031984020E+03  0.73044491486E+03  0.75339535945E+03  0.12499860179E+03 0.  0.
          2    1    1    2  501    0 -0.10777358865E+02 -0.97667318799E+02 -0.49062803797E+03  0.50037079079E+03  0.00000000000E+00 0. -1.
          1    1    1    2  502    0 -0.27260553728E+02 -0.32652521397E+02  0.83791073644E+03  0.83898970624E+03  0.00000000000E+00 0. -1.
         22    1    3    3    0    0 -0.44437999454E+00  0.12745024635E+03  0.37938382907E+03  0.40021975529E+03  0.00000000000E+00 0. -1.
         22    1    3    3    0    0  0.38482292587E+02  0.28695938420E+01  0.35106108579E+03  0.35317560415E+03  0.00000000000E+00 0. -1.
</event>
<event>
 7    1  0.6188600E-006  0.1023136E+03  0.7818608E-02  0.1392542E+00
          2   -1    0    0  502    0  0.00000000000E+00  0.00000000000E+00  0.18512241619E+04  0.18512241619E+04  0.00000000000E+00 0. -1.
          1   -1    0    0  501    0 -0.00000000000E+00 -0.00000000000E+00 -0.19263396090E+03  0.19263396090E+03  0.00000000000E+00 0. -1.
         25    2    1    2    0    0  0.13097860238E+03  0.38018724828E+02  0.13103659549E+04  0.13233611175E+04  0.12499957531E+03 0.  0.
          2    1    1    2  501    0 -0.10041026040E+03 -0.17705935116E+02 -0.17147798188E+03  0.19950042306E+03  0.00000000000E+00 0. -1.
          1    1    1    2  502    0 -0.30568341979E+02 -0.20312789712E+02  0.51970222793E+03  0.52099658221E+03  0.00000000000E+00 0. -1.
         22    1    3    3    0    0  0.22835801260E+02  0.67163266805E+02  0.41533670480E+03  0.42135134577E+03  0.00000000000E+00 0. -1.
         22    1    3    3    0    0  0.10814280112E+03 -0.29144541977E+02  0.89502925012E+03  0.90200977175E+03  0.00000000000E+00 0. -1.
</event>
<event>
 7    1  0.6188600E-006  0.1168360E+03  0.7818608E-02  0.1346802E+00
          2   -1    0    0  502    0  0.00000000000E+00  0.00000000000E+00  0.14654006686E+03  0.14654006686E+03  0.00000000000E+00 0. -1.
          1   -1    0    0  501    0 -0.00000000000E+00 -0.00000000000E+00 -0.68225090677E+03  0.68225090677E+03  0.00000000000E+00 0. -1.
         25    2    1    2    0    0 -0.69228467916E+02  0.47120379893E+02 -0.73308962735E+02  0.16736677753E+03  0.12499809292E+03 0.  0.
          2    1    1    2  501    0  0.78758598735E+02 -0.93089881198E+02 -0.54929129191E+03  0.56266292416E+03  0.00000000000E+00 0. -1.
          1    1    1    2  502    0 -0.95301308183E+01  0.45969501305E+02  0.86889414730E+02  0.98761271943E+02  0.00000000000E+00 0. -1.
         22    1    3    3    0    0 -0.73558273584E+02  0.84954744663E+02 -0.54468157010E+02  0.12487957552E+03  0.00000000000E+00 0. -1.
         22    1    3    3    0    0  0.43298056677E+01 -0.37834364769E+02 -0.18840805725E+02  0.42487202014E+02  0.00000000000E+00 0. -1.
</event>
<event>
 7    1  0.6188600E-006  0.1171385E+03  0.7818608E-02  0.1275141E+00
          2   -1    0    0  502    0  0.00000000000E+00  0.00000000000E+00  0.18478948650E+04  0.18478948650E+04  0.00000000000E+00 0. -1.
          1   -1    0    0  501    0 -0.00000000000E+00 -0.00000000000E+00 -0.25998187562E+03  0.25998187562E+03  0.00000000000E+00 0. -1.
         25    2    1    2    0    0 -0.30496720245E+00  0.14551186726E+03  0.31480972383E+03  0.36865471750E+03  0.12500936763E+03 0.  0.
          2    1    1    2  501    0 -0.71996651979E+02 -0.92460773047E+02 -0.21689487265E+03  0.24652768249E+03  0.00000000000E+00 0. -1.
          1    1    1    2  502    0  0.72301619181E+02 -0.53051094218E+02  0.14899981382E+04  0.14926943406E+04  0.00000000000E+00 0. -1.
         22    1    3    3    0    0  0.98172462033E+01  0.16740212856E+03  0.27305718649E+03  0.32043732314E+03  0.00000000000E+00 0. -1.
         22    1    3    3    0    0 -0.10122213406E+02 -0.21890261296E+02  0.41752537346E+02  0.48217394358E+02  0.00000000000E+00 0. -1.
</event>
<event>
 7    1  0.6188600E-006  0.1201920E+03  0.7818608E-02  0.1295574E+00
          2   -1    0    0  502    0  0.00000000000E+00  0.00000000000E+00  0.28333904920E+04  0.28333904920E+04  0.00000000000E+00 0. -1.
          1   -1    0    0  501    0 -0.00000000000E+00 -0.00000000000E+00 -0.70451160647E+03  0.70451160647E+03  0.00000000000E+00 0. -1.
         25    2    1    2    0    0 -0.81791422795E+02  0.10465260784E+03  0.13532674154E+03  0.22711341788E+03  0.12500068975E+03 0.  0.
          2    1    1    2  501    0  0.11346409135E+02 -0.11988938913E+03 -0.65261869919E+03  0.66363647667E+03  0.00000000000E+00 0. -1.
          1    1    1    2  502    0  0.70445013660E+02  0.15236781292E+02  0.26461708432E+04  0.26471522039E+04  0.00000000000E+00 0. -1.
         22    1    3    3    0    0 -0.23336607919E+02  0.11725526185E+03  0.69955457267E+02  0.13851772342E+03  0.00000000000E+00 0. -1.
         22    1    3    3    0    0 -0.58454814875E+02 -0.12602654008E+02  0.65371284273E+02  0.88595694465E+02  0.00000000000E+00 0. -1.
</event>
<event>
 7    1  0.6188600E-006  0.7599080E+02  0.7818608E-02  0.1406910E+00
          2   -1    0    0  502    0  0.00000000000E+00  0.00000000000E+00  0.13077003928E+04  0.13077003928E+04  0.00000000000E+00 0. -1.
          1   -1    0    0  501    0 -0.00000000000E+00 -0.00000000000E+00 -0.11410864176E+03  0.11410864176E+03  0.00000000000E+00 0. -1.
         25    2    1    2    0    0  0.52868768686E+02 -0.19655351292E+02  0.62696672272E+03  0.64178970543E+03  0.12500126027E+03 0.  0.
          2    1    1    2  501    0  0.31491449927E+02  0.30871461865E+02 -0.99313892903E+02  0.10866465801E+03  0.00000000000E+00 0. -1.
          1    1    1    2  502    0 -0.84360218613E+02 -0.11216110574E+02  0.66593892118E+03  0.67135467107E+03  0.00000000000E+00 0. -1.
         22    1    3    3    0    0 -0.30711640138E+02 -0.13537452014E+02  0.60750313834E+02  0.69405101238E+02  0.00000000000E+00 0. -1.
         22    1    3    3    0    0  0.83580408824E+02 -0.61178992771E+01  0.56621640888E+03  0.57238460419E+03  0.00000000000E+00 0. -1.
</event>
<event>
 7    1  0.6188600E-006  0.1202266E+03  0.7818608E-02  0.1421933E+00
          2   -1    0    0  502    0  0.00000000000E+00  0.00000000000E+00  0.11063070697E+04  0.11063070697E+04  0.00000000000E+00 0. -1.
          1   -1    0    0  501    0 -0.00000000000E+00 -0.00000000000E+00 -0.23461816298E+03  0.23461816298E+03  0.00000000000E+00 0. -1.
         25    2    1    2    0    0  0.53164314662E+02 -0.94200564849E+02  0.53590883359E+02  0.17377657265E+03  0.12500449453E+03 0.  0.
          2    1    1    2  501    0 -0.14111426529E+02 -0.20404586228E+02 -0.16992914246E+03  0.17173058247E+03  0.00000000000E+00 0. -1.
          1    1    1    2  502    0 -0.39052888133E+02  0.11460515108E+03  0.98802716586E+03  0.99541807759E+03  0.00000000000E+00 0. -1.
         22    1    3    3    0    0  0.15591825657E+01 -0.89104249897E+02 -0.12261803259E+02  0.89957491178E+02  0.00000000000E+00 0.  1.
         22    1    3    3    0    0  0.51605132096E+02 -0.50963149527E+01  0.65852686618E+02  0.83819081476E+02  0.00000000000E+00 0.  1.
</event>
<event>
 7    1  0.6188600E-006  0.8395800E+02  0.7818608E-02  0.1352419E+00
          2   -1    0    0  502    0  0.00000000000E+00  0.00000000000E+00  0.16817868388E+03  0.16817868388E+03  0.00000000000E+00 0. -1.
          1   -1    0    0  501    0 -0.00000000000E+00 -0.00000000000E+00 -0.51429030283E+03  0.51429030283E+03  0.00000000000E+00 0. -1.
         25    2    1    2    0    0 -0.69739306884E+02 -0.31994249308E+02 -0.21758269685E+03  0.26240025547E+03  0.12499784474E+03 0.  0.
          2    1    1    2  501    0  0.36358077970E+02  0.84564407931E+02 -0.25933997498E+03  0.27519133625E+03  0.00000000000E+00 0. -1.
          1    1    1    2  502    0  0.33381228914E+02 -0.52570158623E+02  0.13081105288E+03  0.14487739499E+03  0.00000000000E+00 0. -1.
         22    1    3    3    0    0 -0.46943051983E+02  0.43484950122E+02 -0.12770398741E+03  0.14283871820E+03  0.00000000000E+00 0.  1.
         22    1    3    3    0    0 -0.22796254901E+02 -0.75479199430E+02 -0.89878709442E+02  0.11956153727E+03  0.00000000000E+00 0.  1.
</event>
<event>
 7    1  0.6188600E-006  0.8407421E+02  0.7818608E-02  0.1384211E+00
          2   -1    0    0  502    0  0.00000000000E+00  0.00000000000E+00  0.57406233073E+02  0.57406233073E+02  0.00000000000E+00 0. -1.
          1   -1    0    0  501    0 -0.00000000000E+00 -0.00000000000E+00 -0.31647052238E+04  0.31647052238E+04  0.00000000000E+00 0. -1.
         25    2    1    2    0    0 -0.11480567492E+03 -0.51168185300E+02 -0.84693089390E+03  0.86528328103E+03  0.12499876481E+03 0.  0.
          2    1    1    2  501    0  0.47647018481E+02  0.33390625097E+01 -0.22729260554E+04  0.22734278614E+04  0.00000000000E+00 0. -1.
          1    1    1    2  502    0  0.67158656438E+02  0.47829122790E+02  0.12557958590E+02  0.83400314420E+02  0.00000000000E+00 0. -1.
         22    1    3    3    0    0 -0.13048657093E+03 -0.32592813389E+02 -0.80986544799E+03  0.82095741700E+03  0.00000000000E+00 0. -1.
         22    1    3    3    0    0  0.15680896015E+02 -0.18575371911E+02 -0.37065445913E+02  0.44325864032E+02  0.00000000000E+00 0. -1.
</event>
<event>
 7    1  0.6188600E-006  0.7761687E+02  0.7818608E-02  0.1377053E+00
          2   -1    0    0  502    0  0.00000000000E+00  0.00000000000E+00  0.25297939983E+03  0.25297939983E+03  0.00000000000E+00 0. -1.
          1   -1    0    0  501    0 -0.00000000000E+00 -0.00000000000E+00 -0.16580875011E+03  0.16580875011E+03  0.00000000000E+00 0. -1.
         25    2    1    2    0    0  0.61549491567E+02  0.41087575923E+02 -0.38364929681E+01  0.14532409154E+03  0.12501137587E+03 0.  0.
          2    1    1    2  501    0  0.17884344710E+02 -0.51846766754E+02 -0.72769671950E+02  0.91122786197E+02  0.00000000000E+00 0. -1.
          1    1    1    2  502    0 -0.79433836277E+02  0.10759190831E+02  0.16377681464E+03  0.18234127220E+03  0.00000000000E+00 0. -1.
         22    1    3    3    0    0  0.46681474477E+02 -0.40502968692E+02 -0.78097761921E+01  0.62294808262E+02  0.00000000000E+00 0. -1.
         22    1    3    3    0    0  0.14868017089E+02  0.81590544615E+02  0.39732832241E+01  0.83029283282E+02  0.00000000000E+00 0. -1.
</event>
<event>
 7    1  0.6188600E-006  0.3600014E+02  0.7818608E-02  0.1596461E+00
          2   -1    0    0  502    0  0.00000000000E+00  0.00000000000E+00  0.12584500779E+04  0.12584500779E+04  0.00000000000E+00 0. -1.
          1   -1    0    0  501    0 -0.00000000000E+00 -0.00000000000E+00 -0.20545594739E+03  0.20545594739E+03  0.00000000000E+00 0. -1.
         25    2    1    2    0    0 -0.47862489532E+02 -0.25917795191E+02  0.66114825636E+03  0.67505893094E+03  0.12499997334E+03 0.  0.
          2    1    1    2  501    0  0.13268894940E+02  0.21478789896E+02 -0.19717991411E+03  0.19878963886E+03  0.00000000000E+00 0. -1.
          1    1    1    2  502    0  0.34593594593E+02  0.44390052951E+01  0.58902578827E+03  0.59005745551E+03  0.00000000000E+00 0. -1.
         22    1    3    3    0    0 -0.33780525464E+02 -0.47601463311E+02  0.63703822759E+03  0.63970675049E+03  0.00000000000E+00 0. -1.
         22    1    3    3    0    0 -0.14081964068E+02  0.21683668120E+02  0.24110028778E+02  0.35352180453E+02  0.00000000000E+00 0. -1.
</event>
<event>
 7    1  0.6188600E-006  0.6062449E+02  0.7818608E-02  0.1405859E+00
          2   -1    0    0  502    0  0.00000000000E+00  0.00000000000E+00  0.18263488779E+04  0.18263488779E+04  0.00000000000E+00 0. -1.
          1   -1    0    0  501    0 -0.00000000000E+00 -0.00000000000E+00 -0.61862696813E+02  0.61862696813E+02  0.00000000000E+00 0. -1.
         25    2    1    2    0    0  0.60145611537E+02 -0.15683973608E+02  0.32243332169E+03  0.35135770317E+03  0.12500202808E+03 0.  0.
          2    1    1    2  501    0 -0.23250054618E+02  0.57458102379E+02 -0.26379799557E+02  0.67363880480E+02  0.00000000000E+00 0. -1.
          1    1    1    2  502    0 -0.36895556919E+02 -0.41774128771E+02  0.14684326589E+04  0.14694899910E+04  0.00000000000E+00 0. -1.
         22    1    3    3    0    0 -0.25565981636E+02 -0.25469525825E+02  0.18935848265E+03  0.19276657157E+03  0.00000000000E+00 0.  1.
         22    1    3    3    0    0  0.85711593174E+02  0.97855522174E+01  0.13307483904E+03  0.15859113160E+03  0.00000000000E+00 0.  1.
</event>
<event>
 7    1  0.6188600E-006  0.8674562E+02  0.7818608E-02  0.1328720E+00
          2   -1    0    0  502    0  0.00000000000E+00  0.00000000000E+00  0.27879450796E+04  0.27879450796E+04  0.00000000000E+00 0. -1.
          1   -1    0    0  501    0 -0.00000000000E+00 -0.00000000000E+00 -0.83297235674E+03  0.83297235674E+03  0.00000000000E+00 0. -1.
         25    2    1    2    0    0 -0.31709558836E+02  0.11635960293E+03  0.14525038538E+04  0.14628520824E+04  0.12499486441E+03 0.  0.
          2    1    1    2  501    0 -0.32880348852E+02 -0.80257464541E+02 -0.82449287466E+03  0.82904214509E+03  0.00000000000E+00 0. -1.
          1    1    1    2  502    0  0.64589907688E+02 -0.36102138384E+02  0.13269617437E+04  0.13290232089E+04  0.00000000000E+00 0. -1.
         22    1    3    3    0    0 -0.18466040703E+02  0.13458394360E+03  0.13858920226E+04  0.13925338526E+04  0.00000000000E+00 0. -1.
         22    1    3    3    0    0 -0.13243518133E+02 -0.18224340670E+02  0.66611831283E+02  0.70318229729E+02  0.00000000000E+00 0. -1.
</event>
<event>
 7    1  0.6188600E-006  0.1182998E+03  0.7818608E-02  0.1283268E+00
          2   -1    0    0  502    0  0.00000000000E+00  0.00000000000E+00  0.17538192763E+04  0.17538192763E+04  0.00000000000E+00 0. -1.
          1   -1    0    0  501    0 -0.00000000000E+00 -0.00000000000E+00 -0.10884675590E+04  0.10884675590E+04  0.00000000000E+00 0. -1.
         25    2    1    2    0    0 -0.57110160790E+02 -0.77182453435E+02  0.27707511688E+03  0.31877145142E+03  0.12500366498E+03 0.  0.
          2    1    1    2  501    0 -0.64111923852E+02  0.51413171792E+02 -0.10633937676E+04  0.10665645588E+04  0.00000000000E+00 0. -1.
          1    1    1    2  502    0  0.12122208464E+03  0.25769281643E+02  0.14516703680E+04  0.14569508252E+04  0.00000000000E+00 0. -1.
         22    1    3    3    0    0  0.21521738132E+02  0.18940656076E+02  0.88058855951E+02  0.92608292157E+02  0.00000000000E+00 0. -1.
         22    1    3    3    0    0 -0.78631898921E+02 -0.96123109511E+02  0.18901626093E+03  0.22616315926E+03  0.00000000000E+00 0. -1.
</event>
<event>
 7    1  0.6188600E-006  0.5780994E+02  0.7818608E-02  0.1409925E+00
          2   -1    0    0  502    0  0.00000000000E+00  0.00000000000E+00  0.28957736643E+03  0.28957736643E+03  0.00000000000E+00 0. -1.
          1   -1    0    0  501    0 -0.00000000000E+00 -0.00000000000E+00 -0.10976404757E+04  0.10976404757E+04  0.00000000000E+00 0. -1.
         25    2    1    2    0    0 -0.86351749284E+01  0.18383664234E+02  0.61456243266E+02  0.14076776515E+03  0.12500467396E+03 0.  0.
          2    1    1    2  501    0 -0.54372273567E+02 -0.19637859988E+02 -0.10519005350E+04  0.10534878856E+04  0.00000000000E+00 0. -1.
          1    1    1    2  502    0  0.63007448496E+02  0.12541957538E+01  0.18238118246E+03  0.19296219134E+03  0.00000000000E+00 0. -1.
         22    1    3    3    0    0  0.45063569699E+02  0.43598264790E+01 -0.13735567720E+02  0.47311723933E+02  0.00000000000E+00 0. -1.
         22    1    3    3    0    0 -0.53698744627E+02  0.14023837755E+02  0.75191810986E+02  0.93456041213E+02  0.00000000000E+00 0. -1.
</event>
<event>
 7    1  0.6188600E-006  0.1105003E+03  0.7818608E-02  0.1334332E+00
          2   -1    0    0  502    0  0.00000000000E+00  0.00000000000E+00  0.20057137865E+04  0.20057137865E+04  0.00000000000E+00 0. -1.
          1   -1    0    0  501    0 -0.00000000000E+00 -0.00000000000E+00 -0.15121151459E+03  0.15121151459E+03  0.00000000000E+00 0. -1.
         25    2    1    2    0    0 -0.72781579942E+02 -0.68028863569E+02  0.16297489004E+03  0.22828312537E+03  0.12500914323E+03 0.  0.
          2    1    1    2  501    0  0.34734258037E+02  0.10815454350E+03 -0.90819667908E+02  0.14543756750E+03  0.00000000000E+00 0. -1.
          1    1    1    2  502    0  0.38047321904E+02 -0.40125679935E+02  0.17823470497E+04  0.17832046082E+04  0.00000000000E+00 0. -1.
         22    1    3    3    0    0 -0.96603382691E+02 -0.86472425611E+02  0.13487584295E+03  0.18708604157E+03  0.00000000000E+00 0.  1.
         22    1    3    3    0    0  0.23821802749E+02  0.18443562041E+02  0.28099047091E+02  0.41197083810E+02  0.00000000000E+00 0.  1.
</event>
<event>
 7    1  0.6188600E-006  0.4591072E+02  0.7818608E-02  0.1523846E+00
          2   -1    0    0  502    0  0.00000000000E+00  0.00000000000E+00  0.70327560636E+03  0.70327560636E+03  0.00000000000E+00 0. -1.
          1   -1    0    0  501    0 -0.00000000000E+00 -0.00000000000E+00 -0.63938262454E+02  0.63938262454E+02  0.00000000000E+00 0. -1.
         25    2    1    2    0    0  0.46389468185E+01  0.14719595499E+02  0.34543219191E+02  0.13060072360E+03  0.12500051477E+03 0.  0.
          2    1    1    2  501    0  0.17129582908E+01  0.31326281627E+02  0.13716444098E+01  0.31403050092E+02  0.00000000000E+00 0. -1.
          1    1    1    2  502    0 -0.63519051092E+01 -0.46045877126E+02  0.60342248031E+03  0.60521009512E+03  0.00000000000E+00 0. -1.
         22    1    3    3    0    0  0.64045057232E+02  0.73173306003E+01  0.74532537621E+01  0.64891167925E+02  0.00000000000E+00 0. -1.
         22    1    3    3    0    0 -0.59406110414E+02  0.74022648989E+01  0.27089965428E+02  0.65709555675E+02  0.00000000000E+00 0. -1.
</event>
<event>
 7    1  0.6188600E-006  0.1090329E+03  0.7818608E-02  0.1370764E+00
          2   -1    0    0  502    0  0.00000000000E+00  0.00000000000E+00  0.23115028805E+03  0.23115028805E+03  0.00000000000E+00 0. -1.
          1   -1    0    0  501    0 -0.00000000000E+00 -0.00000000000E+00 -0.39109106464E+03  0.39109106464E+03  0.00000000000E+00 0. -1.
         25    2    1    2    0    0 -0.28372175018E+02  0.67727792518E+02  0.15400697123E+02  0.14578773626E+03  0.12499939351E+03 0.  0.
          2    1    1    2  501    0  0.32971328938E+02 -0.10858575639E+03 -0.31292048871E+03  0.33286214455E+03  0.00000000000E+00 0. -1.
          1    1    1    2  502    0 -0.45991539200E+01  0.40857963874E+02  0.13757901499E+03  0.14359147188E+03  0.00000000000E+00 0. -1.
         22    1    3    3    0    0 -0.14485730900E+02  0.64490613456E+02  0.65886571427E+02  0.93326930294E+02  0.00000000000E+00 0.  1.
         22    1    3    3    0    0 -0.13886444118E+02  0.32371790622E+01 -0.50485874304E+02  0.52460805967E+02  0.00000000000E+00 0.  1.
</event>
<event>
 7    1  0.6188600E-006  0.7331356E+02  0.7818608E-02  0.1418524E+00
          2   -1    0    0  502    0  0.00000000000E+00  0.00000000000E+00  0.11331634544E+04  0.11331634544E+04  0.00000000000E+00 0. -1.
          1   -1    0    0  501    0 -0.00000000000E+00 -0.00000000000E+00 -0.97851954062E+03  0.97851954062E+03  0.00000000000E+00 0. -1.
         25    2    1    2    0    0  0.42762670830E+02  0.97159083844E+02  0.91630373966E+02  0.18785341002E+03  0.12499697849E+03 0.  0.
          2    1    1    2  501    0 -0.47288930625E+02 -0.55640722012E+02 -0.92853501762E+03  0.93140185304E+03  0.00000000000E+00 0. -1.
          1    1    1    2  502    0  0.45262597949E+01 -0.41518361832E+02  0.99154855741E+03  0.99242773193E+03  0.00000000000E+00 0. -1.
         22    1    3    3    0    0  0.62036582937E+02 -0.22785624610E+00  0.52042754762E+02  0.80975538678E+02  0.00000000000E+00 0.  1.
         22    1    3    3    0    0 -0.19273912107E+02  0.97386940090E+02  0.39587619204E+02  0.10687787134E+03  0.00000000000E+00 0.  1.
</event>
<event>
 7    1  0.6188600E-006  0.5884216E+02  0.7818608E-02  0.1511483E+00
          2   -1    0    0  502    0  0.00000000000E+00  0.00000000000E+00  0.39492882723E+03  0.39492882723E+03  0.00000000000E+00 0. -1.
          1   -1    0    0  501    0 -0.00000000000E+00 -0.00000000000E+00 -0.17888072266E+03  0.17888072266E+03  0.00000000000E+00 0. -1.
         25    2    1    2    0    0 -0.72828073816E+02 -0.22700537965E+02 -0.29410649356E+02  0.14937092674E+03  0.12500977842E+03 0.  0.
          2    1    1    2  501    0  0.24551810812E+02 -0.10222408380E+02 -0.84891650334E+02  0.88959998560E+02  0.00000000000E+00 0. -1.
          1    1    1    2  502    0  0.48276263004E+02  0.32922946345E+02  0.33035040425E+03  0.33547862459E+03  0.00000000000E+00 0. -1.
         22    1    3    3    0    0 -0.49655497920E+02  0.31501770475E+02  0.29709696178E+02  0.65883959078E+02  0.00000000000E+00 0.  1.
         22    1    3    3    0    0 -0.23172575895E+02 -0.54202308441E+02 -0.59120345534E+02  0.83486967666E+02  0.00000000000E+00 0.  1.
</event>
<event>
 7    1  0.6188600E-006  0.5523039E+02  0.7818608E-02  0.1431710E+00
          2   -1    0    0  502    0  0.00000000000E+00  0.00000000000E+00  0.25715071509E+04  0.25715071509E+04  0.00000000000E+00 0. -1.
          1   -1    0    0  501    0 -0.00000000000E+00 -0.00000000000E+00 -0.98647507372E+02  0.98647507372E+02  0.00000000000E+00 0. -1.
         25    2    1    2    0    0 -0.12302234416E+02 -0.54443744002E+02  0.60381755733E+03  0.61914185476E+03  0.12500211013E+03 0.  0.
          2    1    1    2  501    0 -0.39093387358E+02  0.31379608100E+02 -0.83643300498E+02  0.97514996066E+02  0.00000000000E+00 0. -1.
          1    1    1    2  502    0  0.51395621774E+02  0.23064135902E+02  0.19526853867E+04  0.19534978075E+04  0.00000000000E+00 0. -1.
         22    1    3    3    0    0  0.43312246841E+02 -0.30722325230E+01  0.38815329636E+03  0.39057441137E+03  0.00000000000E+00 0.  1.
         22    1    3    3    0    0 -0.55614481257E+02 -0.51371511479E+02  0.21566426097E+03  0.22856744339E+03  0.00000000000E+00 0.  1.
</event>
<event>
 7    1  0.6188600E-006  0.3276192E+02  0.7818608E-02  0.1593410E+00
          2   -1    0    0  502    0  0.00000000000E+00  0.00000000000E+00  0.48940009014E+03  0.48940009014E+03  0.00000000000E+00 0. -1.
          1   -1    0    0  501    0 -0.00000000000E+00 -0.00000000000E+00 -0.12088108793E+04  0.12088108793E+04  0.00000000000E+00 0. -1.
         25    2    1    2    0    0 -0.54685620932E+02 -0.24693729130E+02 -0.26835191144E+03  0.30206135017E+03  0.12501205340E+03 0.  0.
          2    1    1    2  501    0  0.23063504633E+02  0.16330099307E+02 -0.92282165849E+03  0.92325425034E+03  0.00000000000E+00 0. -1.
          1    1    1    2  502    0  0.31622116299E+02  0.83636298229E+01  0.47176278082E+03  0.47289536888E+03  0.00000000000E+00 0. -1.
         22    1    3    3    0    0 -0.58617074721E+02  0.33261547478E+02 -0.20644999818E+03  0.21717249765E+03  0.00000000000E+00 0.  1.
         22    1    3    3    0    0  0.39314537885E+01 -0.57955276608E+02 -0.61901913265E+02  0.84888852516E+02  0.00000000000E+00 0.  1.
</event>
<event>
 7    1  0.6188600E-006  0.5143139E+02  0.7818608E-02  0.1504695E+00
          2   -1    0    0  502    0  0.00000000000E+00  0.00000000000E+00  0.22026452648E+03  0.22026452648E+03  0.00000000000E+00 0. -1.
          1   -1    0    0  501    0 -0.00000000000E+00 -0.00000000000E+00 -0.13575657446E+04  0.13575657446E+04  0.00000000000E+00 0. -1.
         25    2    1    2    0    0 -0.16205687946E+02 -0.69284250169E+02 -0.28646899168E+03  0.32054958379E+03  0.12499848333E+03 0.  0.
          2    1    1    2  501    0  0.25667588022E+02  0.18880102723E+02 -0.10505755881E+04  0.10510586804E+04  0.00000000000E+00 0. -1.
          1    1    1    2  502    0 -0.94619000759E+01  0.50404147446E+02  0.19974336161E+03  0.20622200692E+03  0.00000000000E+00 0. -1.
         22    1    3    3    0    0 -0.47850874414E+02 -0.65858185652E+01 -0.21495871123E+03  0.22031869353E+03  0.00000000000E+00 0.  1.
         22    1    3    3    0    0  0.31645186468E+02 -0.62698431604E+02 -0.71510280449E+02  0.10023089026E+03  0.00000000000E+00 0.  1.
</event>
<event>
 7    1  0.6188600E-006  0.4027147E+02  0.7818608E-02  0.1522561E+00
          2   -1    0    0  502    0  0.00000000000E+00  0.00000000000E+00  0.83686157155E+02  0.83686157155E+02  0.00000000000E+00 0. -1.
          1   -1    0    0  501    0 -0.00000000000E+00 -0.00000000000E+00 -0.64598064839E+03  0.64598064839E+03  0.00000000000E+00 0. -1.
         25    2    1    2    0    0 -0.53946265302E+00  0.52632433722E+02 -0.49386959562E+03  0.51215346935E+03  0.12499413822E+03 0.  0.
          2    1    1    2  501    0  0.27811318085E+02 -0.22974675187E+02 -0.13497758258E+03  0.13971489868E+03  0.00000000000E+00 0. -1.
          1    1    1    2  502    0 -0.27271855432E+02 -0.29657758535E+02  0.66552686956E+02  0.77798437524E+02  0.00000000000E+00 0. -1.
         22    1    3    3    0    0 -0.34839545111E+02  0.20731093168E+02 -0.43914361924E+02  0.59766573523E+02  0.00000000000E+00 0.  1.
         22    1    3    3    0    0  0.34300082458E+02  0.31901340554E+02 -0.44995523369E+03  0.45238689582E+03  0.00000000000E+00 0.  1.
</event>
<event>
 7    1  0.6188600E-006  0.9827022E+02  0.7818608E-02  0.1427776E+00
          2   -1    0    0  502    0  0.00000000000E+00  0.00000000000E+00  0.23379732924E+03  0.23379732924E+03  0.00000000000E+00 0. -1.
          1   -1    0    0  501    0 -0.00000000000E+00 -0.00000000000E+00 -0.15632541627E+03  0.15632541627E+03  0.00000000000E+00 0. -1.
         25    2    1    2    0    0 -0.11536962208E+03 -0.31076493997E+00 -0.34158792621E+02  0.17350120993E+03  0.12500240182E+03 0.  0.
          2    1    1    2  501    0  0.21311021427E+02 -0.19708652340E+02 -0.32359740398E+02  0.43471179073E+02  0.00000000000E+00 0. -1.
          1    1    1    2  502    0  0.94058600649E+02  0.20019417280E+02  0.14399044599E+03  0.17315035652E+03  0.00000000000E+00 0. -1.
         22    1    3    3    0    0  0.16481616661E+02 -0.24311876884E+02 -0.26014557039E+02  0.39236057693E+02  0.00000000000E+00 0.  1.
         22    1    3    3    0    0 -0.13185123874E+03  0.24001111944E+02 -0.81442355821E+01  0.13426515223E+03  0.00000000000E+00 0.  1.
</event>
<event>
 7    1  0.6188600E-006  0.5929563E+02  0.7818608E-02  0.1438147E+00
          2   -1    0    0  502    0  0.00000000000E+00  0.00000000000E+00  0.48774040166E+03  0.48774040166E+03  0.00000000000E+00 0. -1.
          1   -1    0    0  501    0 -0.00000000000E+00 -0.00000000000E+00 -0.15795646242E+03  0.15795646242E+03  0.00000000000E+00 0. -1.
         25    2    1    2    0    0 -0.15244087115E+02  0.31212341773E+02  0.14384507733E+03  0.19371174686E+03  0.12500496841E+03 0.  0.
          2    1    1    2  501    0  0.57871301525E+02 -0.18492498655E+02 -0.12441661623E+03  0.13845777132E+03  0.00000000000E+00 0. -1.
          1    1    1    2  502    0 -0.42627214410E+02 -0.12719843117E+02  0.31035547814E+03  0.31352734590E+03  0.00000000000E+00 0. -1.
         22    1    3    3    0    0  0.52573168901E+02  0.19064450612E+01  0.39158305436E+02  0.65581594260E+02  0.00000000000E+00 0.  1.
         22    1    3    3    0    0 -0.67817256016E+02  0.29305896711E+02  0.10468677189E+03  0.12813015260E+03  0.00000000000E+00 0.  1.
</event>
<event>
 7    1  0.6188600E-006  0.1271411E+03  0.7818608E-02  0.1324327E+00
          2   -1    0    0  502    0  0.00000000000E+00  0.00000000000E+00  0.25710841429E+04  0.25710841429E+04  0.00000000000E+00 0. -1.
          1   -1    0    0  501    0 -0.00000000000E+00 -0.00000000000E+00 -0.40620371271E+03  0.40620371271E+03  0.00000000000E+00 0. -1.
         25    2    1    2    0    0  0.80514681802E+02  0.18844079194E+02  0.85820328936E+03  0.87119270919E+03  0.12500454941E+03 0.  0.
          2    1    1    2  501    0 -0.12762734295E+03  0.42875798566E+01 -0.38909324813E+03  0.40951273210E+03  0.00000000000E+00 0. -1.
          1    1    1    2  502    0  0.47112661150E+02 -0.23131659051E+02  0.16957703889E+04  0.16965824143E+04  0.00000000000E+00 0. -1.
         22    1    3    3    0    0  0.30865207698E+02  0.46516601659E+02  0.71418385929E+03  0.71636236651E+03  0.00000000000E+00 0. -1.
         22    1    3    3    0    0  0.49649474104E+02 -0.27672522465E+02  0.14401943007E+03  0.15483034268E+03  0.00000000000E+00 0. -1.
</event>
<event>
 7    1  0.6188600E-006  0.5848909E+02  0.7818608E-02  0.1450031E+00
          2   -1    0    0  502    0  0.00000000000E+00  0.00000000000E+00  0.11747264536E+03  0.11747264536E+03  0.00000000000E+00 0. -1.
          1   -1    0    0  501    0 -0.00000000000E+00 -0.00000000000E+00 -0.27198957816E+03  0.27198957816E+03  0.00000000000E+00 0. -1.
         25    2    1    2    0    0 -0.46610319011E+02  0.12044717989E+02  0.40677611521E+02  0.13998905163E+03  0.12499867770E+03 0.  0.
          2    1    1    2  501    0  0.52147337582E+02  0.28869126415E+02 -0.19926259365E+03  0.20798642385E+03  0.00000000000E+00 0. -1.
          1    1    1    2  502    0 -0.55370185717E+01 -0.40913844404E+02  0.40680493294E+01  0.41486748052E+02  0.00000000000E+00 0. -1.
         22    1    3    3    0    0 -0.28865500219E+02  0.40964314695E+02  0.75984570349E+02  0.91021684847E+02  0.00000000000E+00 0.  1.
         22    1    3    3    0    0 -0.17744818792E+02 -0.28919596706E+02 -0.35306958828E+02  0.48967366779E+02  0.00000000000E+00 0.  1.
</event>
<event>
 7    1  0.6188600E-006  0.2149054E+02  0.7818608E-02  0.1720423E+00
          2   -1    0    0  502    0  0.00000000000E+00  0.00000000000E+00  0.11296415438E+04  0.11296415438E+04  0.00000000000E+00 0. -1.
          1   -1    0    0  501    0 -0.00000000000E+00 -0.00000000000E+00 -0.79504189334E+03  0.79504189334E+03  0.00000000000E+00 0. -1.
         25    2    1    2    0    0 -0.40485174683E+02 -0.12608955070E+02 -0.20813182814E+02  0.13363219105E+03  0.12500535504E+03 0.  0.
          2    1    1    2  501    0  0.20690133511E+02  0.43166227460E+01 -0.71755629279E+03  0.71786750044E+03  0.00000000000E+00 0. -1.
          1    1    1    2  502    0  0.19795041172E+02  0.82923323238E+01  0.10729691260E+04  0.10731837456E+04  0.00000000000E+00 0. -1.
         22    1    3    3    0    0  0.15228525997E+02 -0.56442020213E+02 -0.22711625166E+02  0.62717043676E+02  0.00000000000E+00 0.  1.
         22    1    3    3    0    0 -0.55713700680E+02  0.43833065143E+02  0.18984423520E+01  0.70915147371E+02  0.00000000000E+00 0.  1.
</event>
<event>
 7    1  0.6188600E-006  0.4723949E+02  0.7818608E-02  0.1500580E+00
          2   -1    0    0  502    0  0.00000000000E+00  0.00000000000E+00  0.41916388551E+03  0.41916388551E+03  0.00000000000E+00 0. -1.
          1   -1    0    0  501    0 -0.00000000000E+00 -0.00000000000E+00 -0.52186549757E+02  0.52186549757E+02  0.00000000000E+00 0. -1.
         25    2    1    2    0    0 -0.68068725864E+02 -0.35298832365E+02  0.19809829636E+03  0.24646854505E+03  0.12499779866E+03 0.  0.
          2    1    1    2  501    0  0.44014269478E+02  0.89434073607E+01 -0.69680922113E+01  0.45451014971E+02  0.00000000000E+00 0. -1.
          1    1    1    2  502    0  0.24054456386E+02  0.26355425004E+02  0.17584713160E+03  0.17943087525E+03  0.00000000000E+00 0. -1.
         22    1    3    3    0    0  0.15818214724E+02  0.30332806937E+02  0.22025842246E+02  0.40687010462E+02  0.00000000000E+00 0. -1.
         22    1    3    3    0    0 -0.83886940588E+02 -0.65631639302E+02  0.17607245412E+03  0.20578153459E+03  0.00000000000E+00 0. -1.
</event>
<event>
 7    1  0.6188600E-006  0.9634468E+02  0.7818608E-02  0.1367663E+00
          2   -1    0    0  502    0  0.00000000000E+00  0.00000000000E+00  0.29371362956E+03  0.29371362956E+03  0.00000000000E+00 0. -1.
          1   -1    0    0  501    0 -0.00000000000E+00 -0.00000000000E+00 -0.23379116131E+03  0.23379116131E+03  0.00000000000E+00 0. -1.
         25    2    1    2    0    0 -0.63481459369E+02 -0.25893208127E+02 -0.34305045039E+02  0.14665489985E+03  0.12502187658E+03 0.  0.
          2    1    1    2  501    0  0.81623952478E+02  0.70053828884E+02 -0.12012486337E+03  0.16124512817E+03  0.00000000000E+00 0. -1.
          1    1    1    2  502    0 -0.18142493110E+02 -0.44160620757E+02  0.21435237667E+03  0.21960476285E+03  0.00000000000E+00 0. -1.
         22    1    3    3    0    0  0.16977778425E+02 -0.24249772374E+02  0.31112043270E+02  0.42944797786E+02  0.00000000000E+00 0. -1.
         22    1    3    3    0    0 -0.80459237794E+02 -0.16434357529E+01 -0.65417088308E+02  0.10371010206E+03  0.00000000000E+00 0. -1.
</event>
<event>
 7    1  0.9193095E-006  0.6357465E+02  0.7818608E-02  0.1422424E+00
          2   -1    0    0  502    0  0.00000000000E+00  0.00000000000E+00  0.11742047192E+04  0.11742047192E+04  0.00000000000E+00 0. -1.
          1   -1    0    0  501    0 -0.00000000000E+00 -0.00000000000E+00 -0.10681761965E+04  0.10681761965E+04  0.00000000000E+00 0. -1.
         25    2    1    2    0    0  0.57362651221E+02  0.77938993135E+02 -0.13261805822E+03  0.20634426166E+03  0.12500177818E+03 0.  0.
          2    1    1    2  501    0 -0.43941939123E+02 -0.15929579017E+02 -0.89720143592E+03  0.89841808871E+03  0.00000000000E+00 0. -1.
          1    1    1    2  502    0 -0.13420712098E+02 -0.62009414118E+02  0.11358480169E+04  0.11376185654E+04  0.00000000000E+00 0. -1.
         22    1    3    3    0    0  0.54919239543E+02  0.62832868415E+02 -0.11472470396E+02  0.84236036245E+02  0.00000000000E+00 0. -1.
         22    1    3    3    0    0  0.24434116778E+01  0.15106124720E+02 -0.12114558782E+03  0.12210822542E+03  0.00000000000E+00 0. -1.
</event>
<event>
 7    1  0.6188600E-006  0.7838538E+02  0.7818608E-02  0.1483643E+00
          2   -1    0    0  502    0  0.00000000000E+00  0.00000000000E+00  0.11082560446E+03  0.11082560446E+03  0.00000000000E+00 0. -1.
          1   -1    0    0  501    0 -0.00000000000E+00 -0.00000000000E+00 -0.14249648188E+04  0.14249648188E+04  0.00000000000E+00 0. -1.
         25    2    1    2    0    0  0.58877615341E+02  0.26690227461E+02 -0.28851746328E+03  0.32101601662E+03  0.12502005631E+03 0.  0.
          2    1    1    2  501    0  0.19423804400E+02 -0.14415936901E+02 -0.11034371978E+04  0.11037022936E+04  0.00000000000E+00 0. -1.
          1    1    1    2  502    0 -0.78301419741E+02 -0.12274290560E+02  0.77815446742E+02  0.11107211303E+03  0.00000000000E+00 0. -1.
         22    1    3    3    0    0  0.20494941010E+02  0.11940761524E+02 -0.27741126630E+03  0.27842348153E+03  0.00000000000E+00 0. -1.
         22    1    3    3    0    0  0.38382674331E+02  0.14749465937E+02 -0.11106196972E+02  0.42592535090E+02  0.00000000000E+00 0. -1.
</event>
<event>
 7    1  0.6188600E-006  0.3852031E+02  0.7818608E-02  0.1595170E+00
          2   -1    0    0  502    0  0.00000000000E+00  0.00000000000E+00  0.11854865375E+04  0.11854865375E+04  0.00000000000E+00 0. -1.
          1   -1    0    0  501    0 -0.00000000000E+00 -0.00000000000E+00 -0.78589816216E+03  0.78589816216E+03  0.00000000000E+00 0. -1.
         25    2    1    2    0    0  0.42861056415E+02  0.26168202036E+02  0.98097938622E+03  0.99018506821E+03  0.12499627256E+03 0.  0.
          2    1    1    2  501    0 -0.38414900588E+02 -0.28074912608E+01 -0.78011128268E+03  0.78106158526E+03  0.00000000000E+00 0. -1.
          1    1    1    2  502    0 -0.44461558272E+01 -0.23360710775E+02  0.19872027176E+03  0.20013804615E+03  0.00000000000E+00 0. -1.
         22    1    3    3    0    0  0.80686049398E+02  0.44764928299E+02  0.70250256027E+03  0.70853650898E+03  0.00000000000E+00 0.  1.
         22    1    3    3    0    0 -0.37824992983E+02 -0.18596726263E+02  0.27847682595E+03  0.28164855923E+03  0.00000000000E+00 0.  1.
</event>
<event>
 7    1  0.6188600E-006  0.3279242E+03  0.7818608E-02  0.1187290E+00
          2   -1    0    0  502    0  0.00000000000E+00  0.00000000000E+00  0.90152694089E+03  0.90152694089E+03  0.00000000000E+00 0. -1.
          1   -1    0    0  501    0 -0.00000000000E+00 -0.00000000000E+00 -0.39797017338E+03  0.39797017338E+03  0.00000000000E+00 0. -1.
         25    2    1    2    0    0  0.14681703060E+03  0.34442518349E+03  0.29772195392E+03  0.49441662759E+03  0.12500196917E+03 0.  0.
          2    1    1    2  501    0 -0.75567242853E+02 -0.30962639933E+03 -0.21004830003E+03  0.38170565060E+03  0.00000000000E+00 0. -1.
          1    1    1    2  502    0 -0.71249787747E+02 -0.34798784164E+02  0.41588311362E+03  0.42337483608E+03  0.00000000000E+00 0. -1.
         22    1    3    3    0    0  0.72221611064E+02  0.72912511487E+02  0.32626834935E+02  0.10768800209E+03  0.00000000000E+00 0. -1.
         22    1    3    3    0    0  0.74595419535E+02  0.27151267200E+03  0.26509511899E+03  0.38672862550E+03  0.00000000000E+00 0. -1.
</event>
<event>
 7    1  0.6188600E-006  0.7762868E+02  0.7818608E-02  0.1430048E+00
          2   -1    0    0  502    0  0.00000000000E+00  0.00000000000E+00  0.10210183796E+04  0.10210183796E+04  0.00000000000E+00 0. -1.
          1   -1    0    0  501    0 -0.00000000000E+00 -0.00000000000E+00 -0.72615778890E+02  0.72615778890E+02  0.00000000000E+00 0. -1.
         25    2    1    2    0    0 -0.81267480153E+02  0.54840936226E+02  0.21388602588E+03  0.26643202309E+03  0.12500743677E+03 0.  0.
          2    1    1    2  501    0  0.72963422959E+02 -0.19691108539E+02 -0.14805265601E+02  0.77010367711E+02  0.00000000000E+00 0. -1.
          1    1    1    2  502    0  0.83040571934E+01 -0.35149827687E+02  0.74932184043E+03  0.75019176768E+03  0.00000000000E+00 0. -1.
         22    1    3    3    0    0 -0.92436633878E+02  0.69034165368E+02  0.10480660359E+03  0.15586748034E+03  0.00000000000E+00 0.  1.
         22    1    3    3    0    0  0.11169153725E+02 -0.14193229142E+02  0.10907942228E+03  0.11056454275E+03  0.00000000000E+00 0.  1.
</event>
<event>
 7    1  0.6188600E-006  0.8535799E+02  0.7818608E-02  0.1334835E+00
          2   -1    0    0  502    0  0.00000000000E+00  0.00000000000E+00  0.21549012103E+04  0.21549012103E+04  0.00000000000E+00 0. -1.
          1   -1    0    0  501    0 -0.00000000000E+00 -0.00000000000E+00 -0.17047967672E+04  0.17047967672E+04  0.00000000000E+00 0. -1.
         25    2    1    2    0    0  0.19706701955E+02 -0.13912430714E+01  0.17768540139E+03  0.21814745345E+03  0.12500367963E+03 0.  0.
          2    1    1    2  501    0  0.63207926574E+02  0.32926446129E+02 -0.16828058055E+04  0.16843143328E+04  0.00000000000E+00 0. -1.
          1    1    1    2  502    0 -0.82914628530E+02 -0.31535203058E+02  0.19552248472E+04  0.19572361911E+04  0.00000000000E+00 0. -1.
         22    1    3    3    0    0  0.20863140812E+02  0.37008316847E+02  0.68339240939E+01  0.43030090389E+02  0.00000000000E+00 0.  1.
         22    1    3    3    0    0 -0.11564388565E+01 -0.38399559918E+02  0.17085147729E+03  0.17511736306E+03  0.00000000000E+00 0.  1.
</event>
<event>
 7    1  0.6188600E-006  0.2992804E+03  0.7818608E-02  0.1197957E+00
          2   -1    0    0  502    0  0.00000000000E+00  0.00000000000E+00  0.28970695701E+04  0.28970695701E+04  0.00000000000E+00 0. -1.
          1   -1    0    0  501    0 -0.00000000000E+00 -0.00000000000E+00 -0.44682938483E+03  0.44682938483E+03  0.00000000000E+00 0. -1.
         25    2    1    2    0    0 -0.28796800674E+02 -0.32633498667E+03 -0.27628347469E+01  0.35065084200E+03  0.12499840192E+03 0.  0.
          2    1    1    2  501    0  0.70792339444E+02  0.30959346930E+02 -0.25623565776E+03  0.26763174100E+03  0.00000000000E+00 0. -1.
          1    1    1    2  502    0 -0.41995538770E+02  0.29537563974E+03  0.27092386777E+04  0.27256163719E+04  0.00000000000E+00 0. -1.
         22    1    3    3    0    0 -0.43775817260E+02 -0.13417284624E+03 -0.54163219570E+02  0.15116986869E+03  0.00000000000E+00 0. -1.
         22    1    3    3    0    0  0.14979016586E+02 -0.19216214043E+03  0.51400384823E+02  0.19948097331E+03  0.00000000000E+00 0. -1.
</event>
<event>
 7    1  0.6188600E-006  0.1012298E+03  0.7818608E-02  0.1410790E+00
          2   -1    0    0  502    0  0.00000000000E+00  0.00000000000E+00  0.13017239897E+03  0.13017239897E+03  0.00000000000E+00 0. -1.
          1   -1    0    0  501    0 -0.00000000000E+00 -0.00000000000E+00 -0.40518254685E+03  0.40518254685E+03  0.00000000000E+00 0. -1.
         25    2    1    2    0    0  0.78024565177E+02 -0.40210117516E+02 -0.13957779787E+03  0.20690572559E+03  0.12499332502E+03 0.  0.
          2    1    1    2  501    0  0.24177849904E+02  0.21138646285E+02 -0.20230144581E+03  0.20483477676E+03  0.00000000000E+00 0. -1.
          1    1    1    2  502    0 -0.10220241508E+03  0.19071471231E+02  0.66869095804E+02  0.12361444348E+03  0.00000000000E+00 0. -1.
         22    1    3    3    0    0  0.61491290118E+02 -0.25592657283E+02 -0.10311715785E+01  0.66612507700E+02  0.00000000000E+00 0.  1.
         22    1    3    3    0    0  0.16533275059E+02 -0.14617460233E+02 -0.13854662629E+03  0.14029321789E+03  0.00000000000E+00 0.  1.
</event>
<event>
 7    1  0.6188600E-006  0.1186826E+03  0.7818608E-02  0.1271259E+00
          2   -1    0    0  502    0  0.00000000000E+00  0.00000000000E+00  0.18655371540E+03  0.18655371540E+03  0.00000000000E+00 0. -1.
          1   -1    0    0  501    0 -0.00000000000E+00 -0.00000000000E+00 -0.25724467754E+03  0.25724467754E+03  0.00000000000E+00 0. -1.
         25    2    1    2    0    0 -0.20837581350E+02  0.59429844818E+02  0.22282432353E+02  0.14173566480E+03  0.12500552241E+03 0.  0.
          2    1    1    2  501    0 -0.25133203447E+02 -0.13898026637E+03 -0.13998636525E+03  0.19885516038E+03  0.00000000000E+00 0. -1.
          1    1    1    2  502    0  0.45970784797E+02  0.79550421553E+02  0.47012970753E+02  0.10320756776E+03  0.00000000000E+00 0. -1.
         22    1    3    3    0    0  0.33389367960E+02 -0.78960512203E+01  0.40817726799E+02  0.53322456232E+02  0.00000000000E+00 0.  1.
         22    1    3    3    0    0 -0.54226949310E+02  0.67325896039E+02 -0.18535294446E+02  0.88413208567E+02  0.00000000000E+00 0.  1.
</event>
<event>
 7    1  0.6188600E-006  0.7667205E+02  0.7818608E-02  0.1339718E+00
          2   -1    0    0  502    0  0.00000000000E+00  0.00000000000E+00  0.10061551272E+04  0.10061551272E+04  0.00000000000E+00 0. -1.
          1   -1    0    0  501    0 -0.00000000000E+00 -0.00000000000E+00 -0.11818338427E+03  0.11818338427E+03  0.00000000000E+00 0. -1.
         25    2    1    2    0    0  0.60172736018E+01  0.53038241846E+02  0.10767987768E+03  0.17340660674E+03  0.12500253006E+03 0.  0.
          2    1    1    2  501    0  0.70155033948E+02 -0.29343183286E+02 -0.66119442864E+02  0.10076969742E+03  0.00000000000E+00 0. -1.
          1    1    1    2  502    0 -0.76172307550E+02 -0.23695058560E+02  0.84641130812E+03  0.85016220732E+03  0.00000000000E+00 0. -1.
         22    1    3    3    0    0  0.13985343186E+02 -0.40032856569E+02  0.30487183854E+02  0.52227270735E+02  0.00000000000E+00 0.  1.
         22    1    3    3    0    0 -0.79680695842E+01  0.93071098415E+02  0.77192693828E+02  0.12117933600E+03  0.00000000000E+00 0.  1.
</event>
<event>
 7    1  0.6188600E-006  0.1046910E+03  0.7818608E-02  0.1353904E+00
          2   -1    0    0  502    0  0.00000000000E+00  0.00000000000E+00  0.71780931059E+03  0.71780931059E+03  0.00000000000E+00 0. -1.
          1   -1    0    0  501    0 -0.00000000000E+00 -0.00000000000E+00 -0.49866597777E+03  0.49866597777E+03  0.00000000000E+00 0. -1.
         25    2    1    2    0    0  0.10189138459E+03  0.76157760281E+02 -0.37225052305E+02  0.18218853982E+03  0.12500040327E+03 0.  0.
          2    1    1    2  501    0 -0.99761918266E+02 -0.26889134084E+02 -0.38112850118E+03  0.39488530015E+03  0.00000000000E+00 0. -1.
          1    1    1    2  502    0 -0.21294663257E+01 -0.49268626198E+02  0.63749688631E+03  0.63940144839E+03  0.00000000000E+00 0. -1.
         22    1    3    3    0    0  0.10690436162E+03  0.19894889629E+02 -0.56452057686E+02  0.12252013705E+03  0.00000000000E+00 0.  1.
         22    1    3    3    0    0 -0.50129770252E+01  0.56262870652E+02  0.19227005381E+02  0.59668402766E+02  0.00000000000E+00 0.  1.
</event>
<event>
 7    1  0.6188600E-006  0.8750580E+02  0.7818608E-02  0.1339423E+00
          2   -1    0    0  502    0  0.00000000000E+00  0.00000000000E+00  0.19675711924E+04  0.19675711924E+04  0.00000000000E+00 0. -1.
          1   -1    0    0  501    0 -0.00000000000E+00 -0.00000000000E+00 -0.62718053438E+03  0.62718053438E+03  0.00000000000E+00 0. -1.
         25    2    1    2    0    0  0.88387683422E+02  0.12828265404E+02  0.58208421795E+03  0.60201726121E+03  0.12500319612E+03 0.  0.
          2    1    1    2  501    0 -0.32507317224E+02  0.58357091281E+02 -0.61391172570E+03  0.61753532914E+03  0.00000000000E+00 0. -1.
          1    1    1    2  502    0 -0.55880366198E+02 -0.71185356685E+02  0.13722181658E+04  0.13751991364E+04  0.00000000000E+00 0. -1.
         22    1    3    3    0    0  0.30643738995E+02  0.55900015838E+02  0.41776186827E+03  0.42259771543E+03  0.00000000000E+00 0.  1.
         22    1    3    3    0    0  0.57743944427E+02 -0.43071750434E+02  0.16432234968E+03  0.17941954578E+03  0.00000000000E+00 0.  1.
</event>
<event>
 7    1  0.6188600E-006  0.2959507E+02  0.7818608E-02  0.1640086E+00
          2   -1    0    0  502    0  0.00000000000E+00  0.00000000000E+00  0.12787324240E+04  0.12787324240E+04  0.00000000000E+00 0. -1.
          1   -1    0    0  501    0 -0.00000000000E+00 -0.00000000000E+00 -0.23038245698E+03  0.23038245698E+03  0.00000000000E+00 0. -1.
         25    2    1    2    0    0  0.10369847180E+02 -0.46107089111E+02  0.72378210387E+03  0.73601478115E+03  0.12499530707E+03 0.  0.
          2    1    1    2  501    0  0.60702740728E+01  0.28947509406E+02 -0.22303210980E+03  0.22498472955E+03  0.00000000000E+00 0. -1.
          1    1    1    2  502    0 -0.16440121253E+02  0.17159579705E+02  0.54759997293E+03  0.54811537026E+03  0.00000000000E+00 0. -1.
         22    1    3    3    0    0  0.20792057413E+01 -0.88858258160E+02  0.52986391750E+03  0.53726705111E+03  0.00000000000E+00 0.  1.
         22    1    3    3    0    0  0.82906414388E+01  0.42751169049E+02  0.19391818637E+03  0.19874773004E+03  0.00000000000E+00 0.  1.
</event>
<event>
 7    1  0.6188600E-006  0.7836076E+02  0.7818608E-02  0.1362475E+00
          2   -1    0    0  502    0  0.00000000000E+00  0.00000000000E+00  0.16324012580E+04  0.16324012580E+04  0.00000000000E+00 0. -1.
          1   -1    0    0  501    0 -0.00000000000E+00 -0.00000000000E+00 -0.20632990750E+04  0.20632990750E+04  0.00000000000E+00 0. -1.
         25    2    1    2    0    0 -0.83190473001E+02  0.10412010987E+03  0.22743242919E+03  0.29174013333E+03  0.12500057387E+03 0.  0.
          2    1    1    2  501    0  0.50442192861E+02 -0.34822309099E+02 -0.20296123781E+04  0.20305377154E+04  0.00000000000E+00 0. -1.
          1    1    1    2  502    0  0.32748280140E+02 -0.69297800771E+02  0.13712821319E+04  0.13734224843E+04  0.00000000000E+00 0. -1.
         22    1    3    3    0    0  0.31677950528E+02  0.29060862742E+02  0.35218153473E+02  0.55572876721E+02  0.00000000000E+00 0. -1.
         22    1    3    3    0    0 -0.11486842353E+03  0.75059247128E+02  0.19221427572E+03  0.23616725661E+03  0.00000000000E+00 0. -1.
</event>
<event>
 7    1  0.6188600E-006  0.6831138E+02  0.7818608E-02  0.1428408E+00
          2   -1    0    0  502    0  0.00000000000E+00  0.00000000000E+00  0.43728713457E+03  0.43728713457E+03  0.00000000000E+00 0. -1.
          1   -1    0    0  501    0 -0.00000000000E+00 -0.00000000000E+00 -0.28141746156E+03  0.28141746156E+03  0.00000000000E+00 0. -1.
         25    2    1    2    0    0 -0.84257230930E+02  0.68872115731E+02 -0.11623644048E+03  0.20242910848E+03  0.12499593824E+03 0.  0.
          2    1    1    2  501    0  0.34536194003E+02 -0.23114726574E+02 -0.11553876882E+03  0.12278536713E+03  0.00000000000E+00 0. -1.
          1    1    1    2  502    0  0.49721036927E+02 -0.45757389157E+02  0.38764488230E+03  0.39349012052E+03  0.00000000000E+00 0. -1.
         22    1    3    3    0    0 -0.21302279045E+02  0.83020317855E+02 -0.10723526046E+03  0.13727913663E+03  0.00000000000E+00 0. -1.
         22    1    3    3    0    0 -0.62954951886E+02 -0.14148202125E+02 -0.90011800188E+01  0.65149971850E+02  0.00000000000E+00 0. -1.
</event>
<event>
 7    1  0.6188600E-006  0.8294222E+02  0.7818608E-02  0.1384048E+00
          2   -1    0    0  502    0  0.00000000000E+00  0.00000000000E+00  0.11468132807E+04  0.11468132807E+04  0.00000000000E+00 0. -1.
          1   -1    0    0  501    0 -0.00000000000E+00 -0.00000000000E+00 -0.22259685056E+03  0.22259685056E+03  0.00000000000E+00 0. -1.
         25    2    1    2    0    0 -0.22474311444E+02  0.91535348694E+02  0.17208801196E+03  0.23264366330E+03  0.12499990191E+03 0.  0.
          2    1    1    2  501    0 -0.35936450747E+02 -0.32540383815E+02 -0.18740406687E+03  0.19357321445E+03  0.00000000000E+00 0. -1.
          1    1    1    2  502    0  0.58410762191E+02 -0.58994964879E+02  0.93953248504E+03  0.94319325351E+03  0.00000000000E+00 0. -1.
         22    1    3    3    0    0  0.15258347475E+01  0.11813331159E+03  0.11263674354E+03  0.16323248290E+03  0.00000000000E+00 0.  1.
         22    1    3    3    0    0 -0.24000146191E+02 -0.26597962895E+02  0.59451268423E+02  0.69411180400E+02  0.00000000000E+00 0.  1.
</event>
<event>
 7    1  0.6188600E-006  0.3691625E+02  0.7818608E-02  0.1563483E+00
          2   -1    0    0  502    0  0.00000000000E+00  0.00000000000E+00  0.30891618250E+03  0.30891618250E+03  0.00000000000E+00 0. -1.
          1   -1    0    0  501    0 -0.00000000000E+00 -0.00000000000E+00 -0.64948962946E+02  0.64948962946E+02  0.00000000000E+00 0. -1.
         25    2    1    2    0    0  0.37484968821E+02 -0.51711586380E+02  0.76383914722E+02  0.15981057499E+03  0.12500282556E+03 0.  0.
          2    1    1    2  501    0 -0.17540897359E+02  0.29059132804E+02 -0.88345209310E+01  0.35073708666E+02  0.00000000000E+00 0. -1.
          1    1    1    2  502    0 -0.19944071462E+02  0.22652453576E+02  0.17641782576E+03  0.17898086178E+03  0.00000000000E+00 0. -1.
         22    1    3    3    0    0  0.45794231904E+02 -0.71646789569E+02  0.49416206825E+01  0.85175077024E+02  0.00000000000E+00 0.  1.
         22    1    3    3    0    0 -0.83092630825E+01  0.19935203188E+02  0.71442294040E+02  0.74635497967E+02  0.00000000000E+00 0.  1.
</event>
<event>
 7    1  0.6188600E-006  0.4675841E+02  0.7818608E-02  0.1583384E+00
          2   -1    0    0  502    0  0.00000000000E+00  0.00000000000E+00  0.60148998708E+03  0.60148998708E+03  0.00000000000E+00 0. -1.
          1   -1    0    0  501    0 -0.00000000000E+00 -0.00000000000E+00 -0.82795924759E+03  0.82795924759E+03  0.00000000000E+00 0. -1.
         25    2    1    2    0    0 -0.56444706215E+02  0.36932655004E+02  0.78973058417E+02  0.16251157990E+03  0.12499297493E+03 0.  0.
          2    1    1    2  501    0  0.40400980140E+02 -0.23304282319E+02 -0.78526728048E+03  0.78665114921E+03  0.00000000000E+00 0. -1.
          1    1    1    2  502    0  0.16043726075E+02 -0.13628372685E+02  0.47982496155E+03  0.48028650556E+03  0.00000000000E+00 0. -1.
         22    1    3    3    0    0 -0.22014617665E+02 -0.34961069700E+02  0.71332643008E+02  0.82433401870E+02  0.00000000000E+00 0. -1.
         22    1    3    3    0    0 -0.34430088551E+02  0.71893724704E+02  0.76404154098E+01  0.80078178033E+02  0.00000000000E+00 0. -1.
</event>
<event>
 7    1  0.6188600E-006  0.8858434E+02  0.7818608E-02  0.1443480E+00
          2   -1    0    0  502    0  0.00000000000E+00  0.00000000000E+00  0.18750487850E+03  0.18750487850E+03  0.00000000000E+00 0. -1.
          1   -1    0    0  501    0 -0.00000000000E+00 -0.00000000000E+00 -0.15435796610E+04  0.15435796610E+04  0.00000000000E+00 0. -1.
         25    2    1    2    0    0  0.10917161573E+03  0.66850012860E+01 -0.30875756823E+03  0.35059892114E+03  0.12500094656E+03 0.  0.
          2    1    1    2  501    0 -0.86489065535E+02  0.10758866037E+02 -0.12110949667E+04  0.12142269681E+04  0.00000000000E+00 0. -1.
          1    1    1    2  502    0 -0.22682550197E+02 -0.17443867322E+02  0.16377775244E+03  0.16625865026E+03  0.00000000000E+00 0. -1.
         22    1    3    3    0    0  0.86838980869E+02  0.21103492788E+02 -0.78908992314E+02  0.11921826653E+03  0.00000000000E+00 0. -1.
         22    1    3    3    0    0  0.22332634863E+02 -0.14418491502E+02 -0.22984857591E+03  0.23138065461E+03  0.00000000000E+00 0. -1.
</event>
<event>
 7    1  0.6188600E-006  0.1053820E+03  0.7818608E-02  0.1454763E+00
          2   -1    0    0  502    0  0.00000000000E+00  0.00000000000E+00  0.56551527178E+03  0.56551527178E+03  0.00000000000E+00 0. -1.
          1   -1    0    0  501    0 -0.00000000000E+00 -0.00000000000E+00 -0.31338235803E+03  0.31338235803E+03  0.00000000000E+00 0. -1.
         25    2    1    2    0    0  0.76119683426E+02  0.37098861301E+02 -0.74942750231E+02  0.16855837452E+03  0.12499991237E+03 0.  0.
          2    1    1    2  501    0  0.21622577036E+02  0.47234801803E+01 -0.18551959884E+03  0.18683513764E+03  0.00000000000E+00 0. -1.
          1    1    1    2  502    0 -0.97742260462E+02 -0.41822341481E+02  0.51259526283E+03  0.52350411765E+03  0.00000000000E+00 0. -1.
         22    1    3    3    0    0  0.48873603818E+02  0.83480971806E+02 -0.41836135093E+02  0.10539432624E+03  0.00000000000E+00 0.  1.
         22    1    3    3    0    0  0.27246079608E+02 -0.46382110505E+02 -0.33106615138E+02  0.63164048277E+02  0.00000000000E+00 0.  1.
</event>
<event>
 7    1  0.6188600E-006  0.1048746E+03  0.7818608E-02  0.1370778E+00
          2   -1    0    0  502    0  0.00000000000E+00  0.00000000000E+00  0.10915883067E+04  0.10915883067E+04  0.00000000000E+00 0. -1.
          1   -1    0    0  501    0 -0.00000000000E+00 -0.00000000000E+00 -0.80019546087E+02  0.80019546087E+02  0.00000000000E+00 0. -1.
         25    2    1    2    0    0  0.11276199154E+02  0.10599924940E+03  0.15022207728E+03  0.22260888050E+03  0.12500019054E+03 0.  0.
          2    1    1    2  501    0  0.31260884620E+02 -0.10182593286E+03  0.22251421485E+02  0.10881585027E+03  0.00000000000E+00 0. -1.
          1    1    1    2  502    0 -0.42537083775E+02 -0.41733165392E+01  0.83909526184E+03  0.84018312200E+03  0.00000000000E+00 0. -1.
         22    1    3    3    0    0  0.18353037451E+02  0.12156579272E+03  0.16086595118E+03  0.20246710892E+03  0.00000000000E+00 0.  1.
         22    1    3    3    0    0 -0.70768382968E+01 -0.15566543319E+02 -0.10643873899E+02  0.20141771589E+02  0.00000000000E+00 0.  1.
</event>
<event>
 7    1  0.6188600E-006  0.8172137E+02  0.7818608E-02  0.1383582E+00
          2   -1    0    0  502    0  0.00000000000E+00  0.00000000000E+00  0.14310226284E+04  0.14310226284E+04  0.00000000000E+00 0. -1.
          1   -1    0    0  501    0 -0.00000000000E+00 -0.00000000000E+00 -0.67221537482E+02  0.67221537482E+02  0.00000000000E+00 0. -1.
         25    2    1    2    0    0  0.10639003974E+03  0.53786180990E+02  0.51591467592E+03  0.54406306780E+03  0.12499950038E+03 0.  0.
          2    1    1    2  501    0 -0.30109804702E+02 -0.39151418537E+02 -0.39598005615E+02  0.63304312344E+02  0.00000000000E+00 0. -1.
          1    1    1    2  502    0 -0.76280235042E+02 -0.14634762453E+02  0.88748442062E+03  0.89087678574E+03  0.00000000000E+00 0. -1.
         22    1    3    3    0    0 -0.22634015022E+02  0.12903235219E+02  0.18049560976E+03  0.18236627226E+03  0.00000000000E+00 0.  1.
         22    1    3    3    0    0  0.12902405477E+03  0.40882945771E+02  0.33541906616E+03  0.36169679554E+03  0.00000000000E+00 0.  1.
</event>
<event>
 7    1  0.6188600E-006  0.7663184E+02  0.7818608E-02  0.1410337E+00
          2   -1    0    0  502    0  0.00000000000E+00  0.00000000000E+00  0.53581154226E+03  0.53581154226E+03  0.00000000000E+00 0. -1.
          1   -1    0    0  501    0 -0.00000000000E+00 -0.00000000000E+00 -0.80598243724E+03  0.80598243724E+03  0.00000000000E+00 0. -1.
         25    2    1    2    0    0  0.69387338345E+01 -0.11031097002E+03 -0.19113084377E+03  0.25371797460E+03  0.12500062024E+03 0.  0.
          2    1    1    2  501    0 -0.22673662000E+02  0.70751134819E+02 -0.58028723553E+03  0.58502401126E+03  0.00000000000E+00 0. -1.
          1    1    1    2  502    0  0.15734928165E+02  0.39559835200E+02  0.50124718432E+03  0.50305199365E+03  0.00000000000E+00 0. -1.
         22    1    3    3    0    0 -0.45925084008E+02 -0.39418619715E+01 -0.36875312905E+02  0.59029148044E+02  0.00000000000E+00 0. -1.
         22    1    3    3    0    0  0.52863817843E+02 -0.10636910805E+03 -0.15425553086E+03  0.19468882655E+03  0.00000000000E+00 0. -1.
</event>
<event>
 7    1  0.6188600E-006  0.7323513E+02  0.7818608E-02  0.1453286E+00
          2   -1    0    0  502    0  0.00000000000E+00  0.00000000000E+00  0.23271400786E+03  0.23271400786E+03  0.00000000000E+00 0. -1.
          1   -1    0    0  501    0 -0.00000000000E+00 -0.00000000000E+00 -0.82960051495E+03  0.82960051495E+03  0.00000000000E+00 0. -1.
         25    2    1    2    0    0 -0.56774898885E+01  0.43973862880E+02 -0.33932944062E+03  0.36432492711E+03  0.12498899445E+03 0.  0.
          2    1    1    2  501    0 -0.20122135793E+02  0.25131044184E+02 -0.47103140853E+03  0.47213033958E+03  0.00000000000E+00 0. -1.
          1    1    1    2  502    0  0.25799625682E+02 -0.69104907064E+02  0.21347434205E+03  0.22585925613E+03  0.00000000000E+00 0. -1.
         22    1    3    3    0    0  0.18622508271E+02 -0.14682769454E+02 -0.26712761629E+03  0.26817819620E+03  0.00000000000E+00 0. -1.
         22    1    3    3    0    0 -0.24299998160E+02  0.58656632334E+02 -0.72201824325E+02  0.96146730902E+02  0.00000000000E+00 0. -1.
</event>
<event>
 7    1  0.6188600E-006  0.6963363E+02  0.7818608E-02  0.1431881E+00
          2   -1    0    0  502    0  0.00000000000E+00  0.00000000000E+00  0.65189697497E+02  0.65189697497E+02  0.00000000000E+00 0. -1.
          1   -1    0    0  501    0 -0.00000000000E+00 -0.00000000000E+00 -0.89829171631E+03  0.89829171631E+03  0.00000000000E+00 0. -1.
         25    2    1    2    0    0  0.16503034883E+01 -0.93411276687E+02 -0.69451746341E+03  0.71183505050E+03  0.12500496800E+03 0.  0.
          2    1    1    2  501    0 -0.15151276189E+02  0.56067590610E+02 -0.18304299657E+03  0.19203612806E+03  0.00000000000E+00 0. -1.
          1    1    1    2  502    0  0.13500972701E+02  0.37343686077E+02  0.44458441175E+02  0.59610235240E+02  0.00000000000E+00 0. -1.
         22    1    3    3    0    0  0.75750483878E+01 -0.11531152399E+03 -0.66303157775E+03  0.67302674688E+03  0.00000000000E+00 0. -1.
         22    1    3    3    0    0 -0.59247448995E+01  0.21900247302E+02 -0.31485885658E+02  0.38808303617E+02  0.00000000000E+00 0. -1.
</event>
<event>
 7    1  0.6188600E-006  0.3880683E+02  0.7818608E-02  0.1598369E+00
          2   -1    0    0  502    0  0.00000000000E+00  0.00000000000E+00  0.61204694070E+03  0.61204694070E+03  0.00000000000E+00 0. -1.
          1   -1    0    0  501    0 -0.00000000000E+00 -0.00000000000E+00 -0.29175815647E+03  0.29175815647E+03  0.00000000000E+00 0. -1.
         25    2    1    2    0    0  0.38761866241E+02 -0.37456543790E+02 -0.13312712777E+03  0.19040112210E+03  0.12499712078E+03 0.  0.
          2    1    1    2  501    0 -0.23064827500E+02  0.20147344455E+01 -0.12831298952E+03  0.13038507852E+03  0.00000000000E+00 0. -1.
          1    1    1    2  502    0 -0.15697038741E+02  0.35441809345E+02  0.58172890151E+03  0.58301889655E+03  0.00000000000E+00 0. -1.
         22    1    3    3    0    0 -0.22271853614E+02 -0.53785940061E+02 -0.10744135079E+03  0.12219904529E+03  0.00000000000E+00 0.  1.
         22    1    3    3    0    0  0.61033719855E+02  0.16329396270E+02 -0.25685776982E+02  0.68202076809E+02  0.00000000000E+00 0.  1.
</event>
<event>
 7    1  0.6188600E-006  0.4617346E+02  0.7818608E-02  0.1531475E+00
          2   -1    0    0  502    0  0.00000000000E+00  0.00000000000E+00  0.83590350581E+03  0.83590350581E+03  0.00000000000E+00 0. -1.
          1   -1    0    0  501    0 -0.00000000000E+00 -0.00000000000E+00 -0.13153275509E+03  0.13153275509E+03  0.00000000000E+00 0. -1.
         25    2    1    2    0    0 -0.10565962241E+02  0.67369510430E+02  0.23156860479E+02  0.14426312482E+03  0.12500127401E+03 0.  0.
          2    1    1    2  501    0  0.19561597250E+02 -0.22293280543E+02 -0.67145156532E+02  0.73403804329E+02  0.00000000000E+00 0. -1.
          1    1    1    2  502    0 -0.89956350085E+01 -0.45076229888E+02  0.74835904677E+03  0.74976933175E+03  0.00000000000E+00 0. -1.
         22    1    3    3    0    0 -0.30651483285E+01 -0.37090036570E+02  0.10751402114E+01  0.37232000665E+02  0.00000000000E+00 0. -1.
         22    1    3    3    0    0 -0.75008139128E+01  0.10445954700E+03  0.22081720267E+02  0.10703112416E+03  0.00000000000E+00 0. -1.
</event>
<event>
 7    1  0.6188600E-006  0.3681012E+02  0.7818608E-02  0.1621932E+00
          2   -1    0    0  502    0  0.00000000000E+00  0.00000000000E+00  0.11489739856E+04  0.11489739856E+04  0.00000000000E+00 0. -1.
          1   -1    0    0  501    0 -0.00000000000E+00 -0.00000000000E+00 -0.53217121750E+02  0.53217121750E+02  0.00000000000E+00 0. -1.
         25    2    1    2    0    0  0.35523843756E+02  0.32901394277E+02  0.89173770535E+02  0.16100242902E+03  0.12500150231E+03 0.  0.
          2    1    1    2  501    0 -0.21200493438E+02  0.93361421036E+00 -0.10337180083E+02  0.23604869192E+02  0.00000000000E+00 0. -1.
          1    1    1    2  502    0 -0.14323350318E+02 -0.33835008487E+02  0.10169202734E+04  0.10175838091E+04  0.00000000000E+00 0. -1.
         22    1    3    3    0    0  0.50991645318E+01 -0.42513773130E+02  0.61827078336E+02  0.75206449193E+02  0.00000000000E+00 0.  1.
         22    1    3    3    0    0  0.30424679224E+02  0.75415167407E+02  0.27346692199E+02  0.85795979831E+02  0.00000000000E+00 0.  1.
</event>
<event>
 7    1  0.6188600E-006  0.6742536E+02  0.7818608E-02  0.1430398E+00
          2   -1    0    0  502    0  0.00000000000E+00  0.00000000000E+00  0.21583214297E+04  0.21583214297E+04  0.00000000000E+00 0. -1.
          1   -1    0    0  501    0 -0.00000000000E+00 -0.00000000000E+00 -0.22654195315E+03  0.22654195315E+03  0.00000000000E+00 0. -1.
         25    2    1    2    0    0 -0.84777727331E+02 -0.38687993159E+02  0.18839029372E+03  0.24454048250E+03  0.12500048378E+03 0.  0.
          2    1    1    2  501    0  0.44805492207E+02  0.49743070932E+02 -0.19259279142E+03  0.20389675952E+03  0.00000000000E+00 0. -1.
          1    1    1    2  502    0  0.39972235124E+02 -0.11055077773E+02  0.19359819743E+04  0.19364261409E+04  0.00000000000E+00 0. -1.
         22    1    3    3    0    0  0.49196808546E+01  0.34038465100E+02  0.75907144939E+02  0.83334956764E+02  0.00000000000E+00 0. -1.
         22    1    3    3    0    0 -0.89697408186E+02 -0.72726458259E+02  0.11248314878E+03  0.16120552573E+03  0.00000000000E+00 0. -1.
</event>
<event>
 7    1  0.6188600E-006  0.1010528E+03  0.7818608E-02  0.1289886E+00
          2   -1    0    0  502    0  0.00000000000E+00  0.00000000000E+00  0.15899239172E+04  0.15899239172E+04  0.00000000000E+00 0. -1.
          1   -1    0    0  501    0 -0.00000000000E+00 -0.00000000000E+00 -0.13031978085E+04  0.13031978085E+04  0.00000000000E+00 0. -1.
         25    2    1    2    0    0  0.32156838715E+02  0.16800970557E+03  0.11761678940E+03  0.24232044606E+03  0.12499666391E+03 0.  0.
          2    1    1    2  501    0  0.24337270535E+02 -0.97443984949E+02 -0.12373602732E+04  0.12414298524E+04  0.00000000000E+00 0. -1.
          1    1    1    2  502    0 -0.56494109250E+02 -0.70565720622E+02  0.14064695925E+04  0.14093714272E+04  0.00000000000E+00 0. -1.
         22    1    3    3    0    0 -0.48299564203E+02  0.57367052769E+02  0.38744430293E+02  0.84409463476E+02  0.00000000000E+00 0. -1.
         22    1    3    3    0    0  0.80456402918E+02  0.11064265280E+03  0.78872359110E+02  0.15791098259E+03  0.00000000000E+00 0. -1.
</event>
<event>
 7    1  0.6188600E-006  0.8246904E+02  0.7818608E-02  0.1359555E+00
          2   -1    0    0  502    0  0.00000000000E+00  0.00000000000E+00  0.13742342857E+03  0.13742342857E+03  0.00000000000E+00 0. -1.
          1   -1    0    0  501    0 -0.00000000000E+00 -0.00000000000E+00 -0.87112493345E+03  0.87112493345E+03  0.00000000000E+00 0. -1.
         25    2    1    2    0    0 -0.12629206833E+03  0.45311900928E+02 -0.18724210047E+03  0.26208438511E+03  0.12500306334E+03 0.  0.
          2    1    1    2  501    0  0.59615789448E+02 -0.28817970292E+01 -0.62921104519E+03  0.63203551047E+03  0.00000000000E+00 0. -1.
          1    1    1    2  502    0  0.66676278880E+02 -0.42430103899E+02  0.82751640768E+02  0.11442846644E+03  0.00000000000E+00 0. -1.
         22    1    3    3    0    0 -0.11176588512E+02  0.11325779733E+02 -0.12662074613E+03  0.12761662419E+03  0.00000000000E+00 0.  1.
         22    1    3    3    0    0 -0.11511547982E+03  0.33986121195E+02 -0.60621354333E+02  0.13446776093E+03  0.00000000000E+00 0.  1.
</event>
<event>
 7    1  0.6188600E-006  0.1019718E+03  0.7818608E-02  0.1464784E+00
          2   -1    0    0  502    0  0.00000000000E+00  0.00000000000E+00  0.52253505204E+03  0.52253505204E+03  0.00000000000E+00 0. -1.
          1   -1    0    0  501    0 -0.00000000000E+00 -0.00000000000E+00 -0.17146371325E+04  0.17146371325E+04  0.00000000000E+00 0. -1.
         25    2    1    2    0    0  0.99923301727E+02 -0.49411755060E+02 -0.14572279069E+03  0.22200651143E+03  0.12500228648E+03 0.  0.
          2    1    1    2  501    0 -0.81721446287E+02  0.60409557523E+02 -0.15288513096E+04  0.15322251912E+04  0.00000000000E+00 0. -1.
          1    1    1    2  502    0 -0.18201855440E+02 -0.10997802463E+02  0.48247201984E+03  0.48294048197E+03  0.00000000000E+00 0. -1.
         22    1    3    3    0    0  0.11468327988E+03 -0.30404821774E+02 -0.15587133879E+03  0.19588920881E+03  0.00000000000E+00 0. -1.
         22    1    3    3    0    0 -0.14759978155E+02 -0.19006933286E+02  0.10148548096E+02  0.26117302627E+02  0.00000000000E+00 0. -1.
</event>
<event>
 7    1  0.6188600E-006  0.7513137E+02  0.7818608E-02  0.1471306E+00
          2   -1    0    0  502    0  0.00000000000E+00  0.00000000000E+00  0.23352309598E+04  0.23352309598E+04  0.00000000000E+00 0. -1.
          1   -1    0    0  501    0 -0.00000000000E+00 -0.00000000000E+00 -0.42396961101E+03  0.42396961101E+03  0.00000000000E+00 0. -1.
         25    2    1    2    0    0 -0.41604018640E+01 -0.87237457191E+02  0.32583397844E+03  0.35975316982E+03  0.12500751502E+03 0.  0.
          2    1    1    2  501    0  0.25967477163E+02  0.70412906066E+02 -0.40345430160E+03  0.41037502445E+03  0.00000000000E+00 0. -1.
          1    1    1    2  502    0 -0.21807075299E+02  0.16824551125E+02  0.19888816719E+04  0.19890723765E+04  0.00000000000E+00 0. -1.
         22    1    3    3    0    0  0.34878413730E+02 -0.93795059667E+02  0.28841051298E+03  0.30527797326E+03  0.00000000000E+00 0. -1.
         22    1    3    3    0    0 -0.39038815594E+02  0.65576024768E+01  0.37423465460E+02  0.54475196560E+02  0.00000000000E+00 0. -1.
</event>
<event>
 7    1  0.6188600E-006  0.6948334E+02  0.7818608E-02  0.1367594E+00
          2   -1    0    0  502    0  0.00000000000E+00  0.00000000000E+00  0.21583668646E+04  0.21583668646E+04  0.00000000000E+00 0. -1.
          1   -1    0    0  501    0 -0.00000000000E+00 -0.00000000000E+00 -0.71461304675E+03  0.71461304675E+03  0.00000000000E+00 0. -1.
         25    2    1    2    0    0 -0.14546057834E+02  0.38562135523E+01  0.34076358686E+03  0.36328507395E+03  0.12501905713E+03 0.  0.
          2    1    1    2  501    0  0.22272927244E+02  0.65816800323E+02 -0.70095384097E+03  0.70438925437E+03  0.00000000000E+00 0. -1.
          1    1    1    2  502    0 -0.77268694096E+01 -0.69673013875E+02  0.18039440720E+04  0.18053055831E+04  0.00000000000E+00 0. -1.
         22    1    3    3    0    0 -0.59132856913E+01 -0.17172375839E+02 -0.33102324905E+01  0.18461177611E+02  0.00000000000E+00 0. -1.
         22    1    3    3    0    0 -0.86327721428E+01  0.21028589391E+02  0.34407381935E+03  0.34482389634E+03  0.00000000000E+00 0. -1.
</event>
<event>
 7    1  0.6188600E-006  0.1730346E+03  0.7818608E-02  0.1211242E+00
          2   -1    0    0  502    0  0.00000000000E+00  0.00000000000E+00  0.19505627498E+03  0.19505627498E+03  0.00000000000E+00 0. -1.
          1   -1    0    0  501    0 -0.00000000000E+00 -0.00000000000E+00 -0.20429423309E+04  0.20429423309E+04  0.00000000000E+00 0. -1.
         25    2    1    2    0    0 -0.48890084009E+02  0.67077228125E+02  0.44301970322E+01  0.15011449684E+03  0.12500056267E+03 0.  0.
          2    1    1    2  501    0  0.16469308818E+03 -0.68679984320E+02 -0.19365017269E+04  0.19447055540E+04  0.00000000000E+00 0. -1.
          1    1    1    2  502    0 -0.11580300417E+03  0.16027561954E+01  0.84185473921E+02  0.14317855504E+03  0.00000000000E+00 0. -1.
         22    1    3    3    0    0 -0.53991109491E+02  0.80102800792E+02  0.45462639991E+02  0.10676305650E+03  0.00000000000E+00 0.  1.
         22    1    3    3    0    0  0.51010254816E+01 -0.13025572667E+02 -0.41032442959E+02  0.43351440339E+02  0.00000000000E+00 0.  1.
</event>
<event>
 7    1  0.6188600E-006  0.1251259E+03  0.7818608E-02  0.1337011E+00
          2   -1    0    0  502    0  0.00000000000E+00  0.00000000000E+00  0.14803923402E+04  0.14803923402E+04  0.00000000000E+00 0. -1.
          1   -1    0    0  501    0 -0.00000000000E+00 -0.00000000000E+00 -0.30198392930E+03  0.30198392930E+03  0.00000000000E+00 0. -1.
         25    2    1    2    0    0 -0.15191581743E+03  0.52730341328E+02 -0.71996979830E+02  0.21602675243E+03  0.12500035272E+03 0.  0.
          2    1    1    2  501    0  0.11164244361E+03 -0.27160237826E+02 -0.13661513681E+03  0.17850884947E+03  0.00000000000E+00 0. -1.
          1    1    1    2  502    0  0.40273373818E+02 -0.25570103502E+02  0.13870205275E+04  0.13878406676E+04  0.00000000000E+00 0. -1.
         22    1    3    3    0    0 -0.18527248357E+02 -0.40115293052E+01  0.32298034180E+02  0.37450157689E+02  0.00000000000E+00 0. -1.
         22    1    3    3    0    0 -0.13338856907E+03  0.56741870633E+02 -0.10429501401E+03  0.17857659474E+03  0.00000000000E+00 0. -1.
</event>
<event>
 7    1  0.6188600E-006  0.1910997E+03  0.7818608E-02  0.1331994E+00
          2   -1    0    0  502    0  0.00000000000E+00  0.00000000000E+00  0.49841258713E+03  0.49841258713E+03  0.00000000000E+00 0. -1.
          1   -1    0    0  501    0 -0.00000000000E+00 -0.00000000000E+00 -0.10867065527E+04  0.10867065527E+04  0.00000000000E+00 0. -1.
         25    2    1    2    0    0  0.10282612477E+03  0.15951210252E+03  0.52154817662E+02  0.23315719965E+03  0.12499932783E+03 0.  0.
          2    1    1    2  501    0 -0.27686913182E+02  0.17277129055E+02 -0.96998002789E+03  0.97052888615E+03  0.00000000000E+00 0. -1.
          1    1    1    2  502    0 -0.75139211585E+02 -0.17678923157E+03  0.32953124465E+03  0.38143305404E+03  0.00000000000E+00 0. -1.
         22    1    3    3    0    0  0.28801077621E+02  0.14684485009E+03  0.18228748120E+02  0.15074879544E+03  0.00000000000E+00 0.  1.
         22    1    3    3    0    0  0.74025047146E+02  0.12667252433E+02  0.33926069542E+02  0.82408404206E+02  0.00000000000E+00 0.  1.
</event>
<event>
 7    1  0.6188600E-006  0.8163873E+02  0.7818608E-02  0.1356350E+00
          2   -1    0    0  502    0  0.00000000000E+00  0.00000000000E+00  0.15256608788E+03  0.15256608788E+03  0.00000000000E+00 0. -1.
          1   -1    0    0  501    0 -0.00000000000E+00 -0.00000000000E+00 -0.58974396724E+03  0.58974396724E+03  0.00000000000E+00 0. -1.
         25    2    1    2    0    0  0.27086427908E+01  0.33610893270E+02  0.43623228278E+01  0.12953714872E+03  0.12499525649E+03 0.  0.
          2    1    1    2  501    0 -0.58088992550E+02 -0.61360649379E+02 -0.51201766032E+03  0.51894271825E+03  0.00000000000E+00 0. -1.
          1    1    1    2  502    0  0.55380349759E+02  0.27749756109E+02  0.70477458128E+02  0.93830188148E+02  0.00000000000E+00 0. -1.
         22    1    3    3    0    0 -0.14421148143E+02  0.79334602897E+02  0.23773018677E+01  0.80669698739E+02  0.00000000000E+00 0.  1.
         22    1    3    3    0    0  0.17129790934E+02 -0.45723709626E+02  0.19850209602E+01  0.48867449981E+02  0.00000000000E+00 0.  1.
</event>
<event>
 7    1  0.6188600E-006  0.1197537E+03  0.7818608E-02  0.1300486E+00
          2   -1    0    0  502    0  0.00000000000E+00  0.00000000000E+00  0.17141483612E+04  0.17141483612E+04  0.00000000000E+00 0. -1.
          1   -1    0    0  501    0 -0.00000000000E+00 -0.00000000000E+00 -0.12472380677E+04  0.12472380677E+04  0.00000000000E+00 0. -1.
         25    2    1    2    0    0 -0.48793724881E+01 -0.73360227347E+02  0.11260643439E+03  0.18360379125E+03  0.12499844744E+03 0.  0.
          2    1    1    2  501    0 -0.55182818881E+02  0.10757924879E+03 -0.12079571945E+04  0.12139930074E+04  0.00000000000E+00 0. -1.
          1    1    1    2  502    0  0.60062191369E+02 -0.34219021441E+02  0.15622610535E+04  0.15637896302E+04  0.00000000000E+00 0. -1.
         22    1    3    3    0    0  0.17186415784E+02  0.88923277068E+01 -0.18823227850E+02  0.26995560491E+02  0.00000000000E+00 0.  1.
         22    1    3    3    0    0 -0.22065788272E+02 -0.82252555054E+02  0.13142966224E+03  0.15660823076E+03  0.00000000000E+00 0.  1.
</event>
<event>
 7    1  0.6188600E-006  0.9371442E+02  0.7818608E-02  0.1448079E+00
          2   -1    0    0  502    0  0.00000000000E+00  0.00000000000E+00  0.13130551510E+04  0.13130551510E+04  0.00000000000E+00 0. -1.
          1   -1    0    0  501    0 -0.00000000000E+00 -0.00000000000E+00 -0.32215638278E+03  0.32215638278E+03  0.00000000000E+00 0. -1.
         25    2    1    2    0    0  0.49821318259E+01  0.11712247035E+03  0.34728475107E+03  0.38726472120E+03  0.12499908506E+03 0.  0.
          2    1    1    2  501    0 -0.24610051338E+01 -0.26025521519E+02 -0.29940025096E+03  0.30053933951E+03  0.00000000000E+00 0. -1.
          1    1    1    2  502    0 -0.25211266921E+01 -0.91096948836E+02  0.94301426808E+03  0.94740747304E+03  0.00000000000E+00 0. -1.
         22    1    3    3    0    0  0.16266887279E+02  0.63501049885E+02  0.43719001464E+02  0.78793058370E+02  0.00000000000E+00 0. -1.
         22    1    3    3    0    0 -0.11284755454E+02  0.53621420469E+02  0.30356574960E+03  0.30847166283E+03  0.00000000000E+00 0. -1.
</event>
<event>
 7    1  0.6188600E-006  0.7600367E+02  0.7818608E-02  0.1389924E+00
          2   -1    0    0  502    0  0.00000000000E+00  0.00000000000E+00  0.97412662025E+02  0.97412662025E+02  0.00000000000E+00 0. -1.
          1   -1    0    0  501    0 -0.00000000000E+00 -0.00000000000E+00 -0.53421549996E+03  0.53421549996E+03  0.00000000000E+00 0. -1.
         25    2    1    2    0    0 -0.72252487739E+02  0.92228344684E+02 -0.29046045185E+03  0.33722224036E+03  0.12500030303E+03 0.  0.
          2    1    1    2  501    0  0.40282996618E+02 -0.53193865643E+02 -0.20584590513E+03  0.21639048920E+03  0.00000000000E+00 0. -1.
          1    1    1    2  502    0  0.31969491121E+02 -0.39034479042E+02  0.59503519048E+02  0.78015432420E+02  0.00000000000E+00 0. -1.
         22    1    3    3    0    0 -0.79892762766E+02  0.47102199312E+02 -0.81998353749E+02  0.12379499481E+03  0.00000000000E+00 0.  1.
         22    1    3    3    0    0  0.76402750273E+01  0.45126145372E+02 -0.20846209810E+03  0.21342724555E+03  0.00000000000E+00 0.  1.
</event>
<event>
 7    1  0.6188600E-006  0.6407051E+02  0.7818608E-02  0.1420592E+00
          2   -1    0    0  502    0  0.00000000000E+00  0.00000000000E+00  0.50002190320E+03  0.50002190320E+03  0.00000000000E+00 0. -1.
          1   -1    0    0  501    0 -0.00000000000E+00 -0.00000000000E+00 -0.15778371231E+04  0.15778371231E+04  0.00000000000E+00 0. -1.
         25    2    1    2    0    0  0.94316350246E+02  0.44781566308E+02 -0.42185279535E+03  0.45220278663E+03  0.12500646659E+03 0.  0.
          2    1    1    2  501    0 -0.47546997535E+02 -0.39788846735E+02 -0.11388234238E+04  0.11405098245E+04  0.00000000000E+00 0. -1.
          1    1    1    2  502    0 -0.46769352710E+02 -0.49927195729E+01  0.48286099920E+03  0.48514641517E+03  0.00000000000E+00 0. -1.
         22    1    3    3    0    0  0.11689868862E+03  0.59307858847E+02 -0.38427814675E+03  0.40602022067E+03  0.00000000000E+00 0.  1.
         22    1    3    3    0    0 -0.22582338377E+02 -0.14526292539E+02 -0.37574648602E+02  0.46182565964E+02  0.00000000000E+00 0.  1.
</event>
<event>
 7    1  0.6188600E-006  0.6727338E+02  0.7818608E-02  0.1436403E+00
          2   -1    0    0  502    0  0.00000000000E+00  0.00000000000E+00  0.62382697254E+02  0.62382697254E+02  0.00000000000E+00 0. -1.
          1   -1    0    0  501    0 -0.00000000000E+00 -0.00000000000E+00 -0.13997074982E+04  0.13997074982E+04  0.00000000000E+00 0. -1.
         25    2    1    2    0    0 -0.49506958616E+02 -0.64952138493E+02 -0.82423923602E+02  0.17055485299E+03  0.12500214179E+03 0.  0.
          2    1    1    2  501    0 -0.85651977583E+01  0.38791316892E+02 -0.12165280509E+04  0.12171764981E+04  0.00000000000E+00 0. -1.
          1    1    1    2  502    0  0.58072156374E+02  0.26160821600E+02 -0.38372826529E+02  0.74358844454E+02  0.00000000000E+00 0. -1.
         22    1    3    3    0    0 -0.29896176466E+02 -0.44793479995E+02 -0.11532024120E+03  0.12727527351E+03  0.00000000000E+00 0. -1.
         22    1    3    3    0    0 -0.19610782150E+02 -0.20158658497E+02  0.32896317595E+02  0.43279579483E+02  0.00000000000E+00 0. -1.
</event>
<event>
 7    1  0.6188600E-006  0.5071923E+02  0.7818608E-02  0.1544083E+00
          2   -1    0    0  502    0  0.00000000000E+00  0.00000000000E+00  0.53521628041E+03  0.53521628041E+03  0.00000000000E+00 0. -1.
          1   -1    0    0  501    0 -0.00000000000E+00 -0.00000000000E+00 -0.37445105775E+03  0.37445105775E+03  0.00000000000E+00 0. -1.
         25    2    1    2    0    0 -0.29127402944E+02 -0.18739494785E+02  0.90397287564E+02  0.15809460486E+03  0.12499064053E+03 0.  0.
          2    1    1    2  501    0  0.14048954396E+01 -0.24827435128E+02 -0.33852239348E+03  0.33943450938E+03  0.00000000000E+00 0. -1.
          1    1    1    2  502    0  0.27722507504E+02  0.43566929913E+02  0.40889032858E+03  0.41213822392E+03  0.00000000000E+00 0. -1.
         22    1    3    3    0    0 -0.15251670467E+02 -0.47012782815E+02 -0.12085984689E+02  0.50881098907E+02  0.00000000000E+00 0.  1.
         22    1    3    3    0    0 -0.13875732476E+02  0.28273288030E+02  0.10248327225E+03  0.10721350596E+03  0.00000000000E+00 0.  1.
</event>
<event>
 7    1  0.6188600E-006  0.6538632E+02  0.7818608E-02  0.1382157E+00
          2   -1    0    0  502    0  0.00000000000E+00  0.00000000000E+00  0.21442853155E+03  0.21442853155E+03  0.00000000000E+00 0. -1.
          1   -1    0    0  501    0 -0.00000000000E+00 -0.00000000000E+00 -0.81321977236E+03  0.81321977236E+03  0.00000000000E+00 0. -1.
         25    2    1    2    0    0 -0.91656936849E+02 -0.34587503616E+02 -0.10237850570E+03  0.18895367469E+03  0.12499937309E+03 0.  0.
          2    1    1    2  501    0  0.61718973192E+02 -0.20216207392E+02 -0.66021013960E+03  0.66339683081E+03  0.00000000000E+00 0. -1.
          1    1    1    2  502    0  0.29937963657E+02  0.54803711008E+02  0.16379740449E+03  0.17529779840E+03  0.00000000000E+00 0. -1.
         22    1    3    3    0    0 -0.98150334560E+02 -0.57368122508E+02 -0.37221807335E+02  0.11962463206E+03  0.00000000000E+00 0. -1.
         22    1    3    3    0    0  0.64933977114E+01  0.22780618892E+02 -0.65156698363E+02  0.69329042634E+02  0.00000000000E+00 0. -1.
</event>
<event>
 7    1  0.6188600E-006  0.1225269E+03  0.7818608E-02  0.1278106E+00
          2   -1    0    0  502    0  0.00000000000E+00  0.00000000000E+00  0.38552724073E+04  0.38552724073E+04  0.00000000000E+00 0. -1.
          1   -1    0    0  501    0 -0.00000000000E+00 -0.00000000000E+00 -0.96725255677E+03  0.96725255677E+03  0.00000000000E+00 0. -1.
         25    2    1    2    0    0 -0.17218895127E+03 -0.10644673539E+03  0.53751115770E+03  0.58781173225E+03  0.12499778202E+03 0.  0.
          2    1    1    2  501    0  0.70571588139E+02  0.44322355612E+02 -0.93917957719E+03  0.94286960841E+03  0.00000000000E+00 0. -1.
          1    1    1    2  502    0  0.10161736313E+03  0.62124379776E+02  0.32896882701E+04  0.32918436235E+04  0.00000000000E+00 0. -1.
         22    1    3    3    0    0 -0.17770674170E+03 -0.10987408733E+03  0.54134848749E+03  0.58026734013E+03  0.00000000000E+00 0.  1.
         22    1    3    3    0    0  0.55177904273E+01  0.34273519377E+01 -0.38373297966E+01  0.75443921208E+01  0.00000000000E+00 0.  1.
</event>
<event>
 7    1  0.7985924E-006  0.6958561E+02  0.7818608E-02  0.1414354E+00
          2   -1    0    0  502    0  0.00000000000E+00  0.00000000000E+00  0.10703796139E+04  0.10703796139E+04  0.00000000000E+00 0. -1.
          1   -1    0    0  501    0 -0.00000000000E+00 -0.00000000000E+00 -0.61918468102E+03  0.61918468102E+03  0.00000000000E+00 0. -1.
         25    2    1    2    0    0  0.59129854167E+02 -0.33234594839E+02 -0.25324357802E+03  0.29044539804E+03  0.12500136594E+03 0.  0.
          2    1    1    2  501    0  0.96230885440E+01  0.44412777616E+02 -0.34469396563E+03  0.34767661496E+03  0.00000000000E+00 0. -1.
          1    1    1    2  502    0 -0.68752942711E+02 -0.11178182777E+02  0.10491324765E+04  0.10514422819E+04  0.00000000000E+00 0. -1.
         22    1    3    3    0    0  0.13222469924E+02 -0.68027647833E+02 -0.70580481346E+02  0.98915109703E+02  0.00000000000E+00 0. -1.
         22    1    3    3    0    0  0.45907384243E+02  0.34793052994E+02 -0.18266309667E+03  0.19153028834E+03  0.00000000000E+00 0. -1.
</event>
<event>
 7    1  0.6188600E-006  0.1723399E+03  0.7818608E-02  0.1291667E+00
          2   -1    0    0  502    0  0.00000000000E+00  0.00000000000E+00  0.50522196483E+03  0.50522196483E+03  0.00000000000E+00 0. -1.
          1   -1    0    0  501    0 -0.00000000000E+00 -0.00000000000E+00 -0.27241904051E+04  0.27241904051E+04  0.00000000000E+00 0. -1.
         25    2    1    2    0    0  0.14312374104E+03 -0.35256733226E+02 -0.54411437754E+03  0.57741560974E+03  0.12498355110E+03 0.  0.
          2    1    1    2  501    0  0.29897652959E+02  0.42701783163E+02 -0.21477525206E+04  0.21483850218E+04  0.00000000000E+00 0. -1.
          1    1    1    2  502    0 -0.17302139400E+03 -0.74450499367E+01  0.47289845791E+03  0.50361173839E+03  0.00000000000E+00 0. -1.
         22    1    3    3    0    0  0.84229392188E+02 -0.48812510511E+02 -0.15085461832E+03  0.17953932037E+03  0.00000000000E+00 0. -1.
         22    1    3    3    0    0  0.58894348851E+02  0.13555777285E+02 -0.39325975922E+03  0.39787628937E+03  0.00000000000E+00 0. -1.
</event>
<event>
 7    1  0.6188600E-006  0.1426669E+03  0.7818608E-02  0.1320276E+00
          2   -1    0    0  502    0  0.00000000000E+00  0.00000000000E+00  0.40485398566E+03  0.40485398566E+03  0.00000000000E+00 0. -1.
          1   -1    0    0  501    0 -0.00000000000E+00 -0.00000000000E+00 -0.37626892737E+03  0.37626892737E+03  0.00000000000E+00 0. -1.
         25    2    1    2    0    0  0.89293100680E+01  0.14890203227E+03  0.14183156210E+03  0.24081938179E+03  0.12500493928E+03 0.  0.
          2    1    1    2  501    0 -0.46994225040E+02 -0.11954247516E+02 -0.30096288243E+03  0.30484425174E+03  0.00000000000E+00 0. -1.
          1    1    1    2  502    0  0.38064914972E+02 -0.13694778476E+03  0.18771637862E+03  0.23545927950E+03  0.00000000000E+00 0. -1.
         22    1    3    3    0    0  0.24326224871E+02 -0.18505878617E+00 -0.11054555462E+02  0.26720828200E+02  0.00000000000E+00 0.  1.
         22    1    3    3    0    0 -0.15396914803E+02  0.14908709106E+03  0.15288611756E+03  0.21409855359E+03  0.00000000000E+00 0.  1.
</event>
<event>
 7    1  0.6188600E-006  0.1692428E+03  0.7818608E-02  0.1267615E+00
          2   -1    0    0  502    0  0.00000000000E+00  0.00000000000E+00  0.31560725624E+04  0.31560725624E+04  0.00000000000E+00 0. -1.
          1   -1    0    0  501    0 -0.00000000000E+00 -0.00000000000E+00 -0.81921626262E+03  0.81921626262E+03  0.00000000000E+00 0. -1.
         25    2    1    2    0    0 -0.21755718720E+03  0.50756029523E+02  0.27815132776E+03  0.37802032940E+03  0.12499561622E+03 0.  0.
          2    1    1    2  501    0  0.16772000779E+03 -0.63616494206E+01 -0.75972718527E+03  0.77804618606E+03  0.00000000000E+00 0. -1.
          1    1    1    2  502    0  0.49837179411E+02 -0.44394380102E+02  0.28184321573E+04  0.28192223096E+04  0.00000000000E+00 0. -1.
         22    1    3    3    0    0  0.42105036621E+01 -0.21949024732E+02  0.29361315853E+02  0.36899524339E+02  0.00000000000E+00 0. -1.
         22    1    3    3    0    0 -0.22176769086E+03  0.72705054255E+02  0.24879001191E+03  0.34112080507E+03  0.00000000000E+00 0. -1.
</event>
<event>
 7    1  0.6188600E-006  0.5683396E+02  0.7818608E-02  0.1524955E+00
          2   -1    0    0  502    0  0.00000000000E+00  0.00000000000E+00  0.71434048124E+03  0.71434048124E+03  0.00000000000E+00 0. -1.
          1   -1    0    0  501    0 -0.00000000000E+00 -0.00000000000E+00 -0.36916365526E+03  0.36916365526E+03  0.00000000000E+00 0. -1.
         25    2    1    2    0    0  0.27825413242E+02 -0.18930417219E+02 -0.75143298964E+02  0.14968143123E+03  0.12500160462E+03 0.  0.
          2    1    1    2  501    0  0.11685053860E+02 -0.22278894011E+02 -0.25492758691E+03  0.25616589189E+03  0.00000000000E+00 0. -1.
          1    1    1    2  502    0 -0.39510467102E+02  0.41209311230E+02  0.67524771185E+03  0.67765681337E+03  0.00000000000E+00 0. -1.
         22    1    3    3    0    0  0.45849420659E+02  0.39975561487E+02 -0.13046741369E+02  0.62212798935E+02  0.00000000000E+00 0. -1.
         22    1    3    3    0    0 -0.18024007417E+02 -0.58905978706E+02 -0.62096557595E+02  0.87468632296E+02  0.00000000000E+00 0. -1.
</event>
<event>
 7    1  0.6188600E-006  0.1273006E+03  0.7818608E-02  0.1276882E+00
          2   -1    0    0  502    0  0.00000000000E+00  0.00000000000E+00  0.74307065384E+03  0.74307065384E+03  0.00000000000E+00 0. -1.
          1   -1    0    0  501    0 -0.00000000000E+00 -0.00000000000E+00 -0.73180278314E+03  0.73180278314E+03  0.00000000000E+00 0. -1.
         25    2    1    2    0    0 -0.17836631532E+03 -0.22489102622E+02  0.40051794195E+02  0.22260073876E+03  0.12500656184E+03 0.  0.
          2    1    1    2  501    0  0.12062695391E+03 -0.34538615999E+02 -0.63163836663E+03  0.64398043775E+03  0.00000000000E+00 0. -1.
          1    1    1    2  502    0  0.57739361413E+02  0.57027718621E+02  0.60285444313E+03  0.60829226047E+03  0.00000000000E+00 0. -1.
         22    1    3    3    0    0 -0.11357268740E+02  0.37376583446E+02 -0.54546578742E+01  0.39442994763E+02  0.00000000000E+00 0.  1.
         22    1    3    3    0    0 -0.16700904658E+03 -0.59865686068E+02  0.45506452069E+02  0.18315774400E+03  0.00000000000E+00 0.  1.
</event>
<event>
 7    1  0.6188600E-006  0.1658493E+03  0.7818608E-02  0.1338508E+00
          2   -1    0    0  502    0  0.00000000000E+00  0.00000000000E+00  0.33357600801E+04  0.33357600801E+04  0.00000000000E+00 0. -1.
          1   -1    0    0  501    0 -0.00000000000E+00 -0.00000000000E+00 -0.13652810691E+04  0.13652810691E+04  0.00000000000E+00 0. -1.
         25    2    1    2    0    0 -0.39969462054E+02 -0.17708715844E+03  0.82741420396E+03  0.85626610485E+03  0.12497982968E+03 0.  0.
          2    1    1    2  501    0  0.63341635197E+01  0.16565180344E+03 -0.13456420788E+04  0.13558146060E+04  0.00000000000E+00 0. -1.
          1    1    1    2  502    0  0.33635298534E+02  0.11435355001E+02  0.24887068858E+04  0.24889604384E+04  0.00000000000E+00 0. -1.
         22    1    3    3    0    0 -0.41148763419E+01 -0.14724221751E+03  0.76087994772E+03  0.77500677266E+03  0.00000000000E+00 0.  1.
         22    1    3    3    0    0 -0.35854585712E+02 -0.29844940925E+02  0.66534256240E+02  0.81259332195E+02  0.00000000000E+00 0.  1.
</event>
<event>
 7    1  0.6188600E-006  0.6156857E+02  0.7818608E-02  0.1434156E+00
          2   -1    0    0  502    0  0.00000000000E+00  0.00000000000E+00  0.16026163517E+03  0.16026163517E+03  0.00000000000E+00 0. -1.
          1   -1    0    0  501    0 -0.00000000000E+00 -0.00000000000E+00 -0.46246714936E+03  0.46246714936E+03  0.00000000000E+00 0. -1.
         25    2    1    2    0    0  0.13182994827E+02  0.20047043387E+02 -0.14649863081E+02  0.12812147986E+03  0.12499927924E+03 0.  0.
          2    1    1    2  501    0  0.33751990227E+02  0.28455527385E+02 -0.37866051364E+03  0.38122525949E+03  0.00000000000E+00 0. -1.
          1    1    1    2  502    0 -0.46934985054E+02 -0.48502570771E+02  0.91104862530E+02  0.11338204518E+03  0.00000000000E+00 0. -1.
         22    1    3    3    0    0 -0.12748423280E+02  0.69627532407E+02 -0.14050146391E+02  0.72165935031E+02  0.00000000000E+00 0. -1.
         22    1    3    3    0    0  0.25931418107E+02 -0.49580489021E+02 -0.59971669017E+00  0.55955544825E+02  0.00000000000E+00 0. -1.
</event>
<event>
 7    1  0.6188600E-006  0.1310385E+03  0.7818608E-02  0.1340321E+00
          2   -1    0    0  502    0  0.00000000000E+00  0.00000000000E+00  0.21049913292E+04  0.21049913292E+04  0.00000000000E+00 0. -1.
          1   -1    0    0  501    0 -0.00000000000E+00 -0.00000000000E+00 -0.71824296139E+03  0.71824296139E+03  0.00000000000E+00 0. -1.
         25    2    1    2    0    0  0.89432016012E+02 -0.14948735887E+03  0.29432263901E+03  0.36413801957E+03  0.12500450198E+03 0.  0.
          2    1    1    2  501    0 -0.63052070660E+02  0.11394485776E+03 -0.67685147564E+03  0.68926548898E+03  0.00000000000E+00 0. -1.
          1    1    1    2  502    0 -0.26379945352E+02  0.35542501115E+02  0.17692772044E+04  0.17698307820E+04  0.00000000000E+00 0. -1.
         22    1    3    3    0    0  0.67146326545E+02 -0.10895113624E+02  0.58598958195E+02  0.89784021801E+02  0.00000000000E+00 0. -1.
         22    1    3    3    0    0  0.22285689468E+02 -0.13859224525E+03  0.23572368081E+03  0.27435399777E+03  0.00000000000E+00 0. -1.
</event>
<event>
 7    1  0.6188600E-006  0.1551771E+03  0.7818608E-02  0.1199369E+00
          2   -1    0    0  502    0  0.00000000000E+00  0.00000000000E+00  0.17285724186E+04  0.17285724186E+04  0.00000000000E+00 0. -1.
          1   -1    0    0  501    0 -0.00000000000E+00 -0.00000000000E+00 -0.35278934521E+03  0.35278934521E+03  0.00000000000E+00 0. -1.
         25    2    1    2    0    0 -0.75143406507E+02  0.26824104282E+03  0.18794195663E+03  0.35853398252E+03  0.12499859586E+03 0.  0.
          2    1    1    2  501    0 -0.12446824305E+02 -0.14621617281E+03 -0.24313640814E+03  0.28398838989E+03  0.00000000000E+00 0. -1.
          1    1    1    2  502    0  0.87590230812E+02 -0.12202487001E+03  0.14309775249E+04  0.14388393914E+04  0.00000000000E+00 0. -1.
         22    1    3    3    0    0 -0.88091326056E+02  0.22669542957E+03  0.19829580634E+03  0.31380268693E+03  0.00000000000E+00 0. -1.
         22    1    3    3    0    0  0.12947919548E+02  0.41545613256E+02 -0.10353849713E+02  0.44731295592E+02  0.00000000000E+00 0. -1.
</event>
<event>
 7    1  0.6188600E-006  0.8324797E+02  0.7818608E-02  0.1399006E+00
          2   -1    0    0  502    0  0.00000000000E+00  0.00000000000E+00  0.11426922271E+03  0.11426922271E+03  0.00000000000E+00 0. -1.
          1   -1    0    0  501    0 -0.00000000000E+00 -0.00000000000E+00 -0.20132031292E+04  0.20132031292E+04  0.00000000000E+00 0. -1.
         25    2    1    2    0    0 -0.10924241483E+03 -0.50729490568E+02 -0.54009529994E+03  0.56730557777E+03  0.12500119652E+03 0.  0.
          2    1    1    2  501    0  0.42776275139E+02  0.23937639021E+01 -0.14423576080E+04  0.14429937661E+04  0.00000000000E+00 0. -1.
          1    1    1    2  502    0  0.66466139688E+02  0.48335726666E+02  0.83519001445E+02  0.11717300798E+03  0.00000000000E+00 0. -1.
         22    1    3    3    0    0  0.26116516798E+02 -0.23108039340E+02 -0.12832435826E+03  0.13297817436E+03  0.00000000000E+00 0. -1.
         22    1    3    3    0    0 -0.13535893163E+03 -0.27621451228E+02 -0.41177094168E+03  0.43432740341E+03  0.00000000000E+00 0. -1.
</event>
<event>
 7    1  0.6188600E-006  0.6248668E+02  0.7818608E-02  0.1410252E+00
          2   -1    0    0  502    0  0.00000000000E+00  0.00000000000E+00  0.30803310210E+04  0.30803310210E+04  0.00000000000E+00 0. -1.
          1   -1    0    0  501    0 -0.00000000000E+00 -0.00000000000E+00 -0.77499899796E+02  0.77499899796E+02  0.00000000000E+00 0. -1.
         25    2    1    2    0    0 -0.50097909972E+02 -0.40109191103E+01  0.67729935422E+03  0.69056816716E+03  0.12499636077E+03 0.  0.
          2    1    1    2  501    0  0.67508964609E+01  0.51808680538E+02 -0.60739826496E+02  0.80118914776E+02  0.00000000000E+00 0. -1.
          1    1    1    2  502    0  0.43347013511E+02 -0.47797761428E+02  0.23862715934E+04  0.23871438388E+04  0.00000000000E+00 0. -1.
         22    1    3    3    0    0 -0.35438988898E+02 -0.38634552522E+02  0.10824192825E+03  0.12026996971E+03  0.00000000000E+00 0. -1.
         22    1    3    3    0    0 -0.14658921074E+02  0.34623633411E+02  0.56905742598E+03  0.57029819745E+03  0.00000000000E+00 0. -1.
</event>
<event>
 7    1  0.6188600E-006  0.5471730E+02  0.7818608E-02  0.1459368E+00
          2   -1    0    0  502    0  0.00000000000E+00  0.00000000000E+00  0.17163601585E+03  0.17163601585E+03  0.00000000000E+00 0. -1.
          1   -1    0    0  501    0 -0.00000000000E+00 -0.00000000000E+00 -0.14509220961E+04  0.14509220961E+04  0.00000000000E+00 0. -1.
         25    2    1    2    0    0 -0.16167338096E+02  0.12391798134E+02 -0.63518690485E+03  0.64769148371E+03  0.12500765775E+03 0.  0.
          2    1    1    2  501    0  0.54212913658E+02 -0.28249038077E+02 -0.80573880406E+03  0.80805449601E+03  0.00000000000E+00 0. -1.
          1    1    1    2  502    0 -0.38045575562E+02  0.15857239943E+02  0.16163962870E+03  0.16681213219E+03  0.00000000000E+00 0. -1.
         22    1    3    3    0    0 -0.17933376204E+02 -0.50557228569E+02 -0.42206736294E+03  0.42546268721E+03  0.00000000000E+00 0. -1.
         22    1    3    3    0    0  0.17660381089E+01  0.62949026704E+02 -0.21311954190E+03  0.22222879650E+03  0.00000000000E+00 0. -1.
</event>
<event>
 7    1  0.6188600E-006  0.6167971E+02  0.7818608E-02  0.1428607E+00
          2   -1    0    0  502    0  0.00000000000E+00  0.00000000000E+00  0.33270691047E+03  0.33270691047E+03  0.00000000000E+00 0. -1.
          1   -1    0    0  501    0 -0.00000000000E+00 -0.00000000000E+00 -0.10914996666E+04  0.10914996666E+04  0.00000000000E+00 0. -1.
         25    2    1    2    0    0  0.65825426545E+02  0.83598216795E+02 -0.14261519543E+03  0.21745021611E+03  0.12499541547E+03 0.  0.
          2    1    1    2  501    0 -0.38419029207E+02 -0.46708316789E+02 -0.90866757674E+03  0.91067801867E+03  0.00000000000E+00 0. -1.
          1    1    1    2  502    0 -0.27406397338E+02 -0.36889900006E+02  0.29249001600E+03  0.29607834233E+03  0.00000000000E+00 0. -1.
         22    1    3    3    0    0  0.59830393610E+02  0.75259713991E+02 -0.16604333117E+03  0.19186997778E+03  0.00000000000E+00 0.  1.
         22    1    3    3    0    0  0.59950329349E+01  0.83385028036E+01  0.23428135738E+02  0.25580238331E+02  0.00000000000E+00 0.  1.
</event>
<event>
 7    1  0.6188600E-006  0.9473165E+02  0.7818608E-02  0.1371960E+00
          2   -1    0    0  502    0  0.00000000000E+00  0.00000000000E+00  0.10619727678E+04  0.10619727678E+04  0.00000000000E+00 0. -1.
          1   -1    0    0  501    0 -0.00000000000E+00 -0.00000000000E+00 -0.43461294413E+03  0.43461294413E+03  0.00000000000E+00 0. -1.
         25    2    1    2    0    0  0.19430378261E+02  0.12021879873E+03  0.10475332537E+03  0.20353951230E+03  0.12499989890E+03 0.  0.
          2    1    1    2  501    0 -0.37415880471E+02 -0.28208416940E+02 -0.38136160690E+03  0.38422953832E+03  0.00000000000E+00 0. -1.
          1    1    1    2  502    0  0.17985502210E+02 -0.92010381785E+02  0.90396810521E+03  0.90881666132E+03  0.00000000000E+00 0. -1.
         22    1    3    3    0    0  0.69966313683E+02  0.62059466893E+02  0.35796603369E+02  0.10014019819E+03  0.00000000000E+00 0.  1.
         22    1    3    3    0    0 -0.50535935422E+02  0.58159331833E+02  0.68956722001E+02  0.10339931410E+03  0.00000000000E+00 0.  1.
</event>
<event>
 7    1  0.6188600E-006  0.5064198E+02  0.7818608E-02  0.1520244E+00
          2   -1    0    0  502    0  0.00000000000E+00  0.00000000000E+00  0.96093045411E+02  0.96093045411E+02  0.00000000000E+00 0. -1.
          1   -1    0    0  501    0 -0.00000000000E+00 -0.00000000000E+00 -0.66934172996E+03  0.66934172996E+03  0.00000000000E+00 0. -1.
         25    2    1    2    0    0  0.32350782268E+02  0.27071736086E+01 -0.35520447227E+03  0.37795344129E+03  0.12499873903E+03 0.  0.
          2    1    1    2  501    0 -0.48162094824E+02 -0.27176780762E+02 -0.29763355877E+03  0.30272743532E+03  0.00000000000E+00 0. -1.
          1    1    1    2  502    0  0.15811312556E+02  0.24469607154E+02  0.79589346494E+02  0.84753898756E+02  0.00000000000E+00 0. -1.
         22    1    3    3    0    0  0.13819645851E+02 -0.58494393325E+02 -0.11999340282E+03  0.13420504231E+03  0.00000000000E+00 0.  1.
         22    1    3    3    0    0  0.18531136417E+02  0.61201566934E+02 -0.23521106945E+03  0.24374839898E+03  0.00000000000E+00 0.  1.
</event>
<event>
 7    1  0.6188600E-006  0.4277437E+02  0.7818608E-02  0.1552103E+00
          2   -1    0    0  502    0  0.00000000000E+00  0.00000000000E+00  0.10010690596E+03  0.10010690596E+03  0.00000000000E+00 0. -1.
          1   -1    0    0  501    0 -0.00000000000E+00 -0.00000000000E+00 -0.11470074215E+04  0.11470074215E+04  0.00000000000E+00 0. -1.
         25    2    1    2    0    0 -0.14991608293E+01  0.23781078315E+02 -0.46830417410E+03  0.48528509607E+03  0.12500015128E+03 0.  0.
          2    1    1    2  501    0 -0.26574813875E+02  0.88250384073E+01 -0.66484998580E+03  0.66543940795E+03  0.00000000000E+00 0. -1.
          1    1    1    2  502    0  0.28073974704E+02 -0.32606116722E+02  0.86253644342E+02  0.96389823454E+02  0.00000000000E+00 0. -1.
         22    1    3    3    0    0  0.42572690453E+02  0.33800580820E+02 -0.39807590760E+03  0.40177025953E+03  0.00000000000E+00 0.  1.
         22    1    3    3    0    0 -0.44071851282E+02 -0.10019502505E+02 -0.70228266503E+02  0.83514836537E+02  0.00000000000E+00 0.  1.
</event>
<event>
 7    1  0.6188600E-006  0.8003528E+02  0.7818608E-02  0.1378216E+00
          2   -1    0    0  502    0  0.00000000000E+00  0.00000000000E+00  0.62345434649E+03  0.62345434649E+03  0.00000000000E+00 0. -1.
          1   -1    0    0  501    0 -0.00000000000E+00 -0.00000000000E+00 -0.35966728606E+03  0.35966728606E+03  0.00000000000E+00 0. -1.
         25    2    1    2    0    0  0.11364656646E+03  0.50063653525E+02  0.21032643567E+03  0.27438539848E+03  0.12501290289E+03 0.  0.
          2    1    1    2  501    0 -0.78508775827E+02 -0.10809371246E+02 -0.32097435805E+03  0.33061308037E+03  0.00000000000E+00 0. -1.
          1    1    1    2  502    0 -0.35137790630E+02 -0.39254282279E+02  0.37443498281E+03  0.37812315370E+03  0.00000000000E+00 0. -1.
         22    1    3    3    0    0  0.11252712941E+03 -0.12873973359E+02  0.13460702919E+03  0.17591801031E+03  0.00000000000E+00 0.  1.
         22    1    3    3    0    0  0.11194370512E+01  0.62937626885E+02  0.75719406472E+02  0.98467388173E+02  0.00000000000E+00 0.  1.
</event>
<event>
 7    1  0.6924180E-006  0.1138529E+03  0.7818608E-02  0.1358772E+00
          2   -1    0    0  502    0  0.00000000000E+00  0.00000000000E+00  0.99313826875E+03  0.99313826875E+03  0.00000000000E+00 0. -1.
          1   -1    0    0  501    0 -0.00000000000E+00 -0.00000000000E+00 -0.30422530587E+04  0.30422530587E+04  0.00000000000E+00 0. -1.
         25    2    1    2    0    0  0.21546345353E+02 -0.76691695090E+02 -0.37588661503E+03  0.40405619321E+03  0.12499919529E+03 0.  0.
          2    1    1    2  501    0 -0.56454800720E+02  0.10267818407E+03 -0.26505030094E+04  0.26530918108E+04  0.00000000000E+00 0. -1.
          1    1    1    2  502    0  0.34908455367E+02 -0.25986488977E+02  0.97727483442E+03  0.97824332344E+03  0.00000000000E+00 0. -1.
         22    1    3    3    0    0 -0.18006609484E+02 -0.34579335565E+02 -0.32420045367E+03  0.32653621942E+03  0.00000000000E+00 0.  1.
         22    1    3    3    0    0  0.39552954837E+02 -0.42112359525E+02 -0.51686161357E+02  0.77519973793E+02  0.00000000000E+00 0.  1.
</event>
<event>
 7    1  0.6188600E-006  0.7317699E+02  0.7818608E-02  0.1393519E+00
          2   -1    0    0  502    0  0.00000000000E+00  0.00000000000E+00  0.63425753089E+03  0.63425753089E+03  0.00000000000E+00 0. -1.
          1   -1    0    0  501    0 -0.00000000000E+00 -0.00000000000E+00 -0.10286416595E+03  0.10286416595E+03  0.00000000000E+00 0. -1.
         25    2    1    2    0    0  0.23265931981E+02  0.21772414342E+02  0.10627451829E+03  0.16713550546E+03  0.12499864931E+03 0.  0.
          2    1    1    2  501    0 -0.38831779546E+02 -0.70250277965E+02 -0.48404283324E+02  0.93733576167E+02  0.00000000000E+00 0. -1.
          1    1    1    2  502    0  0.15565847566E+02  0.48477863623E+02  0.47352312997E+03  0.47625261521E+03  0.00000000000E+00 0. -1.
         22    1    3    3    0    0  0.63958530762E+02 -0.74864866113E+01  0.96591692696E+02  0.11608917364E+03  0.00000000000E+00 0. -1.
         22    1    3    3    0    0 -0.40692598781E+02  0.29258900953E+02  0.96828255956E+01  0.51046331818E+02  0.00000000000E+00 0. -1.
</event>
<event>
 7    1  0.1079784E-005  0.1033984E+03  0.7818608E-02  0.1310739E+00
          2   -1    0    0  502    0  0.00000000000E+00  0.00000000000E+00  0.10593471067E+04  0.10593471067E+04  0.00000000000E+00 0. -1.
          1   -1    0    0  501    0 -0.00000000000E+00 -0.00000000000E+00 -0.22536820309E+04  0.22536820309E+04  0.00000000000E+00 0. -1.
         25    2    1    2    0    0 -0.70380667501E+02  0.46279291860E+02 -0.63073616104E+03  0.64849605872E+03  0.12499528840E+03 0.  0.
          2    1    1    2  501    0  0.48021962613E+02  0.54848496592E+02 -0.16106866117E+04  0.16123355196E+04  0.00000000000E+00 0. -1.
          1    1    1    2  502    0  0.22358704888E+02 -0.10112778845E+03  0.10470878486E+04  0.10521975593E+04  0.00000000000E+00 0. -1.
         22    1    3    3    0    0 -0.96093550340E+02  0.49590716572E+02 -0.34412786480E+03  0.36071761382E+03  0.00000000000E+00 0.  1.
         22    1    3    3    0    0  0.25712882839E+02 -0.33114247126E+01 -0.28660829624E+03  0.28777844490E+03  0.00000000000E+00 0.  1.
</event>
<event>
 7    1  0.6188600E-006  0.7506250E+02  0.7818608E-02  0.1477114E+00
          2   -1    0    0  502    0  0.00000000000E+00  0.00000000000E+00  0.36448503821E+04  0.36448503821E+04  0.00000000000E+00 0. -1.
          1   -1    0    0  501    0 -0.00000000000E+00 -0.00000000000E+00 -0.51053442251E+03  0.51053442251E+03  0.00000000000E+00 0. -1.
         25    2    1    2    0    0  0.49146653794E+02  0.57206142700E+02  0.73080254233E+02  0.16325981778E+03  0.12500043280E+03 0.  0.
          2    1    1    2  501    0  0.16478841226E+02 -0.20691089207E+02 -0.46466865254E+03  0.46542091705E+03  0.00000000000E+00 0. -1.
          1    1    1    2  502    0 -0.65625495020E+02 -0.36515053493E+02  0.35259043579E+04  0.35267040698E+04  0.00000000000E+00 0. -1.
         22    1    3    3    0    0  0.68326563882E+02 -0.62698272291E+01  0.68243983373E+02  0.96773298652E+02  0.00000000000E+00 0. -1.
         22    1    3    3    0    0 -0.19179910088E+02  0.63475969929E+02  0.48362708600E+01  0.66486519124E+02  0.00000000000E+00 0. -1.
</event>
<event>
 7    1  0.6188600E-006  0.2021840E+03  0.7818608E-02  0.1302537E+00
          2   -1    0    0  502    0  0.00000000000E+00  0.00000000000E+00  0.14686894587E+04  0.14686894587E+04  0.00000000000E+00 0. -1.
          1   -1    0    0  501    0 -0.00000000000E+00 -0.00000000000E+00 -0.11655391628E+03  0.11655391628E+03  0.00000000000E+00 0. -1.
         25    2    1    2    0    0 -0.47017962612E+02  0.20849355810E+03  0.82102533756E+03  0.85754660476E+03  0.12499328723E+03 0.  0.
          2    1    1    2  501    0 -0.27458304207E+02 -0.29331873504E+02 -0.78374987067E+02  0.88073582140E+02  0.00000000000E+00 0. -1.
          1    1    1    2  502    0  0.74476266819E+02 -0.17916168459E+03  0.60948519189E+03  0.63962318804E+03  0.00000000000E+00 0. -1.
         22    1    3    3    0    0 -0.46646725567E+02  0.21232750910E+03  0.82430410864E+03  0.85248821202E+03  0.00000000000E+00 0.  1.
         22    1    3    3    0    0 -0.37123704498E+00 -0.38339510082E+01 -0.32787710795E+01  0.50583927357E+01  0.00000000000E+00 0.  1.
</event>
<event>
 7    1  0.6188600E-006  0.4576688E+02  0.7818608E-02  0.1559547E+00
          2   -1    0    0  502    0  0.00000000000E+00  0.00000000000E+00  0.25820113913E+04  0.25820113913E+04  0.00000000000E+00 0. -1.
          1   -1    0    0  501    0 -0.00000000000E+00 -0.00000000000E+00 -0.10160963710E+02  0.10160963710E+02  0.00000000000E+00 0. -1.
         25    2    1    2    0    0  0.48215973726E+02  0.46725160744E+02  0.90820956548E+03  0.91922689599E+03  0.12500180279E+03 0.  0.
          2    1    1    2  501    0 -0.10669464174E+02 -0.22562745847E+02  0.31477419887E+02  0.40171419301E+02  0.00000000000E+00 0. -1.
          1    1    1    2  502    0 -0.37546509553E+02 -0.24162414897E+02  0.16321634422E+04  0.16327740397E+04  0.00000000000E+00 0. -1.
         22    1    3    3    0    0  0.53523880283E+02 -0.19247596234E+02  0.65655745516E+03  0.65901666720E+03  0.00000000000E+00 0. -1.
         22    1    3    3    0    0 -0.53079065564E+01  0.65972756978E+02  0.25165211032E+03  0.26021022879E+03  0.00000000000E+00 0. -1.
</event>
<event>
 7    1  0.6188600E-006  0.1482088E+03  0.7818608E-02  0.1335586E+00
          2   -1    0    0  502    0  0.00000000000E+00  0.00000000000E+00  0.10468453070E+04  0.10468453070E+04  0.00000000000E+00 0. -1.
          1   -1    0    0  501    0 -0.00000000000E+00 -0.00000000000E+00 -0.72900079101E+02  0.72900079101E+02  0.00000000000E+00 0. -1.
         25    2    1    2    0    0  0.12435701730E+03 -0.62175435498E+02  0.57876515670E+03  0.60821433559E+03  0.12500047550E+03 0.  0.
          2    1    1    2  501    0 -0.14771198748E+03  0.28747593302E+02  0.42317829893E+02  0.15632035726E+03  0.00000000000E+00 0. -1.
          1    1    1    2  502    0  0.23354970179E+02  0.33427842196E+02  0.35286224135E+03  0.35521069330E+03  0.00000000000E+00 0. -1.
         22    1    3    3    0    0  0.80967268604E+02 -0.79075855280E+01  0.48353661428E+03  0.49033242381E+03  0.00000000000E+00 0. -1.
         22    1    3    3    0    0  0.43389748695E+02 -0.54267849970E+02  0.95228542423E+02  0.11788191178E+03  0.00000000000E+00 0. -1.
</event>
<event>
 7    1  0.6188600E-006  0.4666338E+02  0.7818608E-02  0.1586182E+00
          2   -1    0    0  502    0  0.00000000000E+00  0.00000000000E+00  0.86323663861E+03  0.86323663861E+03  0.00000000000E+00 0. -1.
          1   -1    0    0  501    0 -0.00000000000E+00 -0.00000000000E+00 -0.12862654783E+04  0.12862654783E+04  0.00000000000E+00 0. -1.
         25    2    1    2    0    0  0.93051398741E+01  0.53736886340E+02  0.13524736915E+03  0.19207236564E+03  0.12500281677E+03 0.  0.
          2    1    1    2  501    0 -0.19038608758E+02 -0.82130574035E+01 -0.12569929313E+04  0.12571639321E+04  0.00000000000E+00 0. -1.
          1    1    1    2  502    0  0.97334688841E+01 -0.45523828937E+02  0.69871672239E+03  0.70026581922E+03  0.00000000000E+00 0. -1.
         22    1    3    3    0    0  0.53759000479E+02  0.47838312272E+02  0.30555030178E+02  0.78180202882E+02  0.00000000000E+00 0.  1.
         22    1    3    3    0    0 -0.44453860605E+02  0.58985740684E+01  0.10469233897E+03  0.11389216276E+03  0.00000000000E+00 0.  1.
</event>
<event>
 7    1  0.6188600E-006  0.6763888E+02  0.7818608E-02  0.1409529E+00
          2   -1    0    0  502    0  0.00000000000E+00  0.00000000000E+00  0.65629552500E+03  0.65629552500E+03  0.00000000000E+00 0. -1.
          1   -1    0    0  501    0 -0.00000000000E+00 -0.00000000000E+00 -0.33717929064E+03  0.33717929064E+03  0.00000000000E+00 0. -1.
         25    2    1    2    0    0 -0.64097028099E+02 -0.70956467009E+02  0.49582624988E+03  0.52020772583E+03  0.12501663378E+03 0.  0.
          2    1    1    2  501    0  0.45384939244E+02  0.17214097192E+02 -0.31761600558E+03  0.32130366455E+03  0.00000000000E+00 0. -1.
          1    1    1    2  502    0  0.18712088855E+02  0.53742369817E+02  0.14090599006E+03  0.15196342526E+03  0.00000000000E+00 0. -1.
         22    1    3    3    0    0  0.18506269698E+02 -0.41093147126E+02  0.56935437472E+02  0.72613860928E+02  0.00000000000E+00 0.  1.
         22    1    3    3    0    0 -0.82603297797E+02 -0.29863319883E+02  0.43889081240E+03  0.44759386490E+03  0.00000000000E+00 0.  1.
</event>
<event>
 7    1  0.6188600E-006  0.4772747E+02  0.7818608E-02  0.1546497E+00
          2   -1    0    0  502    0  0.00000000000E+00  0.00000000000E+00  0.16220939576E+03  0.16220939576E+03  0.00000000000E+00 0. -1.
          1   -1    0    0  501    0 -0.00000000000E+00 -0.00000000000E+00 -0.45351233095E+03  0.45351233095E+03  0.00000000000E+00 0. -1.
         25    2    1    2    0    0 -0.46031790783E+02 -0.27853207610E+02 -0.32447609323E+03  0.35185984933E+03  0.12500356618E+03 0.  0.
          2    1    1    2  501    0  0.22227164955E+02 -0.13521319067E+02 -0.10995125532E+03  0.11298739522E+03  0.00000000000E+00 0. -1.
          1    1    1    2  502    0  0.23804625828E+02  0.41374526677E+02  0.14312441336E+03  0.15087448216E+03  0.00000000000E+00 0. -1.
         22    1    3    3    0    0  0.34730945357E+02  0.10942502043E+02 -0.42371646534E+02  0.55868894265E+02  0.00000000000E+00 0. -1.
         22    1    3    3    0    0 -0.80762736140E+02 -0.38795709653E+02 -0.28210444669E+03  0.29599095506E+03  0.00000000000E+00 0. -1.
</event>
<event>
 7    1  0.6188600E-006  0.1039341E+03  0.7818608E-02  0.1276894E+00
          2   -1    0    0  502    0  0.00000000000E+00  0.00000000000E+00  0.96811168829E+03  0.96811168829E+03  0.00000000000E+00 0. -1.
          1   -1    0    0  501    0 -0.00000000000E+00 -0.00000000000E+00 -0.36596257812E+03  0.36596257812E+03  0.00000000000E+00 0. -1.
         25    2    1    2    0    0  0.11204878317E+03  0.11077453112E+02 -0.17855584596E+03  0.24532634609E+03  0.12500074472E+03 0.  0.
          2    1    1    2  501    0 -0.53490816571E+02 -0.96945165354E+02 -0.13077998211E+03  0.17135645965E+03  0.00000000000E+00 0. -1.
          1    1    1    2  502    0 -0.58557966595E+02  0.85867712242E+02  0.91148493825E+03  0.91739146067E+03  0.00000000000E+00 0. -1.
         22    1    3    3    0    0  0.98189153742E+02 -0.98581413764E+01 -0.43307908311E+02  0.10776765649E+03  0.00000000000E+00 0.  1.
         22    1    3    3    0    0  0.13859629424E+02  0.20935594489E+02 -0.13524793765E+03  0.13755868959E+03  0.00000000000E+00 0.  1.
</event>
<event>
 7    1  0.6188600E-006  0.8562312E+02  0.7818608E-02  0.1382188E+00
          2   -1    0    0  502    0  0.00000000000E+00  0.00000000000E+00  0.40916479684E+02  0.40916479684E+02  0.00000000000E+00 0. -1.
          1   -1    0    0  501    0 -0.00000000000E+00 -0.00000000000E+00 -0.22854054706E+04  0.22854054706E+04  0.00000000000E+00 0. -1.
         25    2    1    2    0    0  0.45780377353E+02  0.11926401716E+03 -0.56871888344E+03  0.59614264937E+03  0.12500056511E+03 0.  0.
          2    1    1    2  501    0 -0.90206579195E+01 -0.46815201038E+02 -0.16411942825E+04  0.16418866308E+04  0.00000000000E+00 0. -1.
          1    1    1    2  502    0 -0.36759719433E+02 -0.72448816119E+02 -0.34575824953E+02  0.88292670143E+02  0.00000000000E+00 0. -1.
         22    1    3    3    0    0  0.47432077556E+02 -0.33718365479E+01 -0.25316332234E+03  0.25759044827E+03  0.00000000000E+00 0.  1.
         22    1    3    3    0    0 -0.16517002035E+01  0.12263585370E+03 -0.31555556110E+03  0.33855220110E+03  0.00000000000E+00 0.  1.
</event>
<event>
 7    1  0.6188600E-006  0.2018419E+03  0.7818608E-02  0.1172303E+00
          2   -1    0    0  502    0  0.00000000000E+00  0.00000000000E+00  0.75290533290E+03  0.75290533290E+03  0.00000000000E+00 0. -1.
          1   -1    0    0  501    0 -0.00000000000E+00 -0.00000000000E+00 -0.13222424124E+03  0.13222424124E+03  0.00000000000E+00 0. -1.
         25    2    1    2    0    0 -0.10405797793E+03  0.13984109677E+03  0.12835249355E+03  0.24996822188E+03  0.12500461686E+03 0.  0.
          2    1    1    2  501    0  0.12067996727E+03  0.93184963036E+02  0.11344977933E+03  0.19004721589E+03  0.00000000000E+00 0. -1.
          1    1    1    2  502    0 -0.16621989343E+02 -0.23302605980E+03  0.37887881878E+03  0.44511413637E+03  0.00000000000E+00 0. -1.
         22    1    3    3    0    0 -0.76255439059E+02  0.13185351493E+03  0.40691908798E+02  0.15765808837E+03  0.00000000000E+00 0. -1.
         22    1    3    3    0    0 -0.27802538869E+02  0.79875818368E+01  0.87660584747E+02  0.92310133514E+02  0.00000000000E+00 0. -1.
</event>
<event>
 7    1  0.6188600E-006  0.4980503E+02  0.7818608E-02  0.1556100E+00
          2   -1    0    0  502    0  0.00000000000E+00  0.00000000000E+00  0.24993536350E+04  0.24993536350E+04  0.00000000000E+00 0. -1.
          1   -1    0    0  501    0 -0.00000000000E+00 -0.00000000000E+00 -0.45769473647E+01  0.45769473647E+01  0.00000000000E+00 0. -1.
         25    2    1    2    0    0  0.56412995032E+02 -0.13666725930E+02  0.18138360073E+04  0.18190637010E+04  0.12498992534E+03 0.  0.
          2    1    1    2  501    0 -0.48105780918E+02 -0.82547255794E+01  0.40453419481E+03  0.40746806185E+03  0.00000000000E+00 0. -1.
          1    1    1    2  502    0 -0.83072141143E+01  0.21921451509E+02  0.27640648550E+03  0.27739881952E+03  0.00000000000E+00 0. -1.
         22    1    3    3    0    0  0.57299124148E+02 -0.60208915593E+02  0.14303171686E+04  0.14327300883E+04  0.00000000000E+00 0. -1.
         22    1    3    3    0    0 -0.88612911622E+00  0.46542189663E+02  0.38351883868E+03  0.38633361265E+03  0.00000000000E+00 0. -1.
</event>
<event>
 7    1  0.6188600E-006  0.2226523E+03  0.7818608E-02  0.1170018E+00
          2   -1    0    0  502    0  0.00000000000E+00  0.00000000000E+00  0.21289078717E+03  0.21289078717E+03  0.00000000000E+00 0. -1.
          1   -1    0    0  501    0 -0.00000000000E+00 -0.00000000000E+00 -0.73095409427E+03  0.73095409427E+03  0.00000000000E+00 0. -1.
         25    2    1    2    0    0  0.18573211824E+03 -0.70008386959E+02 -0.13812883771E+03  0.27221583094E+03  0.12499715523E+03 0.  0.
          2    1    1    2  501    0 -0.13872212377E+03  0.20386555692E+03 -0.45020155479E+03  0.51330929551E+03  0.00000000000E+00 0. -1.
          1    1    1    2  502    0 -0.47009994469E+02 -0.13385716996E+03  0.70267085397E+02  0.15831975499E+03  0.00000000000E+00 0. -1.
         22    1    3    3    0    0  0.58020198559E+02 -0.84151361041E+02 -0.37017986838E+02  0.10871120621E+03  0.00000000000E+00 0. -1.
         22    1    3    3    0    0  0.12771191968E+03  0.14142974082E+02 -0.10111085087E+03  0.16350462473E+03  0.00000000000E+00 0. -1.
</event>
<event>
 7    1  0.6188600E-006  0.7509730E+02  0.7818608E-02  0.1433392E+00
          2   -1    0    0  502    0  0.00000000000E+00  0.00000000000E+00  0.14620535434E+04  0.14620535434E+04  0.00000000000E+00 0. -1.
          1   -1    0    0  501    0 -0.00000000000E+00 -0.00000000000E+00 -0.34569286887E+03  0.34569286887E+03  0.00000000000E+00 0. -1.
         25    2    1    2    0    0 -0.37836351821E+02  0.16147517052E+02  0.35931393863E+03  0.38265469239E+03  0.12500310110E+03 0.  0.
          2    1    1    2  501    0  0.74178853491E+02 -0.14057616864E+02 -0.32944749875E+03  0.33798783015E+03  0.00000000000E+00 0. -1.
          1    1    1    2  502    0 -0.36342501670E+02 -0.20899001884E+01  0.10864942347E+04  0.10871038897E+04  0.00000000000E+00 0. -1.
         22    1    3    3    0    0  0.26158401617E+02  0.44463335847E+02  0.83913480751E+02  0.98502398253E+02  0.00000000000E+00 0.  1.
         22    1    3    3    0    0 -0.63994753438E+02 -0.28315818794E+02  0.27540045788E+03  0.28415229414E+03  0.00000000000E+00 0.  1.
</event>
<event>
 7    1  0.6188600E-006  0.7403264E+02  0.7818608E-02  0.1519392E+00
          2   -1    0    0  502    0  0.00000000000E+00  0.00000000000E+00  0.14936590855E+04  0.14936590855E+04  0.00000000000E+00 0. -1.
          1   -1    0    0  501    0 -0.00000000000E+00 -0.00000000000E+00 -0.32409699055E+02  0.32409699055E+02  0.00000000000E+00 0. -1.
         25    2    1    2    0    0 -0.56695708985E+02  0.14481682566E+02  0.16199436871E+03  0.21281255688E+03  0.12499154501E+03 0.  0.
          2    1    1    2  501    0 -0.17844393719E+02 -0.91259528432E+01  0.11052967515E+02  0.22888282884E+02  0.00000000000E+00 0. -1.
          1    1    1    2  502    0  0.74540102704E+02 -0.53557297224E+01  0.12882020502E+04  0.12903679448E+04  0.00000000000E+00 0. -1.
         22    1    3    3    0    0 -0.70378249979E+02  0.93619085747E+01  0.25347935994E+02  0.75387407843E+02  0.00000000000E+00 0.  1.
         22    1    3    3    0    0  0.13682540994E+02  0.51197739909E+01  0.13664643272E+03  0.13742514904E+03  0.00000000000E+00 0.  1.
</event>
<event>
 7    1  0.6188600E-006  0.7766295E+02  0.7818608E-02  0.1408217E+00
          2   -1    0    0  502    0  0.00000000000E+00  0.00000000000E+00  0.15818979341E+04  0.15818979341E+04  0.00000000000E+00 0. -1.
          1   -1    0    0  501    0 -0.00000000000E+00 -0.00000000000E+00 -0.12132223390E+04  0.12132223390E+04  0.00000000000E+00 0. -1.
         25    2    1    2    0    0 -0.48712653824E+01  0.41294933027E+02  0.48098699875E+03  0.49870075326E+03  0.12499979043E+03 0.  0.
          2    1    1    2  501    0 -0.51578635995E+01  0.42397844832E+02 -0.12023591876E+04  0.12031175324E+04  0.00000000000E+00 0. -1.
          1    1    1    2  502    0  0.10029128982E+02 -0.83692777859E+02  0.10900477839E+04  0.10933019874E+04  0.00000000000E+00 0. -1.
         22    1    3    3    0    0  0.20155147223E+02 -0.30836900003E+01  0.41418768950E+03  0.41468925865E+03  0.00000000000E+00 0. -1.
         22    1    3    3    0    0 -0.25026412605E+02  0.44378623027E+02  0.66799309250E+02  0.84011494606E+02  0.00000000000E+00 0. -1.
</event>
<event>
 7    1  0.6188600E-006  0.3795443E+02  0.7818608E-02  0.1618806E+00
          2   -1    0    0  502    0  0.00000000000E+00  0.00000000000E+00  0.27103853090E+03  0.27103853090E+03  0.00000000000E+00 0. -1.
          1   -1    0    0  501    0 -0.00000000000E+00 -0.00000000000E+00 -0.19556030523E+04  0.19556030523E+04  0.00000000000E+00 0. -1.
         25    2    1    2    0    0  0.31409762775E+02 -0.26167071099E+02 -0.44195285383E+02  0.13874435207E+03  0.12500193268E+03 0.  0.
          2    1    1    2  501    0 -0.37472163919E+02  0.61009735672E+01 -0.18634485329E+04  0.18638352448E+04  0.00000000000E+00 0. -1.
          1    1    1    2  502    0  0.60624011448E+01  0.20066097532E+02  0.22307929694E+03  0.22406198629E+03  0.00000000000E+00 0. -1.
         22    1    3    3    0    0  0.46971707093E+02  0.16331213876E+02 -0.70592930725E+02  0.86350516398E+02  0.00000000000E+00 0.  1.
         22    1    3    3    0    0 -0.15561944319E+02 -0.42498284975E+02  0.26397645341E+02  0.52393835672E+02  0.00000000000E+00 0.  1.
</event>
<event>
 7    1  0.6188600E-006  0.1111212E+03  0.7818608E-02  0.1293048E+00
          2   -1    0    0  502    0  0.00000000000E+00  0.00000000000E+00  0.26483342502E+04  0.26483342502E+04  0.00000000000E+00 0. -1.
          1   -1    0    0  501    0 -0.00000000000E+00 -0.00000000000E+00 -0.21894043722E+03  0.21894043722E+03  0.00000000000E+00 0. -1.
         25    2    1    2    0    0 -0.56952278648E+02 -0.81050670727E+02  0.90310022722E+03  0.91707608366E+03  0.12500299817E+03 0.  0.
          2    1    1    2  501    0  0.10973673454E+03  0.21187450701E+02 -0.19623068493E+03  0.22582635073E+03  0.00000000000E+00 0. -1.
          1    1    1    2  502    0 -0.52784455894E+02  0.59863220025E+02  0.17225242707E+04  0.17243722531E+04  0.00000000000E+00 0. -1.
         22    1    3    3    0    0 -0.19094249125E+01  0.27446754099E+02  0.71273240428E+02  0.76399247478E+02  0.00000000000E+00 0. -1.
         22    1    3    3    0    0 -0.55042853735E+02 -0.10849742483E+03  0.83182698679E+03  0.84067683618E+03  0.00000000000E+00 0. -1.
</event>
<event>
 7    1  0.6188600E-006  0.1420524E+03  0.7818608E-02  0.1297555E+00
          2   -1    0    0  502    0  0.00000000000E+00  0.00000000000E+00  0.16472800673E+04  0.16472800673E+04  0.00000000000E+00 0. -1.
          1   -1    0    0  501    0 -0.00000000000E+00 -0.00000000000E+00 -0.65954838277E+02  0.65954838277E+02  0.00000000000E+00 0. -1.
         25    2    1    2    0    0  0.13203303382E+03 -0.12004290875E+03  0.36714437165E+03  0.42692332576E+03  0.12500205789E+03 0.  0.
          2    1    1    2  501    0 -0.11630395395E+03  0.62272239172E+02  0.88095506442E+02  0.15863561936E+03  0.00000000000E+00 0. -1.
          1    1    1    2  502    0 -0.15729079875E+02  0.57770669578E+02  0.11260853509E+04  0.11276759604E+04  0.00000000000E+00 0. -1.
         22    1    3    3    0    0  0.50436808017E+02 -0.45958975722E+02  0.34428738302E+02  0.76429294602E+02  0.00000000000E+00 0.  1.
         22    1    3    3    0    0  0.81596225808E+02 -0.74083933028E+02  0.33271563335E+03  0.35049403116E+03  0.00000000000E+00 0.  1.
</event>
<event>
 7    1  0.6188600E-006  0.1618156E+03  0.7818608E-02  0.1308472E+00
          2   -1    0    0  502    0  0.00000000000E+00  0.00000000000E+00  0.12521197046E+04  0.12521197046E+04  0.00000000000E+00 0. -1.
          1   -1    0    0  501    0 -0.00000000000E+00 -0.00000000000E+00 -0.17099497852E+03  0.17099497852E+03  0.00000000000E+00 0. -1.
         25    2    1    2    0    0  0.12699045390E+03 -0.14320129984E+03  0.64292286322E+03  0.68235517395E+03  0.12500235081E+03 0.  0.
          2    1    1    2  501    0 -0.79629157341E+02  0.13895089329E+03 -0.10756780367E+03  0.19292222742E+03  0.00000000000E+00 0. -1.
          1    1    1    2  502    0 -0.47361296561E+02  0.42504065513E+01  0.54576966653E+03  0.54783728175E+03  0.00000000000E+00 0. -1.
         22    1    3    3    0    0 -0.17396316797E+02 -0.54458244607E+02  0.12610887041E+03  0.13846219498E+03  0.00000000000E+00 0. -1.
         22    1    3    3    0    0  0.14438677070E+03 -0.88743055234E+02  0.51681399281E+03  0.54389297897E+03  0.00000000000E+00 0. -1.
</event>
<event>
 7    1  0.6188600E-006  0.8785437E+02  0.7818608E-02  0.1425190E+00
          2   -1    0    0  502    0  0.00000000000E+00  0.00000000000E+00  0.12183111530E+04  0.12183111530E+04  0.00000000000E+00 0. -1.
          1   -1    0    0  501    0 -0.00000000000E+00 -0.00000000000E+00 -0.32501633226E+04  0.32501633226E+04  0.00000000000E+00 0. -1.
         25    2    1    2    0    0  0.62827652257E+02  0.38167949006E+01  0.12943859506E+03  0.19063019431E+03  0.12499455700E+03 0.  0.
          2    1    1    2  501    0 -0.82523708202E+02 -0.30437344119E+02 -0.32187075291E+04  0.32199091217E+04  0.00000000000E+00 0. -1.
          1    1    1    2  502    0  0.19696055945E+02  0.26620549218E+02  0.10574167644E+04  0.10579351596E+04  0.00000000000E+00 0. -1.
         22    1    3    3    0    0  0.28789197682E+02 -0.52128538931E+02  0.10504011034E+03  0.12074612729E+03  0.00000000000E+00 0. -1.
         22    1    3    3    0    0  0.34038454575E+02  0.55945333831E+02  0.24398484722E+02  0.69884067026E+02  0.00000000000E+00 0. -1.
</event>
<event>
 7    1  0.6188600E-006  0.2804068E+02  0.7818608E-02  0.1636523E+00
          2   -1    0    0  502    0  0.00000000000E+00  0.00000000000E+00  0.92621116522E+02  0.92621116522E+02  0.00000000000E+00 0. -1.
          1   -1    0    0  501    0 -0.00000000000E+00 -0.00000000000E+00 -0.39657733940E+03  0.39657733940E+03  0.00000000000E+00 0. -1.
         25    2    1    2    0    0 -0.17133268776E+02  0.11847245719E+02  0.45181282891E+02  0.13454861601E+03  0.12501230186E+03 0.  0.
          2    1    1    2  501    0 -0.26780118177E+01 -0.28058608287E+02 -0.27018162993E+03  0.27164787943E+03  0.00000000000E+00 0. -1.
          1    1    1    2  502    0  0.19811280593E+02  0.16211362568E+02 -0.78955875841E+02  0.83001960488E+02  0.00000000000E+00 0. -1.
         22    1    3    3    0    0  0.10059445417E+02  0.18543884092E+02 -0.39814258842E+02  0.45058221075E+02  0.00000000000E+00 0.  1.
         22    1    3    3    0    0 -0.27192714193E+02 -0.66966383733E+01  0.84995541733E+02  0.89490394932E+02  0.00000000000E+00 0.  1.
</event>
<event>
 7    1  0.7862389E-006  0.9929591E+02  0.7818608E-02  0.1330431E+00
          2   -1    0    0  502    0  0.00000000000E+00  0.00000000000E+00  0.18970832735E+04  0.18970832735E+04  0.00000000000E+00 0. -1.
          1   -1    0    0  501    0 -0.00000000000E+00 -0.00000000000E+00 -0.13353571533E+04  0.13353571533E+04  0.00000000000E+00 0. -1.
         25    2    1    2    0    0  0.12813216040E+03 -0.78366054347E+02 -0.94465072942E+02  0.21704475466E+03  0.12500274604E+03 0.  0.
          2    1    1    2  501    0 -0.64648802140E+02  0.73414738645E+02 -0.11770204569E+04  0.11810784679E+04  0.00000000000E+00 0. -1.
          1    1    1    2  502    0 -0.63483358256E+02  0.49513157017E+01  0.18332116500E+04  0.18343172043E+04  0.00000000000E+00 0. -1.
         22    1    3    3    0    0  0.12255382938E+03 -0.29802832093E+02 -0.10829966305E+03  0.16624219354E+03  0.00000000000E+00 0. -1.
         22    1    3    3    0    0  0.55783310143E+01 -0.48563222254E+02  0.13834590111E+02  0.50802561118E+02  0.00000000000E+00 0. -1.
</event>
<event>
 7    1  0.6188600E-006  0.1015417E+03  0.7818608E-02  0.1335692E+00
          2   -1    0    0  502    0  0.00000000000E+00  0.00000000000E+00  0.12174981539E+04  0.12174981539E+04  0.00000000000E+00 0. -1.
          1   -1    0    0  501    0 -0.00000000000E+00 -0.00000000000E+00 -0.18107894470E+03  0.18107894470E+03  0.00000000000E+00 0. -1.
         25    2    1    2    0    0  0.14791568439E+03 -0.40584419315E+02  0.37700026646E+03  0.42577088481E+03  0.12500200262E+03 0.  0.
          2    1    1    2  501    0 -0.88647492019E+02  0.45415416331E+02 -0.13964790263E+03  0.17152980671E+03  0.00000000000E+00 0. -1.
          1    1    1    2  502    0 -0.59268192371E+02 -0.48309970164E+01  0.79906684537E+03  0.80127640707E+03  0.00000000000E+00 0. -1.
         22    1    3    3    0    0 -0.11259093106E+02  0.20372325489E+02  0.80201781925E+02  0.83511224679E+02  0.00000000000E+00 0. -1.
         22    1    3    3    0    0  0.15917477750E+03 -0.60956744804E+02  0.29679848454E+03  0.34225966013E+03  0.00000000000E+00 0. -1.
</event>
<event>
 7    1  0.6188600E-006  0.9915109E+02  0.7818608E-02  0.1302910E+00
          2   -1    0    0  502    0  0.00000000000E+00  0.00000000000E+00  0.26839645578E+04  0.26839645578E+04  0.00000000000E+00 0. -1.
          1   -1    0    0  501    0 -0.00000000000E+00 -0.00000000000E+00 -0.33723385405E+02  0.33723385405E+02  0.00000000000E+00 0. -1.
         25    2    1    2    0    0  0.56976419574E+01 -0.81809072728E+02  0.15863439200E+04  0.15933729814E+04  0.12500095038E+03 0.  0.
          2    1    1    2  501    0  0.90352704907E+02  0.40832920885E+02  0.61891376578E+02  0.11688233916E+03  0.00000000000E+00 0. -1.
          1    1    1    2  502    0 -0.96050346864E+02  0.40976151842E+02  0.10020058758E+04  0.10074326227E+04  0.00000000000E+00 0. -1.
         22    1    3    3    0    0 -0.57224679916E+02 -0.54440501223E+02  0.72116476459E+03  0.72547711876E+03  0.00000000000E+00 0. -1.
         22    1    3    3    0    0  0.62922321873E+02 -0.27368571505E+02  0.86517915546E+03  0.86789586261E+03  0.00000000000E+00 0. -1.
</event>
<event>
 7    1  0.6188600E-006  0.8726701E+02  0.7818608E-02  0.1392825E+00
          2   -1    0    0  502    0  0.00000000000E+00  0.00000000000E+00  0.16958450069E+04  0.16958450069E+04  0.00000000000E+00 0. -1.
          1   -1    0    0  501    0 -0.00000000000E+00 -0.00000000000E+00 -0.25955584277E+04  0.25955584277E+04  0.00000000000E+00 0. -1.
         25    2    1    2    0    0 -0.47208687049E+02  0.91216679125E+01 -0.93906022549E+02  0.16357038809E+03  0.12500026332E+03 0.  0.
          2    1    1    2  501    0 -0.40227055389E+02 -0.14999461246E+02 -0.24654773510E+04  0.24658511245E+04  0.00000000000E+00 0. -1.
          1    1    1    2  502    0  0.87435742438E+02  0.58777933339E+01  0.16596699527E+04  0.16619819221E+04  0.00000000000E+00 0. -1.
         22    1    3    3    0    0  0.29365793466E+02  0.33297405836E+02 -0.64868187017E+01  0.44868094211E+02  0.00000000000E+00 0.  1.
         22    1    3    3    0    0 -0.76574480515E+02 -0.24175737923E+02 -0.87419203848E+02  0.11870229388E+03  0.00000000000E+00 0.  1.
</event>
<event>
 7    1  0.6188600E-006  0.8241097E+02  0.7818608E-02  0.1329826E+00
          2   -1    0    0  502    0  0.00000000000E+00  0.00000000000E+00  0.76573101483E+03  0.76573101483E+03  0.00000000000E+00 0. -1.
          1   -1    0    0  501    0 -0.00000000000E+00 -0.00000000000E+00 -0.39602719893E+03  0.39602719893E+03  0.00000000000E+00 0. -1.
         25    2    1    2    0    0 -0.59116342318E+02 -0.93659160318E+02  0.26094581377E+02  0.16902698430E+03  0.12498965558E+03 0.  0.
          2    1    1    2  501    0 -0.21026797734E+02  0.74210270268E+02 -0.31737954474E+03  0.32661761412E+03  0.00000000000E+00 0. -1.
          1    1    1    2  502    0  0.80143140052E+02  0.19448890050E+02  0.66098877926E+03  0.66611361534E+03  0.00000000000E+00 0. -1.
         22    1    3    3    0    0  0.15513104710E+02  0.10587820115E+02  0.35826680864E+02  0.40451321539E+02  0.00000000000E+00 0.  1.
         22    1    3    3    0    0 -0.74629447028E+02 -0.10424698043E+03 -0.97320994870E+01  0.12857566276E+03  0.00000000000E+00 0.  1.
</event>
<event>
 7    1  0.6188600E-006  0.6583634E+02  0.7818608E-02  0.1415323E+00
          2   -1    0    0  502    0  0.00000000000E+00  0.00000000000E+00  0.84269429018E+03  0.84269429018E+03  0.00000000000E+00 0. -1.
          1   -1    0    0  501    0 -0.00000000000E+00 -0.00000000000E+00 -0.34278244171E+02  0.34278244171E+02  0.00000000000E+00 0. -1.
         25    2    1    2    0    0  0.83935217676E+02  0.29976292979E+02  0.18821408352E+03  0.24288601412E+03  0.12500150284E+03 0.  0.
          2    1    1    2  501    0 -0.20309146821E+02 -0.43129563397E+02  0.11165720947E+03  0.12140820858E+03  0.00000000000E+00 0. -1.
          1    1    1    2  502    0 -0.63626070855E+02  0.13153270418E+02  0.50854475302E+03  0.51267831166E+03  0.00000000000E+00 0. -1.
         22    1    3    3    0    0 -0.29014220921E+02  0.11305413224E+02  0.77945291667E+02  0.83935128980E+02  0.00000000000E+00 0.  1.
         22    1    3    3    0    0  0.11294943860E+03  0.18670879755E+02  0.11026879185E+03  0.15895088514E+03  0.00000000000E+00 0.  1.
</event>
<event>
 7    1  0.6188600E-006  0.8328456E+02  0.7818608E-02  0.1433739E+00
          2   -1    0    0  502    0  0.00000000000E+00  0.00000000000E+00  0.23278290401E+04  0.23278290401E+04  0.00000000000E+00 0. -1.
          1   -1    0    0  501    0 -0.00000000000E+00 -0.00000000000E+00 -0.48432222266E+02  0.48432222266E+02  0.00000000000E+00 0. -1.
         25    2    1    2    0    0  0.86728734162E+02 -0.24549318797E+02  0.40304359462E+03  0.43150232823E+03  0.12500231086E+03 0.  0.
          2    1    1    2  501    0 -0.66296107667E+02  0.50128670538E+02  0.16648084139E+02  0.84765654644E+02  0.00000000000E+00 0. -1.
          1    1    1    2  502    0 -0.20432626494E+02 -0.25579351741E+02  0.18597051391E+04  0.18599932795E+04  0.00000000000E+00 0. -1.
         22    1    3    3    0    0  0.60833128741E+02  0.38360232820E+02  0.29645314617E+03  0.30505187245E+03  0.00000000000E+00 0.  1.
         22    1    3    3    0    0  0.25895605421E+02 -0.62909551617E+02  0.10659044846E+03  0.12645045578E+03  0.00000000000E+00 0.  1.
</event>
<event>
 7    1  0.6188600E-006  0.1949246E+03  0.7818608E-02  0.1204864E+00
          2   -1    0    0  502    0  0.00000000000E+00  0.00000000000E+00  0.12408513923E+04  0.12408513923E+04  0.00000000000E+00 0. -1.
          1   -1    0    0  501    0 -0.00000000000E+00 -0.00000000000E+00 -0.68338096388E+03  0.68338096388E+03  0.00000000000E+00 0. -1.
         25    2    1    2    0    0 -0.11942449083E+03  0.17052782528E+02  0.12621738574E+03  0.21474495623E+03  0.12502624269E+03 0.  0.
          2    1    1    2  501    0 -0.90344527017E+02 -0.62889050751E+02 -0.62347880878E+03  0.63312162438E+03  0.00000000000E+00 0. -1.
          1    1    1    2  502    0  0.20976901785E+03  0.45836268223E+02  0.10547318515E+04  0.10763657756E+04  0.00000000000E+00 0. -1.
         22    1    3    3    0    0  0.12875269358E+02 -0.49680412816E+01  0.66524816083E+02  0.67941188907E+02  0.00000000000E+00 0.  1.
         22    1    3    3    0    0 -0.13229976019E+03  0.22020823810E+02  0.59692569652E+02  0.14680376732E+03  0.00000000000E+00 0.  1.
</event>
<event>
 7    1  0.6188600E-006  0.5091760E+02  0.7818608E-02  0.1440862E+00
          2   -1    0    0  502    0  0.00000000000E+00  0.00000000000E+00  0.22360625722E+04  0.22360625722E+04  0.00000000000E+00 0. -1.
          1   -1    0    0  501    0 -0.00000000000E+00 -0.00000000000E+00 -0.13505783749E+04  0.13505783749E+04  0.00000000000E+00 0. -1.
         25    2    1    2    0    0 -0.19721239675E+02 -0.88152412759E+02  0.11739186379E+04  0.11840057644E+04  0.12499962687E+03 0.  0.
          2    1    1    2  501    0  0.32642984194E+02  0.39061685609E+02 -0.13444434182E+04  0.13454068100E+04  0.00000000000E+00 0. -1.
          1    1    1    2  502    0 -0.12921744520E+02  0.49090727150E+02  0.10560089776E+04  0.10572283726E+04  0.00000000000E+00 0. -1.
         22    1    3    3    0    0  0.51104803057E+02 -0.28905453469E+02  0.57816157650E+03  0.58113512600E+03  0.00000000000E+00 0. -1.
         22    1    3    3    0    0 -0.70826042732E+02 -0.59246959290E+02  0.59575706138E+03  0.60287063844E+03  0.00000000000E+00 0. -1.
</event>
<event>
 7    1  0.6188600E-006  0.8070927E+02  0.7818608E-02  0.1341969E+00
          2   -1    0    0  502    0  0.00000000000E+00  0.00000000000E+00  0.27350415440E+04  0.27350415440E+04  0.00000000000E+00 0. -1.
          1   -1    0    0  501    0 -0.00000000000E+00 -0.00000000000E+00 -0.56372687067E+02  0.56372687067E+02  0.00000000000E+00 0. -1.
         25    2    1    2    0    0 -0.22416241233E+02  0.12975474187E+03  0.10636756449E+04  0.10790593057E+04  0.12499730663E+03 0.  0.
          2    1    1    2  501    0 -0.21374785653E+02 -0.67545653302E+02 -0.21544121347E+02  0.74050293087E+02  0.00000000000E+00 0. -1.
          1    1    1    2  502    0  0.43791026886E+02 -0.62209088570E+02  0.16365373333E+04  0.16383046323E+04  0.00000000000E+00 0. -1.
         22    1    3    3    0    0 -0.55265101843E+02  0.82830438069E+02  0.90310772660E+03  0.90858058465E+03  0.00000000000E+00 0. -1.
         22    1    3    3    0    0  0.32848860610E+02  0.46924303802E+02  0.16056791831E+03  0.17047872102E+03  0.00000000000E+00 0. -1.
</event>
<event>
 7    1  0.6188600E-006  0.9073625E+02  0.7818608E-02  0.1470334E+00
          2   -1    0    0  502    0  0.00000000000E+00  0.00000000000E+00  0.72117701762E+03  0.72117701762E+03  0.00000000000E+00 0. -1.
          1   -1    0    0  501    0 -0.00000000000E+00 -0.00000000000E+00 -0.42371527499E+02  0.42371527499E+02  0.00000000000E+00 0. -1.
         25    2    1    2    0    0 -0.71019435289E+02  0.11466269269E+02  0.43258970832E+03  0.45599704751E+03  0.12499686427E+03 0.  0.
          2    1    1    2  501    0  0.93596202880E+02 -0.72601397428E+01  0.43372686654E+02  0.10341251747E+03  0.00000000000E+00 0. -1.
          1    1    1    2  502    0 -0.22576767591E+02 -0.42061295267E+01  0.20284309514E+03  0.20413898013E+03  0.00000000000E+00 0. -1.
         22    1    3    3    0    0 -0.17461634763E+02 -0.51785082348E+02  0.24322718739E+03  0.24929113127E+03  0.00000000000E+00 0. -1.
         22    1    3    3    0    0 -0.53557800526E+02  0.63251351618E+02  0.18936252093E+03  0.20670591624E+03  0.00000000000E+00 0. -1.
</event>
<event>
 7    1  0.6188600E-006  0.6836347E+02  0.7818608E-02  0.1426551E+00
          2   -1    0    0  502    0  0.00000000000E+00  0.00000000000E+00  0.16394877038E+04  0.16394877038E+04  0.00000000000E+00 0. -1.
          1   -1    0    0  501    0 -0.00000000000E+00 -0.00000000000E+00 -0.14449066306E+04  0.14449066306E+04  0.00000000000E+00 0. -1.
         25    2    1    2    0    0  0.68782546682E+02  0.13119059565E+02 -0.15527601123E+02  0.14411659804E+03  0.12500135593E+03 0.  0.
          2    1    1    2  501    0 -0.65236338280E+01 -0.41608278692E+02 -0.13640153422E+04  0.13646654024E+04  0.00000000000E+00 0. -1.
          1    1    1    2  502    0 -0.62258912854E+02  0.28489219127E+02  0.15741240165E+04  0.15756123340E+04  0.00000000000E+00 0. -1.
         22    1    3    3    0    0  0.77890034066E+02 -0.37201251487E+02  0.10117053739E+02  0.86908833241E+02  0.00000000000E+00 0.  1.
         22    1    3    3    0    0 -0.91074873841E+01  0.50320311052E+02 -0.25644654862E+02  0.57207764803E+02  0.00000000000E+00 0.  1.
</event>
<event>
 7    1  0.6188600E-006  0.1703013E+03  0.7818608E-02  0.1209189E+00
          2   -1    0    0  502    0  0.00000000000E+00  0.00000000000E+00  0.26605167830E+04  0.26605167830E+04  0.00000000000E+00 0. -1.
          1   -1    0    0  501    0 -0.00000000000E+00 -0.00000000000E+00 -0.52748718366E+03  0.52748718366E+03  0.00000000000E+00 0. -1.
         25    2    1    2    0    0 -0.18326235253E+03  0.14761090569E+03  0.41100713689E+03  0.48982245361E+03  0.12500040060E+03 0.  0.
          2    1    1    2  501    0  0.16669789494E+03 -0.28477153808E+02 -0.47173365739E+03  0.50113050195E+03  0.00000000000E+00 0. -1.
          1    1    1    2  502    0  0.16564457588E+02 -0.11913375188E+03  0.21937561198E+04  0.21970510111E+04  0.00000000000E+00 0. -1.
         22    1    3    3    0    0 -0.14147843227E+03  0.35035670330E+02  0.24194660644E+03  0.28245673184E+03  0.00000000000E+00 0.  1.
         22    1    3    3    0    0 -0.41783920259E+02  0.11257523536E+03  0.16906053045E+03  0.20736572177E+03  0.00000000000E+00 0.  1.
</event>
<event>
 7    1  0.6188600E-006  0.2754425E+03  0.7818608E-02  0.1232874E+00
          2   -1    0    0  502    0  0.00000000000E+00  0.00000000000E+00  0.12525375096E+04  0.12525375096E+04  0.00000000000E+00 0. -1.
          1   -1    0    0  501    0 -0.00000000000E+00 -0.00000000000E+00 -0.95177729677E+03  0.95177729677E+03  0.00000000000E+00 0. -1.
         25    2    1    2    0    0 -0.17099030229E+03  0.18498184951E+03 -0.40461815447E+03  0.49274361892E+03  0.12499781969E+03 0.  0.
          2    1    1    2  501    0  0.22805431478E+03 -0.19546198787E+03 -0.45747918620E+03  0.54726717881E+03  0.00000000000E+00 0. -1.
          1    1    1    2  502    0 -0.57064012489E+02  0.10480138363E+02  0.11628575535E+04  0.11643040087E+04  0.00000000000E+00 0. -1.
         22    1    3    3    0    0  0.19833376290E+02  0.14271760258E+02 -0.46255542821E+02  0.52312725007E+02  0.00000000000E+00 0. -1.
         22    1    3    3    0    0 -0.19082367858E+03  0.17071008925E+03 -0.35836261165E+03  0.44043089391E+03  0.00000000000E+00 0. -1.
</event>
<event>
 7    1  0.6188600E-006  0.2372973E+03  0.7818608E-02  0.1237789E+00
          2   -1    0    0  502    0  0.00000000000E+00  0.00000000000E+00  0.12368681768E+04  0.12368681768E+04  0.00000000000E+00 0. -1.
          1   -1    0    0  501    0 -0.00000000000E+00 -0.00000000000E+00 -0.67433638987E+03  0.67433638987E+03  0.00000000000E+00 0. -1.
         25    2    1    2    0    0  0.48294828935E+02  0.22393756347E+03  0.51743379642E+02  0.26605075231E+03  0.12500081052E+03 0.  0.
          2    1    1    2  501    0 -0.62284534981E+02  0.14897698489E+02 -0.55203424330E+03  0.55573654774E+03  0.00000000000E+00 0. -1.
          1    1    1    2  502    0  0.13989706046E+02 -0.23883526196E+03  0.10628226505E+04  0.10894172666E+04  0.00000000000E+00 0. -1.
         22    1    3    3    0    0  0.53732861501E+02  0.67976707670E+02  0.66603825397E+02  0.10928917032E+03  0.00000000000E+00 0.  1.
         22    1    3    3    0    0 -0.54380325653E+01  0.15596085580E+03 -0.14860445755E+02  0.15676158199E+03  0.00000000000E+00 0.  1.
</event>
<event>
 7    1  0.6188600E-006  0.1123426E+03  0.7818608E-02  0.1372811E+00
          2   -1    0    0  502    0  0.00000000000E+00  0.00000000000E+00  0.17500631695E+04  0.17500631695E+04  0.00000000000E+00 0. -1.
          1   -1    0    0  501    0 -0.00000000000E+00 -0.00000000000E+00 -0.22642832197E+02  0.22642832197E+02  0.00000000000E+00 0. -1.
         25    2    1    2    0    0  0.73666461638E+02  0.52464212353E+02  0.10618586378E+04  0.10730087960E+04  0.12499947379E+03 0.  0.
          2    1    1    2  501    0 -0.11056702683E+03 -0.39128959616E+02  0.19537417450E+03  0.22787542861E+03  0.00000000000E+00 0. -1.
          1    1    1    2  502    0  0.36900565191E+02 -0.13335252736E+02  0.47018752500E+03  0.47182177709E+03  0.00000000000E+00 0. -1.
         22    1    3    3    0    0 -0.15672455545E+02  0.68696060120E+01  0.60619834932E+03  0.60643982064E+03  0.00000000000E+00 0.  1.
         22    1    3    3    0    0  0.89338917182E+02  0.45594606341E+02  0.45566028845E+03  0.46656897531E+03  0.00000000000E+00 0.  1.
</event>
<event>
 7    1  0.6188600E-006  0.4621707E+02  0.7818608E-02  0.1518590E+00
          2   -1    0    0  502    0  0.00000000000E+00  0.00000000000E+00  0.11253266641E+04  0.11253266641E+04  0.00000000000E+00 0. -1.
          1   -1    0    0  501    0 -0.00000000000E+00 -0.00000000000E+00 -0.21260862767E+03  0.21260862767E+03  0.00000000000E+00 0. -1.
         25    2    1    2    0    0  0.37959911123E+02 -0.48902588365E+02  0.44271980301E+02  0.14634926570E+03  0.12500272529E+03 0.  0.
          2    1    1    2  501    0 -0.58526908580E+01  0.45586122011E+02 -0.15804268803E+03  0.16458991388E+03  0.00000000000E+00 0. -1.
          1    1    1    2  502    0 -0.32107220265E+02  0.33164663542E+01  0.10264887442E+04  0.10269961122E+04  0.00000000000E+00 0. -1.
         22    1    3    3    0    0 -0.17160056652E+02 -0.74940577550E+02  0.35785990081E+02  0.84800912694E+02  0.00000000000E+00 0. -1.
         22    1    3    3    0    0  0.55119967774E+02  0.26037989184E+02  0.84859902201E+01  0.61548353010E+02  0.00000000000E+00 0. -1.
</event>
<event>
 7    1  0.6188600E-006  0.1757336E+03  0.7818608E-02  0.1332075E+00
          2   -1    0    0  502    0  0.00000000000E+00  0.00000000000E+00  0.12412958954E+04  0.12412958954E+04  0.00000000000E+00 0. -1.
          1   -1    0    0  501    0 -0.00000000000E+00 -0.00000000000E+00 -0.41321600073E+03  0.41321600073E+03  0.00000000000E+00 0. -1.
         25    2    1    2    0    0  0.13154153565E+03 -0.60252767479E+02  0.12730809601E+03  0.22970641854E+03  0.12499646323E+03 0.  0.
          2    1    1    2  501    0 -0.16600976708E+03  0.68597033321E+02 -0.33941475775E+03  0.38401454858E+03  0.00000000000E+00 0. -1.
          1    1    1    2  502    0  0.34468231429E+02 -0.83442658415E+01  0.10401865564E+04  0.10407909290E+04  0.00000000000E+00 0. -1.
         22    1    3    3    0    0  0.12370160973E+03 -0.77962347717E+02  0.14319380795E+03  0.20465747616E+03  0.00000000000E+00 0.  1.
         22    1    3    3    0    0  0.78399259160E+01  0.17709580238E+02 -0.15885711944E+02  0.25048942383E+02  0.00000000000E+00 0.  1.
</event>
<event>
 7    1  0.6188600E-006  0.2224947E+03  0.7818608E-02  0.1185355E+00
          2   -1    0    0  502    0  0.00000000000E+00  0.00000000000E+00  0.13764925956E+04  0.13764925956E+04  0.00000000000E+00 0. -1.
          1   -1    0    0  501    0 -0.00000000000E+00 -0.00000000000E+00 -0.53272140851E+03  0.53272140851E+03  0.00000000000E+00 0. -1.
         25    2    1    2    0    0 -0.65463954852E+02  0.23913671559E+03 -0.24339893582E+01  0.27767373461E+03  0.12499952184E+03 0.  0.
          2    1    1    2  501    0  0.11726295527E+03 -0.22534069419E+02 -0.37326544039E+03  0.39189982642E+03  0.00000000000E+00 0. -1.
          1    1    1    2  502    0 -0.51799000417E+02 -0.21660264617E+03  0.12194706168E+04  0.12396404430E+04  0.00000000000E+00 0. -1.
         22    1    3    3    0    0 -0.62169037597E+02  0.93416525617E+02 -0.52058702890E+02  0.12370022248E+03  0.00000000000E+00 0. -1.
         22    1    3    3    0    0 -0.32949172553E+01  0.14572018997E+03  0.49624713532E+02  0.15397351213E+03  0.00000000000E+00 0. -1.
</event>
<event>
 7    1  0.6188600E-006  0.5126667E+02  0.7818608E-02  0.1494985E+00
          2   -1    0    0  502    0  0.00000000000E+00  0.00000000000E+00  0.19776462510E+04  0.19776462510E+04  0.00000000000E+00 0. -1.
          1   -1    0    0  501    0 -0.00000000000E+00 -0.00000000000E+00 -0.26202825417E+02  0.26202825417E+02  0.00000000000E+00 0. -1.
         25    2    1    2    0    0 -0.37024787838E+01  0.24898162230E+02  0.44990765903E+03  0.46762820310E+03  0.12500243137E+03 0.  0.
          2    1    1    2  501    0 -0.30537991377E+02  0.15334456450E+02  0.41867309005E+00  0.34174402103E+02  0.00000000000E+00 0. -1.
          1    1    1    2  502    0  0.34240470161E+02 -0.40232618680E+02  0.15011170935E+04  0.15020464712E+04  0.00000000000E+00 0. -1.
         22    1    3    3    0    0 -0.34590589980E+02  0.42598140349E+02  0.41194883317E+03  0.41558747771E+03  0.00000000000E+00 0.  1.
         22    1    3    3    0    0  0.30888111196E+02 -0.17699978119E+02  0.37958825860E+02  0.52040725393E+02  0.00000000000E+00 0.  1.
</event>
<event>
 7    1  0.6188600E-006  0.1068968E+03  0.7818608E-02  0.1398085E+00
          2   -1    0    0  502    0  0.00000000000E+00  0.00000000000E+00  0.15800101933E+04  0.15800101933E+04  0.00000000000E+00 0. -1.
          1   -1    0    0  501    0 -0.00000000000E+00 -0.00000000000E+00 -0.72148391201E+03  0.72148391201E+03  0.00000000000E+00 0. -1.
         25    2    1    2    0    0  0.11718544084E+03 -0.75783947196E+02  0.94639600848E+02  0.20989717350E+03  0.12499814077E+03 0.  0.
          2    1    1    2  501    0 -0.88178009275E+02  0.58808331292E+02 -0.65942496845E+03  0.66788851627E+03  0.00000000000E+00 0. -1.
          1    1    1    2  502    0 -0.29007431562E+02  0.16975615903E+02  0.14233116489E+04  0.14237084155E+04  0.00000000000E+00 0. -1.
         22    1    3    3    0    0  0.13306965894E+03 -0.27181347119E+02  0.74782158499E+02  0.15504428719E+03  0.00000000000E+00 0.  1.
         22    1    3    3    0    0 -0.15884218104E+02 -0.48602600077E+02  0.19857442349E+02  0.54852886302E+02  0.00000000000E+00 0.  1.
</event>
<event>
 7    1  0.6188600E-006  0.1363854E+03  0.7818608E-02  0.1285646E+00
          2   -1    0    0  502    0  0.00000000000E+00  0.00000000000E+00  0.29225930904E+04  0.29225930904E+04  0.00000000000E+00 0. -1.
          1   -1    0    0  501    0 -0.00000000000E+00 -0.00000000000E+00 -0.47214502950E+02  0.47214502950E+02  0.00000000000E+00 0. -1.
         25    2    1    2    0    0 -0.11797260856E+03 -0.92641862935E+02  0.38613699702E+03  0.43269649244E+03  0.12499769184E+03 0.  0.
          2    1    1    2  501    0  0.61966714831E+02 -0.31907861470E+02  0.33071150287E+02  0.77147173324E+02  0.00000000000E+00 0. -1.
          1    1    1    2  502    0  0.56005893732E+02  0.12454972440E+03  0.24561704402E+04  0.24599639276E+04  0.00000000000E+00 0. -1.
         22    1    3    3    0    0 -0.90975182729E+02 -0.19261471667E+02  0.30967080764E+03  0.32333186863E+03  0.00000000000E+00 0. -1.
         22    1    3    3    0    0 -0.26997425834E+02 -0.73380391267E+02  0.76466189375E+02  0.10936462381E+03  0.00000000000E+00 0. -1.
</event>
<event>
 7    1  0.6188600E-006  0.8132439E+02  0.7818608E-02  0.1373923E+00
          2   -1    0    0  502    0  0.00000000000E+00  0.00000000000E+00  0.33586279741E+03  0.33586279741E+03  0.00000000000E+00 0. -1.
          1   -1    0    0  501    0 -0.00000000000E+00 -0.00000000000E+00 -0.23341598879E+03  0.23341598879E+03  0.00000000000E+00 0. -1.
         25    2    1    2    0    0  0.28904377264E+02 -0.85226138369E+02 -0.50596516482E+02  0.16212460425E+03  0.12500168854E+03 0.  0.
          2    1    1    2  501    0  0.24425556263E+02  0.78873751326E+02 -0.11064168774E+03  0.13805527702E+03  0.00000000000E+00 0. -1.
          1    1    1    2  502    0 -0.53329933527E+02  0.63523870424E+01  0.26368501285E+03  0.26909890493E+03  0.00000000000E+00 0. -1.
         22    1    3    3    0    0  0.52995731978E+02 -0.85645988873E+02 -0.76702990945E+02  0.12659830898E+03  0.00000000000E+00 0.  1.
         22    1    3    3    0    0 -0.24091354714E+02  0.41985050411E+00  0.26106474463E+02  0.35526295265E+02  0.00000000000E+00 0.  1.
</event>
<event>
 7    1  0.6188600E-006  0.1145563E+03  0.7818608E-02  0.1297024E+00
          2   -1    0    0  502    0  0.00000000000E+00  0.00000000000E+00  0.79319481254E+03  0.79319481254E+03  0.00000000000E+00 0. -1.
          1   -1    0    0  501    0 -0.00000000000E+00 -0.00000000000E+00 -0.31089001685E+03  0.31089001685E+03  0.00000000000E+00 0. -1.
         25    2    1    2    0    0  0.70114243321E+02 -0.14140416714E+03  0.52336293458E+02  0.20803153556E+03  0.12500754607E+03 0.  0.
          2    1    1    2  501    0 -0.68892699681E+02  0.28644910992E+02 -0.22210459096E+03  0.23430148169E+03  0.00000000000E+00 0. -1.
          1    1    1    2  502    0 -0.12215436399E+01  0.11275925614E+03  0.65207309320E+03  0.66175181215E+03  0.00000000000E+00 0. -1.
         22    1    3    3    0    0  0.52901641805E+01 -0.10709927469E+03  0.75472560451E+02  0.13112722012E+03  0.00000000000E+00 0. -1.
         22    1    3    3    0    0  0.64824079140E+02 -0.34304892446E+02 -0.23136266993E+02  0.76904315435E+02  0.00000000000E+00 0. -1.
</event>
<event>
 7    1  0.6188600E-006  0.1375097E+03  0.7818608E-02  0.1280929E+00
          2   -1    0    0  502    0  0.00000000000E+00  0.00000000000E+00  0.14304314010E+04  0.14304314010E+04  0.00000000000E+00 0. -1.
          1   -1    0    0  501    0 -0.00000000000E+00 -0.00000000000E+00 -0.14923631739E+03  0.14923631739E+03  0.00000000000E+00 0. -1.
         25    2    1    2    0    0  0.18745087974E+03 -0.26748331200E+02  0.62861353252E+03  0.66830623600E+03  0.12499978511E+03 0.  0.
          2    1    1    2  501    0 -0.62714361762E+02  0.35947155914E+02 -0.11381273848E+03  0.13482814480E+03  0.00000000000E+00 0. -1.
          1    1    1    2  502    0 -0.12473651797E+03 -0.91988247133E+01  0.76639428960E+03  0.77653333761E+03  0.00000000000E+00 0. -1.
         22    1    3    3    0    0  0.82515605763E+02 -0.71043460671E+02  0.37071980270E+03  0.38637956805E+03  0.00000000000E+00 0. -1.
         22    1    3    3    0    0  0.10493527397E+03  0.44295129470E+02  0.25789372982E+03  0.28192666795E+03  0.00000000000E+00 0. -1.
</event>
<event>
 7    1  0.6188600E-006  0.1154389E+03  0.7818608E-02  0.1291704E+00
          2   -1    0    0  502    0  0.00000000000E+00  0.00000000000E+00  0.50379889622E+03  0.50379889622E+03  0.00000000000E+00 0. -1.
          1   -1    0    0  501    0 -0.00000000000E+00 -0.00000000000E+00 -0.91414348135E+03  0.91414348135E+03  0.00000000000E+00 0. -1.
         25    2    1    2    0    0 -0.12979110156E+03 -0.45041455833E+01  0.10639610206E+03  0.20930877879E+03  0.12499606782E+03 0.  0.
          2    1    1    2  501    0  0.33375002111E+02  0.70272420657E+02 -0.85101852831E+03  0.85456693090E+03  0.00000000000E+00 0. -1.
          1    1    1    2  502    0  0.96416099453E+02 -0.65768275074E+02  0.33427784111E+03  0.35406666787E+03  0.00000000000E+00 0. -1.
         22    1    3    3    0    0 -0.51719435803E+02 -0.53617636909E+02  0.87840843354E+01  0.75012740019E+02  0.00000000000E+00 0.  1.
         22    1    3    3    0    0 -0.78071665761E+02  0.49113491326E+02  0.97612017723E+02  0.13429603877E+03  0.00000000000E+00 0.  1.
</event>
<event>
 7    1  0.6188600E-006  0.2541327E+02  0.7818608E-02  0.1657925E+00
          2   -1    0    0  502    0  0.00000000000E+00  0.00000000000E+00  0.12668350789E+04  0.12668350789E+04  0.00000000000E+00 0. -1.
          1   -1    0    0  501    0 -0.00000000000E+00 -0.00000000000E+00 -0.39062816747E+02  0.39062816747E+02  0.00000000000E+00 0. -1.
         25    2    1    2    0    0  0.99817536069E+01 -0.30037487863E+02  0.50907947077E+03  0.52516858471E+03  0.12505298367E+03 0.  0.
          2    1    1    2  501    0  0.13851973311E+02  0.20834837966E+02 -0.25718059644E+02  0.35880164848E+02  0.00000000000E+00 0. -1.
          1    1    1    2  502    0 -0.23833726917E+02  0.92026498969E+01  0.74441085102E+03  0.74484914608E+03  0.00000000000E+00 0. -1.
         22    1    3    3    0    0  0.12449677612E+02  0.47170141240E+02  0.25425725730E+03  0.25889528691E+03  0.00000000000E+00 0. -1.
         22    1    3    3    0    0 -0.24679240049E+01 -0.77207629103E+02  0.25482221348E+03  0.26627329780E+03  0.00000000000E+00 0. -1.
</event>
<event>
 7    1  0.6188600E-006  0.1979815E+03  0.7818608E-02  0.1271191E+00
          2   -1    0    0  502    0  0.00000000000E+00  0.00000000000E+00  0.22262608988E+04  0.22262608988E+04  0.00000000000E+00 0. -1.
          1   -1    0    0  501    0 -0.00000000000E+00 -0.00000000000E+00 -0.97473328802E+03  0.97473328802E+03  0.00000000000E+00 0. -1.
         25    2    1    2    0    0  0.68017237212E+01  0.19472513097E+03  0.45381060945E+03  0.50944270400E+03  0.12499463724E+03 0.  0.
          2    1    1    2  501    0  0.54923996680E+02 -0.45690298913E+01 -0.94038028162E+03  0.94199394664E+03  0.00000000000E+00 0. -1.
          1    1    1    2  502    0 -0.61725720401E+02 -0.19015610108E+03  0.17380972830E+04  0.17495575362E+04  0.00000000000E+00 0. -1.
         22    1    3    3    0    0  0.74808101821E+01  0.20490863051E+03  0.35387900302E+03  0.40899126904E+03  0.00000000000E+00 0. -1.
         22    1    3    3    0    0 -0.67908646083E+00 -0.10183499543E+02  0.99931606430E+02  0.10045143496E+03  0.00000000000E+00 0. -1.
</event>
<event>
 7    1  0.6188600E-006  0.5645978E+02  0.7818608E-02  0.1454403E+00
          2   -1    0    0  502    0  0.00000000000E+00  0.00000000000E+00  0.69026217779E+02  0.69026217779E+02  0.00000000000E+00 0. -1.
          1   -1    0    0  501    0 -0.00000000000E+00 -0.00000000000E+00 -0.15190346696E+04  0.15190346696E+04  0.00000000000E+00 0. -1.
         25    2    1    2    0    0  0.14733462065E+02 -0.16696318538E+02 -0.32212848433E+03  0.34624787718E+03  0.12499996030E+03 0.  0.
          2    1    1    2  501    0 -0.10105589167E+02  0.57856175379E+02 -0.11764871014E+04  0.11779521890E+04  0.00000000000E+00 0. -1.
          1    1    1    2  502    0 -0.46278728973E+01 -0.41159856841E+02  0.48607133850E+02  0.63860821196E+02  0.00000000000E+00 0. -1.
         22    1    3    3    0    0 -0.23899183663E+02 -0.58746982745E+02 -0.22305405374E+03  0.23189542870E+03  0.00000000000E+00 0.  1.
         22    1    3    3    0    0  0.38632645727E+02  0.42050664208E+02 -0.99074430589E+02  0.11435244848E+03  0.00000000000E+00 0.  1.
</event>
<event>
 7    1  0.6188600E-006  0.4787992E+03  0.7818608E-02  0.1159075E+00
          2   -1    0    0  502    0  0.00000000000E+00  0.00000000000E+00  0.89575057021E+03  0.89575057021E+03  0.00000000000E+00 0. -1.
          1   -1    0    0  501    0 -0.00000000000E+00 -0.00000000000E+00 -0.59872750083E+03  0.59872750083E+03  0.00000000000E+00 0. -1.
         25    2    1    2    0    0 -0.38932939659E+03  0.21713593083E+03 -0.11706063871E+03  0.47754967192E+03  0.12500041804E+03 0.  0.
          2    1    1    2  501    0  0.45092348261E+03 -0.25968034653E+03 -0.71826586642E+02  0.52528556813E+03  0.00000000000E+00 0. -1.
          1    1    1    2  502    0 -0.61594086015E+02  0.42544415701E+02  0.48591029474E+03  0.49164283100E+03  0.00000000000E+00 0. -1.
         22    1    3    3    0    0 -0.37052598712E+03  0.22459488432E+03 -0.13138464373E+03  0.45276295542E+03  0.00000000000E+00 0.  1.
         22    1    3    3    0    0 -0.18803409475E+02 -0.74589534931E+01  0.14324005020E+02  0.24786716501E+02  0.00000000000E+00 0.  1.
</event>
<event>
 7    1  0.6188600E-006  0.2984537E+02  0.7818608E-02  0.1603392E+00
          2   -1    0    0  502    0  0.00000000000E+00  0.00000000000E+00  0.29897394129E+04  0.29897394129E+04  0.00000000000E+00 0. -1.
          1   -1    0    0  501    0 -0.00000000000E+00 -0.00000000000E+00 -0.94767518234E+02  0.94767518234E+02  0.00000000000E+00 0. -1.
         25    2    1    2    0    0 -0.51664388805E+01  0.16952769820E+02  0.16129707312E+04  0.16179042787E+04  0.12500234846E+03 0.  0.
          2    1    1    2  501    0 -0.25603133565E+02 -0.15337063770E+02 -0.89710589211E+02  0.94544887699E+02  0.00000000000E+00 0. -1.
          1    1    1    2  502    0  0.30769572445E+02 -0.16157060497E+01  0.13717117527E+04  0.13720577646E+04  0.00000000000E+00 0. -1.
         22    1    3    3    0    0 -0.32791874489E+02  0.31847287294E+02  0.14988402595E+04  0.14995371553E+04  0.00000000000E+00 0.  1.
         22    1    3    3    0    0  0.27625435609E+02 -0.14894517474E+02  0.11413047166E+03  0.11836712341E+03  0.00000000000E+00 0.  1.
</event>
<event>
 7    1  0.6188600E-006  0.8568596E+02  0.7818608E-02  0.1349560E+00
          2   -1    0    0  502    0  0.00000000000E+00  0.00000000000E+00  0.24855680289E+03  0.24855680289E+03  0.00000000000E+00 0. -1.
          1   -1    0    0  501    0 -0.00000000000E+00 -0.00000000000E+00 -0.44168319761E+03  0.44168319761E+03  0.00000000000E+00 0. -1.
         25    2    1    2    0    0 -0.48594485547E+02 -0.17279746638E+02 -0.11789688921E+03  0.17939844139E+03  0.12499644243E+03 0.  0.
          2    1    1    2  501    0  0.87529036665E+01 -0.61905906600E+02 -0.28042898058E+03  0.28731405768E+03  0.00000000000E+00 0. -1.
          1    1    1    2  502    0  0.39841581880E+02  0.79185653237E+02  0.20519947506E+03  0.22352750142E+03  0.00000000000E+00 0. -1.
         22    1    3    3    0    0 -0.10635401297E+02  0.51331928710E+02 -0.70220020830E+02  0.87629504113E+02  0.00000000000E+00 0.  1.
         22    1    3    3    0    0 -0.37959084250E+02 -0.68611675348E+02 -0.47676868378E+02  0.91768937279E+02  0.00000000000E+00 0.  1.
</event>
<event>
 7    1  0.6188600E-006  0.1431134E+03  0.7818608E-02  0.1368097E+00
          2   -1    0    0  502    0  0.00000000000E+00  0.00000000000E+00  0.91356142652E+03  0.91356142652E+03  0.00000000000E+00 0. -1.
          1   -1    0    0  501    0 -0.00000000000E+00 -0.00000000000E+00 -0.28823639568E+03  0.28823639568E+03  0.00000000000E+00 0. -1.
         25    2    1    2    0    0 -0.16221147932E+03  0.34783883178E+02  0.36783348112E+03  0.42243194871E+03  0.12499919563E+03 0.  0.
          2    1    1    2  501    0  0.31861281890E+02  0.32299933828E+01 -0.25101192938E+03  0.25304656258E+03  0.00000000000E+00 0. -1.
          1    1    1    2  502    0  0.13035019743E+03 -0.38013876561E+02  0.50850347910E+03  0.52631931091E+03  0.00000000000E+00 0. -1.
         22    1    3    3    0    0 -0.94126780561E+02 -0.32187939619E+02  0.26003555888E+03  0.27841409116E+03  0.00000000000E+00 0.  1.
         22    1    3    3    0    0 -0.68084698754E+02  0.66971822797E+02  0.10779792224E+03  0.14401785755E+03  0.00000000000E+00 0.  1.
</event>
<event>
 7    1  0.6188600E-006  0.1880846E+03  0.7818608E-02  0.1353777E+00
          2   -1    0    0  502    0  0.00000000000E+00  0.00000000000E+00  0.20085393653E+04  0.20085393653E+04  0.00000000000E+00 0. -1.
          1   -1    0    0  501    0 -0.00000000000E+00 -0.00000000000E+00 -0.44872855195E+03  0.44872855195E+03  0.00000000000E+00 0. -1.
         25    2    1    2    0    0 -0.11521270640E+03  0.11896649569E+03  0.69302992148E+02  0.21875792358E+03  0.12500051838E+03 0.  0.
          2    1    1    2  501    0 -0.59391702879E+01  0.26829413092E+02 -0.36867024789E+03  0.36969290341E+03  0.00000000000E+00 0. -1.
          1    1    1    2  502    0  0.12115187669E+03 -0.14579590878E+03  0.18591780691E+04  0.18688170902E+04  0.00000000000E+00 0. -1.
         22    1    3    3    0    0 -0.82343556764E+02  0.68239974711E+02  0.10390592873E+03  0.14910934751E+03  0.00000000000E+00 0. -1.
         22    1    3    3    0    0 -0.32869149638E+02  0.50726520976E+02 -0.34602936586E+02  0.69648576070E+02  0.00000000000E+00 0. -1.
</event>
<event>
 7    1  0.6188600E-006  0.1377570E+03  0.7818608E-02  0.1223471E+00
          2   -1    0    0  502    0  0.00000000000E+00  0.00000000000E+00  0.38289386186E+04  0.38289386186E+04  0.00000000000E+00 0. -1.
          1   -1    0    0  501    0 -0.00000000000E+00 -0.00000000000E+00 -0.60610981846E+03  0.60610981846E+03  0.00000000000E+00 0. -1.
         25    2    1    2    0    0 -0.23239515814E+03  0.96777157245E+02  0.22817906281E+03  0.36202819529E+03  0.12500160713E+03 0.  0.
          2    1    1    2  501    0  0.13390350445E+03 -0.15225892812E+02 -0.52958654522E+03  0.54646489841E+03  0.00000000000E+00 0. -1.
          1    1    1    2  502    0  0.98491653686E+02 -0.81551264433E+02  0.35242362826E+04  0.35265553434E+04  0.00000000000E+00 0. -1.
         22    1    3    3    0    0  0.55186396349E+01  0.74257898944E+01  0.51945729617E+02  0.52763212226E+02  0.00000000000E+00 0. -1.
         22    1    3    3    0    0 -0.23791379777E+03  0.89351367350E+02  0.17623333320E+03  0.30926498306E+03  0.00000000000E+00 0. -1.
</event>
<event>
 7    1  0.6188600E-006  0.3997720E+02  0.7818608E-02  0.1537898E+00
          2   -1    0    0  502    0  0.00000000000E+00  0.00000000000E+00  0.23218204742E+03  0.23218204742E+03  0.00000000000E+00 0. -1.
          1   -1    0    0  501    0 -0.00000000000E+00 -0.00000000000E+00 -0.43924580216E+03  0.43924580216E+03  0.00000000000E+00 0. -1.
         25    2    1    2    0    0  0.46737740731E+02 -0.54738814057E+02 -0.42378666401E+02  0.15033901745E+03  0.12500045851E+03 0.  0.
          2    1    1    2  501    0 -0.27376233291E+02  0.28209255115E+02 -0.34023234596E+03  0.34249564882E+03  0.00000000000E+00 0. -1.
          1    1    1    2  502    0 -0.19361507439E+02  0.26529558941E+02  0.17554725762E+03  0.17859318331E+03  0.00000000000E+00 0. -1.
         22    1    3    3    0    0  0.44868634261E+02 -0.17386972294E+02 -0.82489031380E+02  0.95498384510E+02  0.00000000000E+00 0. -1.
         22    1    3    3    0    0  0.18691064697E+01 -0.37351841763E+02  0.40110364979E+02  0.54840632936E+02  0.00000000000E+00 0. -1.
</event>
<event>
 7    1  0.6188600E-006  0.4321346E+02  0.7818608E-02  0.1591089E+00
          2   -1    0    0  502    0  0.00000000000E+00  0.00000000000E+00  0.81186867178E+02  0.81186867178E+02  0.00000000000E+00 0. -1.
          1   -1    0    0  501    0 -0.00000000000E+00 -0.00000000000E+00 -0.80735855910E+03  0.80735855910E+03  0.00000000000E+00 0. -1.
         25    2    1    2    0    0 -0.26131911727E+02 -0.56196654258E+02 -0.43844167331E+02  0.14624979991E+03  0.12500300878E+03 0.  0.
          2    1    1    2  501    0  0.11578643042E+02  0.18387160120E+02 -0.69837980057E+03  0.69871775309E+03  0.00000000000E+00 0. -1.
          1    1    1    2  502    0  0.14553268686E+02  0.37809494139E+02  0.16052275975E+02  0.43577873289E+02  0.00000000000E+00 0. -1.
         22    1    3    3    0    0  0.40192629297E+02  0.12405480370E+02 -0.21536878789E+01  0.42118662900E+02  0.00000000000E+00 0.  1.
         22    1    3    3    0    0 -0.66324541024E+02 -0.68602134628E+02 -0.41690479452E+02  0.10413113701E+03  0.00000000000E+00 0.  1.
</event>
<event>
 7    1  0.6188600E-006  0.8549471E+02  0.7818608E-02  0.1412584E+00
          2   -1    0    0  502    0  0.00000000000E+00  0.00000000000E+00  0.18521415904E+04  0.18521415904E+04  0.00000000000E+00 0. -1.
          1   -1    0    0  501    0 -0.00000000000E+00 -0.00000000000E+00 -0.27547368468E+02  0.27547368468E+02  0.00000000000E+00 0. -1.
         25    2    1    2    0    0 -0.30993338686E+02  0.56446086278E+02  0.31554570452E+03  0.34545869912E+03  0.12500349379E+03 0.  0.
          2    1    1    2  501    0  0.21462316199E+02  0.30749472382E+02  0.19808230529E+02  0.42409044614E+02  0.00000000000E+00 0. -1.
          1    1    1    2  502    0  0.95310224869E+01 -0.87195558660E+02  0.14892402869E+04  0.14918212151E+04  0.00000000000E+00 0. -1.
         22    1    3    3    0    0 -0.85460941074E+01  0.37826017492E+01 -0.10712352268E+02  0.14216127869E+02  0.00000000000E+00 0. -1.
         22    1    3    3    0    0 -0.22447244578E+02  0.52663484529E+02  0.32625805679E+03  0.33124257125E+03  0.00000000000E+00 0. -1.
</event>
<event>
 7    1  0.6188600E-006  0.1136475E+03  0.7818608E-02  0.1297711E+00
          2   -1    0    0  502    0  0.00000000000E+00  0.00000000000E+00  0.99714940327E+03  0.99714940327E+03  0.00000000000E+00 0. -1.
          1   -1    0    0  501    0 -0.00000000000E+00 -0.00000000000E+00 -0.10129180086E+03  0.10129180086E+03  0.00000000000E+00 0. -1.
         25    2    1    2    0    0  0.41154509065E+02 -0.55070231834E+02  0.19230957586E+03  0.23944558601E+03  0.12499916656E+03 0.  0.
          2    1    1    2  501    0 -0.16216601893E+02  0.12551683514E+03 -0.22984170431E+02  0.12863019153E+03  0.00000000000E+00 0. -1.
          1    1    1    2  502    0 -0.24937907173E+02 -0.70446603310E+02  0.72653219697E+03  0.73036542660E+03  0.00000000000E+00 0. -1.
         22    1    3    3    0    0 -0.10575603380E+02 -0.57845492673E+01  0.16097677222E+03  0.16142746232E+03  0.00000000000E+00 0. -1.
         22    1    3    3    0    0  0.51730112445E+02 -0.49285682567E+02  0.31332803641E+02  0.78018123687E+02  0.00000000000E+00 0. -1.
</event>
<event>
 7    1  0.6188600E-006  0.6534049E+02  0.7818608E-02  0.1440645E+00
          2   -1    0    0  502    0  0.00000000000E+00  0.00000000000E+00  0.17314503771E+02  0.17314503771E+02  0.00000000000E+00 0. -1.
          1   -1    0    0  501    0 -0.00000000000E+00 -0.00000000000E+00 -0.15481954165E+04  0.15481954165E+04  0.00000000000E+00 0. -1.
         25    2    1    2    0    0  0.41812139009E+02 -0.84435648411E+02 -0.39918533673E+03  0.42877523071E+03  0.12498652618E+03 0.  0.
          2    1    1    2  501    0 -0.42994427832E+02  0.44831501355E+02 -0.50831394062E+03  0.51209515382E+03  0.00000000000E+00 0. -1.
          1    1    1    2  502    0  0.11822888227E+01  0.39604147055E+02 -0.62338163536E+03  0.62463953571E+03  0.00000000000E+00 0. -1.
         22    1    3    3    0    0  0.61494265055E+02 -0.28537266629E+02 -0.83402732546E+02  0.10747993309E+03  0.00000000000E+00 0. -1.
         22    1    3    3    0    0 -0.19682126045E+02 -0.55898381782E+02 -0.31578260418E+03  0.32129529762E+03  0.00000000000E+00 0. -1.
</event>
<event>
 7    1  0.6188600E-006  0.6345163E+02  0.7818608E-02  0.1436797E+00
          2   -1    0    0  502    0  0.00000000000E+00  0.00000000000E+00  0.12582630538E+04  0.12582630538E+04  0.00000000000E+00 0. -1.
          1   -1    0    0  501    0 -0.00000000000E+00 -0.00000000000E+00 -0.82822975639E+02  0.82822975639E+02  0.00000000000E+00 0. -1.
         25    2    1    2    0    0  0.10017024564E+03  0.29437442745E+02  0.55877769086E+03  0.58202856797E+03  0.12499641990E+03 0.  0.
          2    1    1    2  501    0 -0.59471873063E+02 -0.19086937310E+02 -0.56717883669E+02  0.84369029800E+02  0.00000000000E+00 0. -1.
          1    1    1    2  502    0 -0.40698372572E+02 -0.10350505435E+02  0.67338027092E+03  0.67468843162E+03  0.00000000000E+00 0. -1.
         22    1    3    3    0    0  0.40276871429E+02  0.69161894797E+02  0.39727135625E+03  0.40525316107E+03  0.00000000000E+00 0. -1.
         22    1    3    3    0    0  0.59893374206E+02 -0.39724452052E+02  0.16150633461E+03  0.17677540690E+03  0.00000000000E+00 0. -1.
</event>
<event>
 7    1  0.6188600E-006  0.4047575E+02  0.7818608E-02  0.1551882E+00
          2   -1    0    0  502    0  0.00000000000E+00  0.00000000000E+00  0.13341035594E+04  0.13341035594E+04  0.00000000000E+00 0. -1.
          1   -1    0    0  501    0 -0.00000000000E+00 -0.00000000000E+00 -0.18464123652E+03  0.18464123652E+03  0.00000000000E+00 0. -1.
         25    2    1    2    0    0 -0.67462526487E+01 -0.20206538272E+02 -0.22770690989E+02  0.12883336463E+03  0.12500286140E+03 0.  0.
          2    1    1    2  501    0 -0.15981093349E+02  0.39223392490E+02 -0.10454030232E+03  0.11279425816E+03  0.00000000000E+00 0. -1.
          1    1    1    2  502    0  0.22727345998E+02 -0.19016854219E+02  0.12767733162E+04  0.12771171732E+04  0.00000000000E+00 0. -1.
         22    1    3    3    0    0 -0.61315160763E+02 -0.32823355520E+02 -0.36229958885E+01  0.69642283896E+02  0.00000000000E+00 0. -1.
         22    1    3    3    0    0  0.54568908114E+02  0.12616817248E+02 -0.19147695100E+02  0.59191080729E+02  0.00000000000E+00 0. -1.
</event>
<event>
 7    1  0.6188600E-006  0.7594705E+02  0.7818608E-02  0.1398782E+00
          2   -1    0    0  502    0  0.00000000000E+00  0.00000000000E+00  0.38481195749E+02  0.38481195749E+02  0.00000000000E+00 0. -1.
          1   -1    0    0  501    0 -0.00000000000E+00 -0.00000000000E+00 -0.81666685034E+03  0.81666685034E+03  0.00000000000E+00 0. -1.
         25    2    1    2    0    0  0.70104243045E+01 -0.61532321723E+02 -0.39983947200E+03  0.42347577841E+03  0.12499903547E+03 0.  0.
          2    1    1    2  501    0  0.37829920080E+02  0.75766546964E+02 -0.37507145939E+03  0.38451303247E+03  0.00000000000E+00 0. -1.
          1    1    1    2  502    0 -0.44840344384E+02 -0.14234225241E+02 -0.32747231976E+01  0.47159235201E+02  0.00000000000E+00 0. -1.
         22    1    3    3    0    0 -0.61160469745E+01  0.25051511976E+02 -0.23859987324E+03  0.23998934100E+03  0.00000000000E+00 0. -1.
         22    1    3    3    0    0  0.13126471279E+02 -0.86583833699E+02 -0.16123959875E+03  0.18348643741E+03  0.00000000000E+00 0. -1.
</event>
<event>
 7    1  0.6188600E-006  0.8168472E+02  0.7818608E-02  0.1336669E+00
          2   -1    0    0  502    0  0.00000000000E+00  0.00000000000E+00  0.60404999717E+03  0.60404999717E+03  0.00000000000E+00 0. -1.
          1   -1    0    0  501    0 -0.00000000000E+00 -0.00000000000E+00 -0.10419153242E+04  0.10419153242E+04  0.00000000000E+00 0. -1.
         25    2    1    2    0    0 -0.10495245022E+03  0.19213820789E+02  0.64762527006E+02  0.17664301177E+03  0.12499752392E+03 0.  0.
          2    1    1    2  501    0  0.68603779583E+02  0.44431484103E+02 -0.98148804715E+03  0.98488548677E+03  0.00000000000E+00 0. -1.
          1    1    1    2  502    0  0.36348670638E+02 -0.63645304891E+02  0.47886019315E+03  0.48443682279E+03  0.00000000000E+00 0. -1.
         22    1    3    3    0    0 -0.11289634655E+03  0.56003910547E+02  0.56495671618E+02  0.13810787078E+03  0.00000000000E+00 0.  1.
         22    1    3    3    0    0  0.79438963253E+01 -0.36790089758E+02  0.82668553886E+01  0.38535140992E+02  0.00000000000E+00 0.  1.
</event>
<event>
 7    1  0.6188600E-006  0.4755560E+02  0.7818608E-02  0.1576109E+00
          2   -1    0    0  502    0  0.00000000000E+00  0.00000000000E+00  0.17253850181E+04  0.17253850181E+04  0.00000000000E+00 0. -1.
          1   -1    0    0  501    0 -0.00000000000E+00 -0.00000000000E+00 -0.79292764893E+02  0.79292764893E+02  0.00000000000E+00 0. -1.
         25    2    1    2    0    0 -0.26109870460E+02 -0.52921539522E-01  0.97405102192E+03  0.98238602663E+03  0.12500073550E+03 0.  0.
          2    1    1    2  501    0  0.47695128350E+02 -0.16079983764E+01 -0.67372103922E+02  0.82561560753E+02  0.00000000000E+00 0. -1.
          1    1    1    2  502    0 -0.21585257890E+02  0.16609199160E+01  0.73941333519E+03  0.73973019560E+03  0.00000000000E+00 0. -1.
         22    1    3    3    0    0 -0.40153649156E+02  0.55527373217E+02  0.61203098892E+03  0.61585512591E+03  0.00000000000E+00 0. -1.
         22    1    3    3    0    0  0.14043778696E+02 -0.55580294756E+02  0.36202003301E+03  0.36653090072E+03  0.00000000000E+00 0. -1.
</event>
<event>
 7    1  0.6188600E-006  0.4544762E+02  0.7818608E-02  0.1484799E+00
          2   -1    0    0  502    0  0.00000000000E+00  0.00000000000E+00  0.18244212817E+04  0.18244212817E+04  0.00000000000E+00 0. -1.
          1   -1    0    0  501    0 -0.00000000000E+00 -0.00000000000E+00 -0.65043095310E+03  0.65043095310E+03  0.00000000000E+00 0. -1.
         25    2    1    2    0    0 -0.25903038351E+02  0.57154910680E+01  0.52381135849E+03  0.53917227559E+03  0.12499907697E+03 0.  0.
          2    1    1    2  501    0  0.10729507864E+02 -0.44215604743E+02 -0.64161355713E+03  0.64322476533E+03  0.00000000000E+00 0. -1.
          1    1    1    2  502    0  0.15173530487E+02  0.38500113675E+02  0.12917925272E+04  0.12924551939E+04  0.00000000000E+00 0. -1.
         22    1    3    3    0    0  0.12821360901E+02 -0.49758047810E+02  0.13361583298E+03  0.14315530532E+03  0.00000000000E+00 0. -1.
         22    1    3    3    0    0 -0.38724399251E+02  0.55473538878E+02  0.39019552551E+03  0.39601697027E+03  0.00000000000E+00 0. -1.
</event>
<event>
 7    1  0.6188600E-006  0.6704125E+02  0.7818608E-02  0.1417483E+00
          2   -1    0    0  502    0  0.00000000000E+00  0.00000000000E+00  0.13964449390E+04  0.13964449390E+04  0.00000000000E+00 0. -1.
          1   -1    0    0  501    0 -0.00000000000E+00 -0.00000000000E+00 -0.31735626232E+04  0.31735626232E+04  0.00000000000E+00 0. -1.
         25    2    1    2    0    0  0.29069394706E+02 -0.91737820503E+02  0.25298582335E+03  0.29814091615E+03  0.12500128660E+03 0.  0.
          2    1    1    2  501    0  0.93455384639E+01  0.66360865081E+02 -0.31501557731E+04  0.31508685308E+04  0.00000000000E+00 0. -1.
          1    1    1    2  502    0 -0.38414933170E+02  0.25376955422E+02  0.11200522655E+04  0.11209981153E+04  0.00000000000E+00 0. -1.
         22    1    3    3    0    0 -0.13914416999E+02 -0.25515911161E+02 -0.39672236272E+01  0.29332773243E+02  0.00000000000E+00 0. -1.
         22    1    3    3    0    0  0.42983811705E+02 -0.66221909342E+02  0.25695304697E+03  0.26880814291E+03  0.00000000000E+00 0. -1.
</event>
<event>
 7    1  0.6188600E-006  0.1094226E+03  0.7818608E-02  0.1400350E+00
          2   -1    0    0  502    0  0.00000000000E+00  0.00000000000E+00  0.26284378843E+03  0.26284378843E+03  0.00000000000E+00 0. -1.
          1   -1    0    0  501    0 -0.00000000000E+00 -0.00000000000E+00 -0.58719885503E+03  0.58719885503E+03  0.00000000000E+00 0. -1.
         25    2    1    2    0    0 -0.63079047597E+02 -0.97516313904E+02  0.54685243522E+02  0.17917978638E+03  0.12500608891E+03 0.  0.
          2    1    1    2  501    0  0.31624103157E+02  0.10463110840E+03 -0.51738694183E+03  0.52880714851E+03  0.00000000000E+00 0. -1.
          1    1    1    2  502    0  0.31454944439E+02 -0.71147944979E+01  0.13834663171E+03  0.14205570856E+03  0.00000000000E+00 0. -1.
         22    1    3    3    0    0 -0.94200665447E+02 -0.92425534658E+02  0.22054129036E+02  0.13380070790E+03  0.00000000000E+00 0.  1.
         22    1    3    3    0    0  0.31121617850E+02 -0.50907792455E+01  0.32631114486E+02  0.45379078478E+02  0.00000000000E+00 0.  1.
</event>
<event>
 7    1  0.6188600E-006  0.1142610E+03  0.7818608E-02  0.1422810E+00
          2   -1    0    0  502    0  0.00000000000E+00  0.00000000000E+00  0.17372816827E+03  0.17372816827E+03  0.00000000000E+00 0. -1.
          1   -1    0    0  501    0 -0.00000000000E+00 -0.00000000000E+00 -0.20067617919E+03  0.20067617919E+03  0.00000000000E+00 0. -1.
         25    2    1    2    0    0  0.55721451596E+02 -0.99584702811E+02  0.56085456787E+02  0.17830868480E+03  0.12500566152E+03 0.  0.
          2    1    1    2  501    0 -0.23176044114E+02 -0.11627609028E+02 -0.75665598157E+02  0.79985080215E+02  0.00000000000E+00 0. -1.
          1    1    1    2  502    0 -0.32545407482E+02  0.11121231184E+03 -0.73678695514E+01  0.11611058244E+03  0.00000000000E+00 0. -1.
         22    1    3    3    0    0 -0.12018682281E+02  0.18538274689E+02 -0.12982623190E+02  0.25625472817E+02  0.00000000000E+00 0.  1.
         22    1    3    3    0    0  0.67740133877E+02 -0.11812297750E+03  0.69068079977E+02  0.15268321199E+03  0.00000000000E+00 0.  1.
</event>
<event>
 7    1  0.6188600E-006  0.1243389E+03  0.7818608E-02  0.1243085E+00
          2   -1    0    0  502    0  0.00000000000E+00  0.00000000000E+00  0.52268113361E+03  0.52268113361E+03  0.00000000000E+00 0. -1.
          1   -1    0    0  501    0 -0.00000000000E+00 -0.00000000000E+00 -0.81337182290E+03  0.81337182290E+03  0.00000000000E+00 0. -1.
         25    2    1    2    0    0 -0.19359062531E+03  0.13624705016E+03 -0.36893375481E+03  0.45582382644E+03  0.12499062534E+03 0.  0.
          2    1    1    2  501    0  0.87035129042E+02 -0.76424167657E+02 -0.38452903424E+03  0.40159475253E+03  0.00000000000E+00 0. -1.
          1    1    1    2  502    0  0.10655549627E+03 -0.59822882506E+02  0.46277209975E+03  0.47863437754E+03  0.00000000000E+00 0. -1.
         22    1    3    3    0    0 -0.17710379834E+02 -0.23850973936E+02 -0.36209667528E+02  0.46836593963E+02  0.00000000000E+00 0. -1.
         22    1    3    3    0    0 -0.17588024548E+03  0.16009802410E+03 -0.33272408728E+03  0.40898723247E+03  0.00000000000E+00 0. -1.
</event>
<event>
 7    1  0.6188600E-006  0.1397501E+03  0.7818608E-02  0.1373814E+00
          2   -1    0    0  502    0  0.00000000000E+00  0.00000000000E+00  0.13821687286E+04  0.13821687286E+04  0.00000000000E+00 0. -1.
          1   -1    0    0  501    0 -0.00000000000E+00 -0.00000000000E+00 -0.12205168133E+04  0.12205168133E+04  0.00000000000E+00 0. -1.
         25    2    1    2    0    0  0.16214037811E+03 -0.45796412457E+02 -0.44790059265E+03  0.49459689517E+03  0.12499733682E+03 0.  0.
          2    1    1    2  501    0 -0.25329663891E+02  0.18356393890E+02 -0.74535696000E+03  0.74601310102E+03  0.00000000000E+00 0. -1.
          1    1    1    2  502    0 -0.13681071421E+03  0.27440018567E+02  0.13549094679E+04  0.13620755457E+04  0.00000000000E+00 0. -1.
         22    1    3    3    0    0  0.57784725815E+02 -0.15849979636E+02 -0.32556824992E+03  0.33103622423E+03  0.00000000000E+00 0. -1.
         22    1    3    3    0    0  0.10435565229E+03 -0.29946432821E+02 -0.12233234272E+03  0.16356067095E+03  0.00000000000E+00 0. -1.
</event>
<event>
 7    1  0.6188600E-006  0.9176372E+02  0.7818608E-02  0.1345763E+00
          2   -1    0    0  502    0  0.00000000000E+00  0.00000000000E+00  0.68622956395E+03  0.68622956395E+03  0.00000000000E+00 0. -1.
          1   -1    0    0  501    0 -0.00000000000E+00 -0.00000000000E+00 -0.25478540715E+04  0.25478540715E+04  0.00000000000E+00 0. -1.
         25    2    1    2    0    0 -0.11312667036E+02  0.34798629413E+02 -0.17834031576E+02  0.13145992460E+03  0.12499895219E+03 0.  0.
          2    1    1    2  501    0  0.90292521225E+01  0.59629580488E+02 -0.24692931113E+04  0.24700294905E+04  0.00000000000E+00 0. -1.
          1    1    1    2  502    0  0.22834149137E+01 -0.94428209901E+02  0.62550263535E+03  0.63259422036E+03  0.00000000000E+00 0. -1.
         22    1    3    3    0    0 -0.31492859382E+02 -0.24617355921E+02 -0.47474924342E+02  0.62061927506E+02  0.00000000000E+00 0. -1.
         22    1    3    3    0    0  0.20180192345E+02  0.59415985334E+02  0.29640892766E+02  0.69397997091E+02  0.00000000000E+00 0. -1.
</event>
<event>
 7    1  0.6188600E-006  0.2459311E+03  0.7818608E-02  0.1252307E+00
          2   -1    0    0  502    0  0.00000000000E+00  0.00000000000E+00  0.55244721855E+03  0.55244721855E+03  0.00000000000E+00 0. -1.
          1   -1    0    0  501    0 -0.00000000000E+00 -0.00000000000E+00 -0.69281880208E+03  0.69281880208E+03  0.00000000000E+00 0. -1.
         25    2    1    2    0    0  0.69350066115E+02  0.25490662655E+03 -0.11331050036E+03  0.31345663092E+03  0.12501587916E+03 0.  0.
          2    1    1    2  501    0  0.38952252532E+02 -0.36510338637E+02 -0.44488161768E+03  0.44807358386E+03  0.00000000000E+00 0. -1.
          1    1    1    2  502    0 -0.10830231865E+03 -0.21839628792E+03  0.41782053452E+03  0.48373580585E+03  0.00000000000E+00 0. -1.
         22    1    3    3    0    0  0.32613273720E+02  0.10978525124E+03 -0.11698443173E+03  0.16371250496E+03  0.00000000000E+00 0.  1.
         22    1    3    3    0    0  0.36736792395E+02  0.14512137531E+03  0.36739313642E+01  0.14974412596E+03  0.00000000000E+00 0.  1.
</event>
<event>
 7    1  0.6188600E-006  0.1311717E+03  0.7818608E-02  0.1318408E+00
          2   -1    0    0  502    0  0.00000000000E+00  0.00000000000E+00  0.95592071567E+03  0.95592071567E+03  0.00000000000E+00 0. -1.
          1   -1    0    0  501    0 -0.00000000000E+00 -0.00000000000E+00 -0.12454568067E+03  0.12454568067E+03  0.00000000000E+00 0. -1.
         25    2    1    2    0    0  0.89372706161E+02  0.95835647504E+02  0.29824632638E+03  0.34892749479E+03  0.12501029352E+03 0.  0.
          2    1    1    2  501    0 -0.44298242474E+02 -0.12489271979E+03 -0.53175514358E+02  0.14278711801E+03  0.00000000000E+00 0. -1.
          1    1    1    2  502    0 -0.45074463687E+02  0.29057072287E+02  0.58630422299E+03  0.58875178354E+03  0.00000000000E+00 0. -1.
         22    1    3    3    0    0  0.10151155228E+03  0.11440979575E+03  0.28397253204E+03  0.32254394362E+03  0.00000000000E+00 0.  1.
         22    1    3    3    0    0 -0.12138846118E+02 -0.18574148242E+02  0.14273794336E+02  0.26383551178E+02  0.00000000000E+00 0.  1.
</event>
<event>
 7    1  0.6188600E-006  0.5221241E+02  0.7818608E-02  0.1443843E+00
          2   -1    0    0  502    0  0.00000000000E+00  0.00000000000E+00  0.16291813604E+03  0.16291813604E+03  0.00000000000E+00 0. -1.
          1   -1    0    0  501    0 -0.00000000000E+00 -0.00000000000E+00 -0.72295941240E+03  0.72295941240E+03  0.00000000000E+00 0. -1.
         25    2    1    2    0    0 -0.90147816246E+01 -0.38202404079E+02 -0.65079636013E+02  0.14628752894E+03  0.12499596848E+03 0.  0.
          2    1    1    2  501    0  0.48401800044E+02  0.12090781204E+01 -0.61030201025E+03  0.61221951932E+03  0.00000000000E+00 0. -1.
          1    1    1    2  502    0 -0.39387018419E+02  0.36993325959E+02  0.11534036991E+03  0.12737050018E+03  0.00000000000E+00 0. -1.
         22    1    3    3    0    0  0.54940050462E+02 -0.30670093523E+02 -0.49433761836E+02  0.80017251832E+02  0.00000000000E+00 0. -1.
         22    1    3    3    0    0 -0.63954832086E+02 -0.75323105566E+01 -0.15645874177E+02  0.66270277110E+02  0.00000000000E+00 0. -1.
</event>
<event>
 7    1  0.6188600E-006  0.5834451E+02  0.7818608E-02  0.1504406E+00
          2   -1    0    0  502    0  0.00000000000E+00  0.00000000000E+00  0.12143735527E+04  0.12143735527E+04  0.00000000000E+00 0. -1.
          1   -1    0    0  501    0 -0.00000000000E+00 -0.00000000000E+00 -0.15711383654E+03  0.15711383654E+03  0.00000000000E+00 0. -1.
         25    2    1    2    0    0  0.41997580121E+02  0.25158726879E+01  0.50182209475E+03  0.51886438800E+03  0.12499884800E+03 0.  0.
          2    1    1    2  501    0  0.15763045362E+02 -0.23315001467E+02 -0.14590705855E+03  0.14859654312E+03  0.00000000000E+00 0. -1.
          1    1    1    2  502    0 -0.57760625483E+02  0.20799128779E+02  0.70134467997E+03  0.70402645812E+03  0.00000000000E+00 0. -1.
         22    1    3    3    0    0  0.69812142846E+02 -0.37118723371E+02  0.24261762740E+03  0.25517611181E+03  0.00000000000E+00 0. -1.
         22    1    3    3    0    0 -0.27814562726E+02  0.39634596059E+02  0.25920446736E+03  0.26368827619E+03  0.00000000000E+00 0. -1.
</event>
<event>
 7    1  0.6188600E-006  0.4897619E+02  0.7818608E-02  0.1487231E+00
          2   -1    0    0  502    0  0.00000000000E+00  0.00000000000E+00  0.64097722251E+03  0.64097722251E+03  0.00000000000E+00 0. -1.
          1   -1    0    0  501    0 -0.00000000000E+00 -0.00000000000E+00 -0.80207557496E+03  0.80207557496E+03  0.00000000000E+00 0. -1.
         25    2    1    2    0    0 -0.15252176468E+02  0.30376419734E+01 -0.32174901965E+03  0.34552753305E+03  0.12499995318E+03 0.  0.
          2    1    1    2  501    0  0.51265567875E+02 -0.14363395746E+02 -0.46635498171E+03  0.46938410130E+03  0.00000000000E+00 0. -1.
          1    1    1    2  502    0 -0.36013391407E+02  0.11325753772E+02  0.62700564890E+03  0.62814116313E+03  0.00000000000E+00 0. -1.
         22    1    3    3    0    0  0.41531232782E+02 -0.13987786524E+02 -0.24321343314E+03  0.24713007816E+03  0.00000000000E+00 0. -1.
         22    1    3    3    0    0 -0.56783409251E+02  0.17025428498E+02 -0.78535586506E+02  0.98397454893E+02  0.00000000000E+00 0. -1.
</event>
<event>
 7    1  0.6188600E-006  0.1342435E+03  0.7818608E-02  0.1261301E+00
          2   -1    0    0  502    0  0.00000000000E+00  0.00000000000E+00  0.22753050123E+03  0.22753050123E+03  0.00000000000E+00 0. -1.
          1   -1    0    0  501    0 -0.00000000000E+00 -0.00000000000E+00 -0.83438360591E+03  0.83438360591E+03  0.00000000000E+00 0. -1.
         25    2    1    2    0    0 -0.66732818399E+02 -0.47712744681E+02 -0.14987763551E+03  0.21170152912E+03  0.12499782699E+03 0.  0.
          2    1    1    2  501    0  0.17822298153E+02 -0.87697574913E+02 -0.62360875486E+03  0.62999712547E+03  0.00000000000E+00 0. -1.
          1    1    1    2  502    0  0.48910520246E+02  0.13541031959E+03  0.16663328569E+03  0.22021545255E+03  0.00000000000E+00 0. -1.
         22    1    3    3    0    0  0.71084118829E+01 -0.28300299752E+02 -0.12940507680E+03  0.13265410052E+03  0.00000000000E+00 0.  1.
         22    1    3    3    0    0 -0.73841230282E+02 -0.19412444929E+02 -0.20472558710E+02  0.79047428597E+02  0.00000000000E+00 0.  1.
</event>
<event>
 7    1  0.6188600E-006  0.1102788E+03  0.7818608E-02  0.1330871E+00
          2   -1    0    0  502    0  0.00000000000E+00  0.00000000000E+00  0.18069637289E+03  0.18069637289E+03  0.00000000000E+00 0. -1.
          1   -1    0    0  501    0 -0.00000000000E+00 -0.00000000000E+00 -0.66886936747E+03  0.66886936747E+03  0.00000000000E+00 0. -1.
         25    2    1    2    0    0 -0.13624763794E+02  0.12504735697E+03 -0.17101967628E+03  0.24636362424E+03  0.12499931999E+03 0.  0.
          2    1    1    2  501    0  0.59986371024E+02 -0.91693103208E+02 -0.44759153846E+03  0.46080817613E+03  0.00000000000E+00 0. -1.
          1    1    1    2  502    0 -0.46361607230E+02 -0.33354253762E+02  0.13043822016E+03  0.14239394000E+03  0.00000000000E+00 0. -1.
         22    1    3    3    0    0 -0.61120212268E+02  0.50150461628E+02 -0.12101084313E+03  0.14454886131E+03  0.00000000000E+00 0. -1.
         22    1    3    3    0    0  0.47495448475E+02  0.74896895342E+02 -0.50008833144E+02  0.10181476293E+03  0.00000000000E+00 0. -1.
</event>
<event>
 7    1  0.6188600E-006  0.8209315E+02  0.7818608E-02  0.1439983E+00
          2   -1    0    0  502    0  0.00000000000E+00  0.00000000000E+00  0.12260147249E+04  0.12260147249E+04  0.00000000000E+00 0. -1.
          1   -1    0    0  501    0 -0.00000000000E+00 -0.00000000000E+00 -0.27268454225E+03  0.27268454225E+03  0.00000000000E+00 0. -1.
         25    2    1    2    0    0 -0.61870871763E+02 -0.24638997746E+01  0.27903270352E+02  0.14225579501E+03  0.12499617251E+03 0.  0.
          2    1    1    2  501    0  0.79170773890E+02  0.29018266589E+02 -0.20703006940E+03  0.22354310741E+03  0.00000000000E+00 0. -1.
          1    1    1    2  502    0 -0.17299902126E+02 -0.26554366814E+02  0.11324569817E+04  0.11329003647E+04  0.00000000000E+00 0. -1.
         22    1    3    3    0    0  0.11775360650E+02 -0.16921823848E+02 -0.37442384623E+02  0.42742711742E+02  0.00000000000E+00 0.  1.
         22    1    3    3    0    0 -0.73646232413E+02  0.14457924073E+02  0.65345654975E+02  0.99513083267E+02  0.00000000000E+00 0.  1.
</event>
<event>
 7    1  0.6188600E-006  0.8243880E+02  0.7818608E-02  0.1349172E+00
          2   -1    0    0  502    0  0.00000000000E+00  0.00000000000E+00  0.83667278469E+03  0.83667278469E+03  0.00000000000E+00 0. -1.
          1   -1    0    0  501    0 -0.00000000000E+00 -0.00000000000E+00 -0.48054497434E+03  0.48054497434E+03  0.00000000000E+00 0. -1.
         25    2    1    2    0    0  0.23991668765E+02  0.15314139866E+02  0.13760962925E+03  0.18806823553E+03  0.12499251219E+03 0.  0.
          2    1    1    2  501    0  0.64782258565E+02 -0.73683274926E+01 -0.45000869110E+03  0.45470743928E+03  0.00000000000E+00 0. -1.
          1    1    1    2  502    0 -0.88773927330E+02 -0.79458123732E+01  0.66852687220E+03  0.67444208421E+03  0.00000000000E+00 0. -1.
         22    1    3    3    0    0  0.35031576779E+02  0.19012614958E+02 -0.91109407372E+01  0.40886429782E+02  0.00000000000E+00 0. -1.
         22    1    3    3    0    0 -0.11039908014E+02 -0.36984750919E+01  0.14672056999E+03  0.14718180575E+03  0.00000000000E+00 0. -1.
</event>
<event>
 7    1  0.6188600E-006  0.1617808E+03  0.7818608E-02  0.1234712E+00
          2   -1    0    0  502    0  0.00000000000E+00  0.00000000000E+00  0.11286002231E+04  0.11286002231E+04  0.00000000000E+00 0. -1.
          1   -1    0    0  501    0 -0.00000000000E+00 -0.00000000000E+00 -0.36075296104E+03  0.36075296104E+03  0.00000000000E+00 0. -1.
         25    2    1    2    0    0  0.21497234884E+02 -0.17928605378E+03  0.66450414199E+02  0.22944712674E+03  0.12499882493E+03 0.  0.
          2    1    1    2  501    0 -0.10258166338E+03  0.12616513650E+03 -0.25291864378E+03  0.30068002878E+03  0.00000000000E+00 0. -1.
          1    1    1    2  502    0  0.81084428500E+02  0.53120917281E+02  0.95431549162E+03  0.95922602860E+03  0.00000000000E+00 0. -1.
         22    1    3    3    0    0 -0.42528860579E+02 -0.12874125042E+03  0.24716877215E+02  0.13781849499E+03  0.00000000000E+00 0.  1.
         22    1    3    3    0    0  0.64026095463E+02 -0.50544803363E+02  0.41733536984E+02  0.91628631751E+02  0.00000000000E+00 0.  1.
</event>
<event>
 7    1  0.6188600E-006  0.8588782E+02  0.7818608E-02  0.1370112E+00
          2   -1    0    0  502    0  0.00000000000E+00  0.00000000000E+00  0.25156300290E+04  0.25156300290E+04  0.00000000000E+00 0. -1.
          1   -1    0    0  501    0 -0.00000000000E+00 -0.00000000000E+00 -0.27443611286E+03  0.27443611286E+03  0.00000000000E+00 0. -1.
         25    2    1    2    0    0  0.55711509124E+02 -0.81067061751E+02  0.59722872700E+03  0.61804673405E+03  0.12499588940E+03 0.  0.
          2    1    1    2  501    0  0.23275915537E+02  0.47034214805E+02 -0.26043923851E+03  0.26567382739E+03  0.00000000000E+00 0. -1.
          1    1    1    2  502    0 -0.78987424661E+02  0.34032846945E+02  0.19044044277E+04  0.19063455804E+04  0.00000000000E+00 0. -1.
         22    1    3    3    0    0  0.37832622276E+02  0.27314629690E+02  0.23246760784E+03  0.23710458662E+03  0.00000000000E+00 0.  1.
         22    1    3    3    0    0  0.17878886848E+02 -0.10838169144E+03  0.36476111916E+03  0.38094214743E+03  0.00000000000E+00 0.  1.
</event>
<event>
 7    1  0.6188600E-006  0.1097845E+03  0.7818608E-02  0.1390373E+00
          2   -1    0    0  502    0  0.00000000000E+00  0.00000000000E+00  0.37084983144E+03  0.37084983144E+03  0.00000000000E+00 0. -1.
          1   -1    0    0  501    0 -0.00000000000E+00 -0.00000000000E+00 -0.13264429196E+04  0.13264429196E+04  0.00000000000E+00 0. -1.
         25    2    1    2    0    0  0.24478059890E+02 -0.78947884821E+02  0.68764681611E+02  0.16487801925E+03  0.12499694341E+03 0.  0.
          2    1    1    2  501    0  0.97663181731E+01 -0.33405927827E+02 -0.12645567347E+04  0.12650356012E+04  0.00000000000E+00 0. -1.
          1    1    1    2  502    0 -0.34244378063E+02  0.11235381265E+03  0.24019896501E+03  0.26737913052E+03  0.00000000000E+00 0. -1.
         22    1    3    3    0    0  0.63971654713E+02 -0.51004986164E+02  0.80837083253E+02  0.11501528268E+03  0.00000000000E+00 0. -1.
         22    1    3    3    0    0 -0.39493594823E+02 -0.27942898657E+02 -0.12072401642E+02  0.49862736576E+02  0.00000000000E+00 0. -1.
</event>
<event>
 7    1  0.6188600E-006  0.9721389E+02  0.7818608E-02  0.1352413E+00
          2   -1    0    0  502    0  0.00000000000E+00  0.00000000000E+00  0.54321328659E+03  0.54321328659E+03  0.00000000000E+00 0. -1.
          1   -1    0    0  501    0 -0.00000000000E+00 -0.00000000000E+00 -0.84558518945E+03  0.84558518945E+03  0.00000000000E+00 0. -1.
         25    2    1    2    0    0  0.96107201904E+02 -0.60847082907E+02  0.17510426775E+03  0.24336305849E+03  0.12500044759E+03 0.  0.
          2    1    1    2  501    0 -0.48740084486E+02 -0.22740505337E+02 -0.80362875771E+03  0.80542653709E+03  0.00000000000E+00 0. -1.
          1    1    1    2  502    0 -0.47367117418E+02  0.83587588243E+02  0.32615258711E+03  0.34000888047E+03  0.00000000000E+00 0. -1.
         22    1    3    3    0    0  0.71888996535E+01  0.20114430565E+02  0.98482292637E+02  0.10077218147E+03  0.00000000000E+00 0.  1.
         22    1    3    3    0    0  0.88918302250E+02 -0.80961513472E+02  0.76621975112E+02  0.14259087702E+03  0.00000000000E+00 0.  1.
</event>
<event>
 7    1  0.6188600E-006  0.1100523E+03  0.7818608E-02  0.1322307E+00
          2   -1    0    0  502    0  0.00000000000E+00  0.00000000000E+00  0.22511758199E+04  0.22511758199E+04  0.00000000000E+00 0. -1.
          1   -1    0    0  501    0 -0.00000000000E+00 -0.00000000000E+00 -0.30004854954E+02  0.30004854954E+02  0.00000000000E+00 0. -1.
         25    2    1    2    0    0 -0.82434031654E+02  0.78875462815E+02  0.84495663214E+03  0.86173855485E+03  0.12499967406E+03 0.  0.
          2    1    1    2  501    0  0.53892748270E+02  0.30109695875E+02  0.30205958868E+02  0.68727156589E+02  0.00000000000E+00 0. -1.
          1    1    1    2  502    0  0.28541283385E+02 -0.10898515869E+03  0.13460083740E+04  0.13507149634E+04  0.00000000000E+00 0. -1.
         22    1    3    3    0    0 -0.11266115588E+03  0.81003171001E+02  0.67779657413E+03  0.69185420838E+03  0.00000000000E+00 0. -1.
         22    1    3    3    0    0  0.30227124229E+02 -0.21277081858E+01  0.16716005801E+03  0.16988434647E+03  0.00000000000E+00 0. -1.
</event>
<event>
 7    1  0.6188600E-006  0.1061637E+03  0.7818608E-02  0.1291383E+00
          2   -1    0    0  502    0  0.00000000000E+00  0.00000000000E+00  0.71024269608E+02  0.71024269608E+02  0.00000000000E+00 0. -1.
          1   -1    0    0  501    0 -0.00000000000E+00 -0.00000000000E+00 -0.65818508082E+03  0.65818508082E+03  0.00000000000E+00 0. -1.
         25    2    1    2    0    0  0.11604201157E+03  0.16589126101E+02 -0.23636656591E+03  0.29195235529E+03  0.12500430684E+03 0.  0.
          2    1    1    2  501    0 -0.68465497284E+02 -0.86841122344E+02 -0.33257292721E+03  0.35047632839E+03  0.00000000000E+00 0. -1.
          1    1    1    2  502    0 -0.47576514281E+02  0.70251996243E+02 -0.18221318085E+02  0.86780666741E+02  0.00000000000E+00 0. -1.
         22    1    3    3    0    0  0.13952873929E+03  0.25316587008E+02 -0.22092460098E+03  0.26252024300E+03  0.00000000000E+00 0.  1.
         22    1    3    3    0    0 -0.23486727726E+02 -0.87274609074E+01 -0.15441964933E+02  0.29432112295E+02  0.00000000000E+00 0.  1.
</event>
<event>
 7    1  0.6188600E-006  0.6818509E+02  0.7818608E-02  0.1425964E+00
          2   -1    0    0  502    0  0.00000000000E+00  0.00000000000E+00  0.94869972520E+03  0.94869972520E+03  0.00000000000E+00 0. -1.
          1   -1    0    0  501    0 -0.00000000000E+00 -0.00000000000E+00 -0.45435958133E+02  0.45435958133E+02  0.00000000000E+00 0. -1.
         25    2    1    2    0    0 -0.34713592795E+02  0.50730836385E+02  0.36579662532E+03  0.39142161938E+03  0.12500024695E+03 0.  0.
          2    1    1    2  501    0  0.66332407354E+02 -0.22457238344E+02  0.68063754243E+01  0.70360802766E+02  0.00000000000E+00 0. -1.
          1    1    1    2  502    0 -0.31618814560E+02 -0.28273598041E+02  0.53066076633E+03  0.53235326119E+03  0.00000000000E+00 0. -1.
         22    1    3    3    0    0  0.58450923270E+01 -0.19201210516E+02  0.36989156415E+01  0.20409153988E+02  0.00000000000E+00 0. -1.
         22    1    3    3    0    0 -0.40558685122E+02  0.69932046901E+02  0.36209770968E+03  0.37101246539E+03  0.00000000000E+00 0. -1.
</event>
<event>
 7    1  0.6188600E-006  0.9823781E+02  0.7818608E-02  0.1453472E+00
          2   -1    0    0  502    0  0.00000000000E+00  0.00000000000E+00  0.53415497816E+03  0.53415497816E+03  0.00000000000E+00 0. -1.
          1   -1    0    0  501    0 -0.00000000000E+00 -0.00000000000E+00 -0.70378477516E+03  0.70378477516E+03  0.00000000000E+00 0. -1.
         25    2    1    2    0    0  0.22584320806E+01  0.76779498844E+02 -0.25362939036E+03  0.29300739059E+03  0.12500108531E+03 0.  0.
          2    1    1    2  501    0 -0.10629557008E+02  0.21481654869E+02 -0.42540002352E+03  0.42607467537E+03  0.00000000000E+00 0. -1.
          1    1    1    2  502    0  0.83711249275E+01 -0.98261153713E+02  0.50939961688E+03  0.51885768737E+03  0.00000000000E+00 0. -1.
         22    1    3    3    0    0 -0.17890824764E+01  0.82476921858E+02 -0.67078855618E+02  0.10632599083E+03  0.00000000000E+00 0. -1.
         22    1    3    3    0    0  0.40475145570E+01 -0.56974230139E+01 -0.18655053475E+03  0.18668139976E+03  0.00000000000E+00 0. -1.
</event>
<event>
 7    1  0.6188600E-006  0.9463275E+02  0.7818608E-02  0.1373861E+00
          2   -1    0    0  502    0  0.00000000000E+00  0.00000000000E+00  0.20891491068E+03  0.20891491068E+03  0.00000000000E+00 0. -1.
          1   -1    0    0  501    0 -0.00000000000E+00 -0.00000000000E+00 -0.66176650861E+03  0.66176650861E+03  0.00000000000E+00 0. -1.
         25    2    1    2    0    0  0.23622378878E+02  0.11361103697E+03 -0.33348609974E+03  0.37458372963E+03  0.12503802332E+03 0.  0.
          2    1    1    2  501    0  0.29304186281E+02 -0.35688301543E+02 -0.29403937599E+03  0.29764331813E+03  0.00000000000E+00 0. -1.
          1    1    1    2  502    0 -0.52926565160E+02 -0.77922735425E+02  0.17467387779E+03  0.19845437153E+03  0.00000000000E+00 0. -1.
         22    1    3    3    0    0 -0.39362114135E+02  0.33513144805E+02 -0.20044967475E+03  0.20700864477E+03  0.00000000000E+00 0.  1.
         22    1    3    3    0    0  0.62984493014E+02  0.80097892164E+02 -0.13303642499E+03  0.16757508486E+03  0.00000000000E+00 0.  1.
</event>
<event>
 7    1  0.6188600E-006  0.1302634E+03  0.7818608E-02  0.1302784E+00
          2   -1    0    0  502    0  0.00000000000E+00  0.00000000000E+00  0.60386303449E+03  0.60386303449E+03  0.00000000000E+00 0. -1.
          1   -1    0    0  501    0 -0.00000000000E+00 -0.00000000000E+00 -0.16452912626E+04  0.16452912626E+04  0.00000000000E+00 0. -1.
         25    2    1    2    0    0  0.15213462057E+03  0.13334743423E+02 -0.24067864201E+02  0.19881143407E+03  0.12499586422E+03 0.  0.
          2    1    1    2  501    0 -0.29461592694E+02 -0.54803408939E+02 -0.15250908188E+04  0.15263595267E+04  0.00000000000E+00 0. -1.
          1    1    1    2  502    0 -0.12267302788E+03  0.41468665516E+02  0.50773045487E+03  0.52398333636E+03  0.00000000000E+00 0. -1.
         22    1    3    3    0    0  0.16339990115E+03  0.15987370975E+02 -0.48989770294E+02  0.17133336313E+03  0.00000000000E+00 0.  1.
         22    1    3    3    0    0 -0.11265280581E+02 -0.26526275522E+01  0.24921906093E+02  0.27478070944E+02  0.00000000000E+00 0.  1.
</event>
<event>
 7    1  0.6188600E-006  0.2758449E+02  0.7818608E-02  0.1628555E+00
          2   -1    0    0  502    0  0.00000000000E+00  0.00000000000E+00  0.11961271964E+04  0.11961271964E+04  0.00000000000E+00 0. -1.
          1   -1    0    0  501    0 -0.00000000000E+00 -0.00000000000E+00 -0.12688432828E+03  0.12688432828E+03  0.00000000000E+00 0. -1.
         25    2    1    2    0    0  0.95219192603E+01  0.21152123831E+02  0.24287006351E+03  0.27413408189E+03  0.12500219125E+03 0.  0.
          2    1    1    2  501    0  0.17724444052E+02 -0.21287676794E+02 -0.10932665129E+03  0.11278137161E+03  0.00000000000E+00 0. -1.
          1    1    1    2  502    0 -0.27246363313E+02  0.13555296260E+00  0.93569945589E+03  0.93609607116E+03  0.00000000000E+00 0. -1.
         22    1    3    3    0    0  0.41595572433E+02  0.13380517956E+02  0.23652592805E+03  0.24052805356E+03  0.00000000000E+00 0. -1.
         22    1    3    3    0    0 -0.32073653173E+02  0.77716058755E+01  0.63441354535E+01  0.33606028334E+02  0.00000000000E+00 0. -1.
</event>
<event>
 7    1  0.6188600E-006  0.8445787E+02  0.7818608E-02  0.1359042E+00
          2   -1    0    0  502    0  0.00000000000E+00  0.00000000000E+00  0.44000768965E+03  0.44000768965E+03  0.00000000000E+00 0. -1.
          1   -1    0    0  501    0 -0.00000000000E+00 -0.00000000000E+00 -0.73275435044E+03  0.73275435044E+03  0.00000000000E+00 0. -1.
         25    2    1    2    0    0  0.12722929870E+03 -0.50826611848E+02  0.81146438049E+00  0.18546634269E+03  0.12500586737E+03 0.  0.
          2    1    1    2  501    0 -0.58104454180E+02  0.70636130632E+01 -0.63423631733E+03  0.63693149431E+03  0.00000000000E+00 0. -1.
          1    1    1    2  502    0 -0.69124844520E+02  0.43762998784E+02  0.34067819216E+03  0.35036420309E+03  0.00000000000E+00 0. -1.
         22    1    3    3    0    0  0.53577971688E+02  0.37473650600E+02 -0.20505212663E+02  0.68522531228E+02  0.00000000000E+00 0.  1.
         22    1    3    3    0    0  0.73651327012E+02 -0.88300262448E+02  0.21316677044E+02  0.11694381146E+03  0.00000000000E+00 0.  1.
</event>
<event>
 7    1  0.6188600E-006  0.6022712E+02  0.7818608E-02  0.1472124E+00
          2   -1    0    0  502    0  0.00000000000E+00  0.00000000000E+00  0.11799443965E+04  0.11799443965E+04  0.00000000000E+00 0. -1.
          1   -1    0    0  501    0 -0.00000000000E+00 -0.00000000000E+00 -0.27981519820E+02  0.27981519820E+02  0.00000000000E+00 0. -1.
         25    2    1    2    0    0 -0.34069697595E+02  0.85275354374E+02  0.41047423749E+03  0.43880306150E+03  0.12500558700E+03 0.  0.
          2    1    1    2  501    0  0.13573357546E+02 -0.31346097574E+02  0.10322736499E+02  0.35684348909E+02  0.00000000000E+00 0. -1.
          1    1    1    2  502    0  0.20496340049E+02 -0.53929256800E+02  0.73116590273E+03  0.73343850595E+03  0.00000000000E+00 0. -1.
         22    1    3    3    0    0 -0.80317822042E+02  0.41050599187E+02  0.26322223564E+03  0.27824817981E+03  0.00000000000E+00 0.  1.
         22    1    3    3    0    0  0.46248124447E+02  0.44224755187E+02  0.14725200184E+03  0.16055488169E+03  0.00000000000E+00 0.  1.
</event>
<event>
 7    1  0.6188600E-006  0.6354842E+02  0.7818608E-02  0.1525991E+00
          2   -1    0    0  502    0  0.00000000000E+00  0.00000000000E+00  0.14499609139E+04  0.14499609139E+04  0.00000000000E+00 0. -1.
          1   -1    0    0  501    0 -0.00000000000E+00 -0.00000000000E+00 -0.69122090265E+03  0.69122090265E+03  0.00000000000E+00 0. -1.
         25    2    1    2    0    0  0.84625100193E+02 -0.10771772643E+02  0.82467919164E+01  0.15155941764E+03  0.12499923531E+03 0.  0.
          2    1    1    2  501    0 -0.22335630253E+02 -0.64698696117E+00 -0.61863098428E+03  0.61903440428E+03  0.00000000000E+00 0. -1.
          1    1    1    2  502    0 -0.62289469940E+02  0.11418759604E+02  0.13691242036E+04  0.13705879946E+04  0.00000000000E+00 0. -1.
         22    1    3    3    0    0  0.27942386857E+01 -0.37298380153E+02 -0.38481795408E+02  0.53664005718E+02  0.00000000000E+00 0.  1.
         22    1    3    3    0    0  0.81830861508E+02  0.26526607510E+02  0.46728587325E+02  0.97895411917E+02  0.00000000000E+00 0.  1.
</event>
<event>
 7    1  0.6188600E-006  0.1133501E+03  0.7818608E-02  0.1382117E+00
          2   -1    0    0  502    0  0.00000000000E+00  0.00000000000E+00  0.16400485205E+03  0.16400485205E+03  0.00000000000E+00 0. -1.
          1   -1    0    0  501    0 -0.00000000000E+00 -0.00000000000E+00 -0.10442905399E+04  0.10442905399E+04  0.00000000000E+00 0. -1.
         25    2    1    2    0    0  0.75132307414E+02  0.96741616164E+02 -0.25041401443E+03  0.30548996006E+03  0.12495252361E+03 0.  0.
          2    1    1    2  501    0 -0.92069227954E+02 -0.64934954093E+02 -0.75973085193E+03  0.76803922971E+03  0.00000000000E+00 0. -1.
          1    1    1    2  502    0  0.16936920540E+02 -0.31806662071E+02  0.12985917847E+03  0.13476620223E+03  0.00000000000E+00 0. -1.
         22    1    3    3    0    0  0.76306180873E+02  0.26362093458E+01 -0.78538256910E+02  0.10953465496E+03  0.00000000000E+00 0. -1.
         22    1    3    3    0    0 -0.11738734592E+01  0.94105406818E+02 -0.17187575752E+03  0.19595530510E+03  0.00000000000E+00 0. -1.
</event>
<event>
 7    1  0.6188600E-006  0.5564375E+02  0.7818608E-02  0.1422239E+00
          2   -1    0    0  502    0  0.00000000000E+00  0.00000000000E+00  0.78154215671E+03  0.78154215671E+03  0.00000000000E+00 0. -1.
          1   -1    0    0  501    0 -0.00000000000E+00 -0.00000000000E+00 -0.12327716623E+04  0.12327716623E+04  0.00000000000E+00 0. -1.
         25    2    1    2    0    0 -0.47239762692E+02 -0.34825626232E+02  0.12106930991E+03  0.18364977318E+03  0.12500016785E+03 0.  0.
          2    1    1    2  501    0  0.52621288483E+02 -0.18380502994E+02 -0.11996968507E+04  0.12009909976E+04  0.00000000000E+00 0. -1.
          1    1    1    2  502    0 -0.53815257911E+01  0.53206129226E+02  0.62739803520E+03  0.62967304816E+03  0.00000000000E+00 0. -1.
         22    1    3    3    0    0 -0.73268101897E+02  0.14713158142E+02  0.38939412124E+02  0.84267251022E+02  0.00000000000E+00 0.  1.
         22    1    3    3    0    0  0.26028339205E+02 -0.49538784374E+02  0.82129897788E+02  0.99382522154E+02  0.00000000000E+00 0.  1.
</event>
<event>
 7    1  0.6188600E-006  0.5758073E+02  0.7818608E-02  0.1446303E+00
          2   -1    0    0  502    0  0.00000000000E+00  0.00000000000E+00  0.12473773748E+03  0.12473773748E+03  0.00000000000E+00 0. -1.
          1   -1    0    0  501    0 -0.00000000000E+00 -0.00000000000E+00 -0.44924821822E+03  0.44924821822E+03  0.00000000000E+00 0. -1.
         25    2    1    2    0    0 -0.89995475090E+02  0.30382632424E+02 -0.53631703595E+02  0.16590266312E+03  0.12500017645E+03 0.  0.
          2    1    1    2  501    0  0.36486697174E+02 -0.22959163331E+02 -0.32720862985E+03  0.33003619453E+03  0.00000000000E+00 0. -1.
          1    1    1    2  502    0  0.53508777915E+02 -0.74234690931E+01  0.56329852704E+02  0.78047098044E+02  0.00000000000E+00 0. -1.
         22    1    3    3    0    0  0.26242426535E+02 -0.16694943109E+02 -0.55625534856E+01  0.31596330122E+02  0.00000000000E+00 0.  1.
         22    1    3    3    0    0 -0.11623790162E+03  0.47077575533E+02 -0.48069150110E+02  0.13430633300E+03  0.00000000000E+00 0.  1.
</event>
<event>
 7    1  0.6188600E-006  0.5026209E+02  0.7818608E-02  0.1533381E+00
          2   -1    0    0  502    0  0.00000000000E+00  0.00000000000E+00  0.14772580283E+04  0.14772580283E+04  0.00000000000E+00 0. -1.
          1   -1    0    0  501    0 -0.00000000000E+00 -0.00000000000E+00 -0.51953086780E+03  0.51953086780E+03  0.00000000000E+00 0. -1.
         25    2    1    2    0    0 -0.68459108885E+02 -0.18154404685E+02  0.45456168441E+01  0.14374408306E+03  0.12500186712E+03 0.  0.
          2    1    1    2  501    0  0.49912265999E+02 -0.13389491020E+01 -0.44841688941E+03  0.45118813570E+03  0.00000000000E+00 0. -1.
          1    1    1    2  502    0  0.18546842885E+02  0.19493353787E+02  0.14015984330E+04  0.14018566773E+04  0.00000000000E+00 0. -1.
         22    1    3    3    0    0 -0.25213162612E+02  0.25478366757E+02 -0.50046780706E+02  0.61559166665E+02  0.00000000000E+00 0. -1.
         22    1    3    3    0    0 -0.43245946273E+02 -0.43632771443E+02  0.54592397550E+02  0.82184916396E+02  0.00000000000E+00 0. -1.
</event>
<event>
 7    1  0.6188600E-006  0.7786491E+02  0.7818608E-02  0.1392171E+00
          2   -1    0    0  502    0  0.00000000000E+00  0.00000000000E+00  0.27781948975E+04  0.27781948975E+04  0.00000000000E+00 0. -1.
          1   -1    0    0  501    0 -0.00000000000E+00 -0.00000000000E+00 -0.39602920410E+03  0.39602920410E+03  0.00000000000E+00 0. -1.
         25    2    1    2    0    0  0.56223141356E+02 -0.98403234045E+02  0.10859527557E+03  0.20065298580E+03  0.12499779495E+03 0.  0.
          2    1    1    2  501    0  0.28972653210E+01  0.48282484661E+02 -0.34775367166E+03  0.35110142214E+03  0.00000000000E+00 0. -1.
          1    1    1    2  502    0 -0.59120406677E+02  0.50120749384E+02  0.26213240895E+04  0.26224696936E+04  0.00000000000E+00 0. -1.
         22    1    3    3    0    0  0.58850857467E+02 -0.92563377562E+02  0.13473625311E+03  0.17373905776E+03  0.00000000000E+00 0.  1.
         22    1    3    3    0    0 -0.26277161103E+01 -0.58398564829E+01 -0.26140977543E+02  0.26913928041E+02  0.00000000000E+00 0.  1.
</event>
<event>
 7    1  0.6188600E-006  0.1021765E+03  0.7818608E-02  0.1336916E+00
          2   -1    0    0  502    0  0.00000000000E+00  0.00000000000E+00  0.10820815792E+04  0.10820815792E+04  0.00000000000E+00 0. -1.
          1   -1    0    0  501    0 -0.00000000000E+00 -0.00000000000E+00 -0.14193314964E+04  0.14193314964E+04  0.00000000000E+00 0. -1.
         25    2    1    2    0    0  0.79074091489E+02  0.13920547739E+03  0.16596071534E+03  0.26229654210E+03  0.12500256030E+03 0.  0.
          2    1    1    2  501    0 -0.48741954193E+02 -0.89220568473E+02 -0.13682908819E+04  0.13720626900E+04  0.00000000000E+00 0. -1.
          1    1    1    2  502    0 -0.30332137296E+02 -0.49984908919E+02  0.86508024933E+03  0.86705384346E+03  0.00000000000E+00 0. -1.
         22    1    3    3    0    0 -0.31837035199E+02  0.39933571072E+02  0.23351146220E+02  0.56156593011E+02  0.00000000000E+00 0. -1.
         22    1    3    3    0    0  0.11091112669E+03  0.99271906320E+02  0.14260956912E+03  0.20613994909E+03  0.00000000000E+00 0. -1.
</event>
<event>
 7    1  0.6188600E-006  0.7237599E+02  0.7818608E-02  0.1378314E+00
          2   -1    0    0  502    0  0.00000000000E+00  0.00000000000E+00  0.11409583315E+04  0.11409583315E+04  0.00000000000E+00 0. -1.
          1   -1    0    0  501    0 -0.00000000000E+00 -0.00000000000E+00 -0.18357958080E+03  0.18357958080E+03  0.00000000000E+00 0. -1.
         25    2    1    2    0    0  0.19065728222E+02 -0.10552843454E+03  0.39237740264E+03  0.42553766720E+03  0.12499011006E+03 0.  0.
          2    1    1    2  501    0 -0.47050102909E+02  0.54483741912E+02 -0.15801710454E+03  0.17364214824E+03  0.00000000000E+00 0. -1.
          1    1    1    2  502    0  0.27984374686E+02  0.51044692626E+02  0.72301845259E+03  0.72535809684E+03  0.00000000000E+00 0. -1.
         22    1    3    3    0    0 -0.37329541157E+02 -0.62452625338E+02  0.30193479680E+03  0.31057760153E+03  0.00000000000E+00 0.  1.
         22    1    3    3    0    0  0.56395269380E+02 -0.43075809200E+02  0.90442605840E+02  0.11496006567E+03  0.00000000000E+00 0.  1.
</event>
<event>
 7    1  0.6188600E-006  0.9680118E+02  0.7818608E-02  0.1333608E+00
          2   -1    0    0  502    0  0.00000000000E+00  0.00000000000E+00  0.30552973802E+04  0.30552973802E+04  0.00000000000E+00 0. -1.
          1   -1    0    0  501    0 -0.00000000000E+00 -0.00000000000E+00 -0.38332563965E+03  0.38332563965E+03  0.00000000000E+00 0. -1.
         25    2    1    2    0    0  0.67473111768E+01  0.61748035169E+02  0.25069779334E+03  0.28693616431E+03  0.12499853098E+03 0.  0.
          2    1    1    2  501    0  0.53408393808E+02 -0.82154272323E+02 -0.35826418837E+03  0.37142295252E+03  0.00000000000E+00 0. -1.
          1    1    1    2  502    0 -0.60155704984E+02  0.20406237154E+02  0.27795381356E+04  0.27802639031E+04  0.00000000000E+00 0. -1.
         22    1    3    3    0    0  0.42541716341E+02 -0.21823722739E+02  0.10194932480E+03  0.11260433975E+03  0.00000000000E+00 0.  1.
         22    1    3    3    0    0 -0.35794405164E+02  0.83571757908E+02  0.14874846854E+03  0.17433182456E+03  0.00000000000E+00 0.  1.
</event>
<event>
 7    1  0.6188600E-006  0.1325501E+03  0.7818608E-02  0.1384221E+00
          2   -1    0    0  502    0  0.00000000000E+00  0.00000000000E+00  0.11330237849E+04  0.11330237849E+04  0.00000000000E+00 0. -1.
          1   -1    0    0  501    0 -0.00000000000E+00 -0.00000000000E+00 -0.13713724724E+03  0.13713724724E+03  0.00000000000E+00 0. -1.
         25    2    1    2    0    0 -0.14353303274E+03 -0.71441568816E+02  0.48810758176E+03  0.52875380647E+03  0.12500378892E+03 0.  0.
          2    1    1    2  501    0  0.11454206941E+03  0.62654219444E+02 -0.79821869916E+02  0.15302603633E+03  0.00000000000E+00 0. -1.
          1    1    1    2  502    0  0.28990963329E+02  0.87873493713E+01  0.58760082583E+03  0.58838118935E+03  0.00000000000E+00 0. -1.
         22    1    3    3    0    0 -0.13271806998E+03 -0.50983932071E+01  0.36621389059E+03  0.38955448062E+03  0.00000000000E+00 0.  1.
         22    1    3    3    0    0 -0.10814962759E+02 -0.66343175609E+02  0.12189369117E+03  0.13919932585E+03  0.00000000000E+00 0.  1.
</event>
<event>
 7    1  0.6188600E-006  0.5459485E+02  0.7818608E-02  0.1431414E+00
          2   -1    0    0  502    0  0.00000000000E+00  0.00000000000E+00  0.31315740170E+03  0.31315740170E+03  0.00000000000E+00 0. -1.
          1   -1    0    0  501    0 -0.00000000000E+00 -0.00000000000E+00 -0.27312309554E+03  0.27312309554E+03  0.00000000000E+00 0. -1.
         25    2    1    2    0    0  0.32245952920E+02 -0.47102112785E+02 -0.23172255221E+02  0.13935385575E+03  0.12499653271E+03 0.  0.
          2    1    1    2  501    0  0.23072771152E+02  0.45288221433E+02 -0.18539614555E+03  0.19223711025E+03  0.00000000000E+00 0. -1.
          1    1    1    2  502    0 -0.55318724072E+02  0.18138913516E+01  0.24860270694E+03  0.25468953125E+03  0.00000000000E+00 0. -1.
         22    1    3    3    0    0  0.66705460546E+02  0.13056101100E+02 -0.14307955703E+02  0.69460764746E+02  0.00000000000E+00 0.  1.
         22    1    3    3    0    0 -0.34459507626E+02 -0.60158213885E+02 -0.88642995179E+01  0.69893091000E+02  0.00000000000E+00 0.  1.
</event>
<event>
 7    1  0.6188600E-006  0.6311412E+02  0.7818608E-02  0.1391447E+00
          2   -1    0    0  502    0  0.00000000000E+00  0.00000000000E+00  0.50236991691E+03  0.50236991691E+03  0.00000000000E+00 0. -1.
          1   -1    0    0  501    0 -0.00000000000E+00 -0.00000000000E+00 -0.43344642530E+03  0.43344642530E+03  0.00000000000E+00 0. -1.
         25    2    1    2    0    0  0.59007930219E+01 -0.61965666073E+02  0.27553861247E+03  0.30890336346E+03  0.12500079146E+03 0.  0.
          2    1    1    2  501    0 -0.59326150916E+02  0.21536006059E+02 -0.40894090643E+03  0.41378262009E+03  0.00000000000E+00 0. -1.
          1    1    1    2  502    0  0.53425357894E+02  0.40429660014E+02  0.20232578556E+03  0.21313035865E+03  0.00000000000E+00 0. -1.
         22    1    3    3    0    0  0.64725496927E+02 -0.43315843123E+02  0.14965748779E+03  0.16870985706E+03  0.00000000000E+00 0.  1.
         22    1    3    3    0    0 -0.58824703905E+02 -0.18649822950E+02  0.12588112468E+03  0.14019350640E+03  0.00000000000E+00 0.  1.
</event>
<event>
 7    1  0.6188600E-006  0.6264879E+02  0.7818608E-02  0.1442976E+00
          2   -1    0    0  502    0  0.00000000000E+00  0.00000000000E+00  0.83098464811E+03  0.83098464811E+03  0.00000000000E+00 0. -1.
          1   -1    0    0  501    0 -0.00000000000E+00 -0.00000000000E+00 -0.82467763601E+03  0.82467763601E+03  0.00000000000E+00 0. -1.
         25    2    1    2    0    0  0.29064227899E+01 -0.49118689798E+02 -0.16401913626E+03  0.21201483885E+03  0.12500768718E+03 0.  0.
          2    1    1    2  501    0 -0.43479569617E+02  0.47335418818E+02 -0.63452516940E+03  0.63777214227E+03  0.00000000000E+00 0. -1.
          1    1    1    2  502    0  0.40573146827E+02  0.17832709801E+01  0.80485131775E+03  0.80587530300E+03  0.00000000000E+00 0. -1.
         22    1    3    3    0    0 -0.58438178309E+01 -0.75610110294E+02 -0.41679768602E+02  0.86534629463E+02  0.00000000000E+00 0.  1.
         22    1    3    3    0    0  0.87502406208E+01  0.26491420496E+02 -0.12233936765E+03  0.12548020939E+03  0.00000000000E+00 0.  1.
</event>
<event>
 7    1  0.6188600E-006  0.1007114E+03  0.7818608E-02  0.1327703E+00
          2   -1    0    0  502    0  0.00000000000E+00  0.00000000000E+00  0.12303579016E+04  0.12303579016E+04  0.00000000000E+00 0. -1.
          1   -1    0    0  501    0 -0.00000000000E+00 -0.00000000000E+00 -0.13688718113E+03  0.13688718113E+03  0.00000000000E+00 0. -1.
         25    2    1    2    0    0  0.12642876095E+03  0.99554326383E+02  0.15169071082E+03  0.25402683873E+03  0.12499707015E+03 0.  0.
          2    1    1    2  501    0 -0.43548517871E+02 -0.47318624718E+02 -0.70952077607E+02  0.95758670473E+02  0.00000000000E+00 0. -1.
          1    1    1    2  502    0 -0.82880243077E+02 -0.52235701665E+02  0.10127320873E+04  0.10174595735E+04  0.00000000000E+00 0. -1.
         22    1    3    3    0    0  0.13338565301E+03  0.89848789373E+02  0.76855834723E+02  0.17824521512E+03  0.00000000000E+00 0. -1.
         22    1    3    3    0    0 -0.69568920661E+01  0.97055370100E+01  0.74834876098E+02  0.75781623607E+02  0.00000000000E+00 0. -1.
</event>
<event>
 7    1  0.6188600E-006  0.1162782E+03  0.7818608E-02  0.1341614E+00
          2   -1    0    0  502    0  0.00000000000E+00  0.00000000000E+00  0.10491476442E+04  0.10491476442E+04  0.00000000000E+00 0. -1.
          1   -1    0    0  501    0 -0.00000000000E+00 -0.00000000000E+00 -0.13204116549E+03  0.13204116549E+03  0.00000000000E+00 0. -1.
         25    2    1    2    0    0  0.25721729885E+02  0.10575468314E+03  0.23084120571E+03  0.28417745793E+03  0.12499401964E+03 0.  0.
          2    1    1    2  501    0  0.22475550245E+02 -0.11624830650E+03 -0.71055527571E+02  0.13808586865E+03  0.00000000000E+00 0. -1.
          1    1    1    2  502    0 -0.48197280130E+02  0.10493623361E+02  0.75732080052E+03  0.75892548307E+03  0.00000000000E+00 0. -1.
         22    1    3    3    0    0  0.17486732450E+02  0.61457968244E+02  0.23042446965E+03  0.23911985255E+03  0.00000000000E+00 0.  1.
         22    1    3    3    0    0  0.82349974346E+01  0.44296714895E+02  0.41673606294E+00  0.45057605375E+02  0.00000000000E+00 0.  1.
</event>
<event>
 7    1  0.6188600E-006  0.5999078E+02  0.7818608E-02  0.1493089E+00
          2   -1    0    0  502    0  0.00000000000E+00  0.00000000000E+00  0.28801397462E+03  0.28801397462E+03  0.00000000000E+00 0. -1.
          1   -1    0    0  501    0 -0.00000000000E+00 -0.00000000000E+00 -0.25060167218E+03  0.25060167218E+03  0.00000000000E+00 0. -1.
         25    2    1    2    0    0  0.79959530803E+02 -0.36076606913E+02  0.16657392520E+02  0.15361269619E+03  0.12499737427E+03 0.  0.
          2    1    1    2  501    0 -0.54664792739E+02  0.20725317388E+02 -0.17629931454E+03  0.18573967442E+03  0.00000000000E+00 0. -1.
          1    1    1    2  502    0 -0.25294738064E+02  0.15351289525E+02  0.19705422445E+03  0.19926327619E+03  0.00000000000E+00 0. -1.
         22    1    3    3    0    0  0.47511029782E+02 -0.49657403722E+02  0.64485615939E+02  0.94241977688E+02  0.00000000000E+00 0. -1.
         22    1    3    3    0    0  0.32448501021E+02  0.13580796809E+02 -0.47828223419E+02  0.59370718506E+02  0.00000000000E+00 0. -1.
</event>
<event>
 7    1  0.6188600E-006  0.6120056E+02  0.7818608E-02  0.1508786E+00
          2   -1    0    0  502    0  0.00000000000E+00  0.00000000000E+00  0.33280345715E+02  0.33280345715E+02  0.00000000000E+00 0. -1.
          1   -1    0    0  501    0 -0.00000000000E+00 -0.00000000000E+00 -0.92287334227E+03  0.92287334227E+03  0.00000000000E+00 0. -1.
         25    2    1    2    0    0  0.50107791707E+02 -0.63039026801E+02 -0.28880559166E+03  0.32483600301E+03  0.12500019755E+03 0.  0.
          2    1    1    2  501    0 -0.62329537058E+01  0.25284857426E+02 -0.55976994650E+03  0.56037538019E+03  0.00000000000E+00 0. -1.
          1    1    1    2  502    0 -0.43874838001E+02  0.37754169376E+02 -0.41017458407E+02  0.70942304791E+02  0.00000000000E+00 0. -1.
         22    1    3    3    0    0  0.74965082787E+01 -0.90764109828E+02 -0.13500767517E+03  0.16285390270E+03  0.00000000000E+00 0. -1.
         22    1    3    3    0    0  0.42611283428E+02  0.27725083027E+02 -0.15379791649E+03  0.16198210031E+03  0.00000000000E+00 0. -1.
</event>
<event>
 7    1  0.6188600E-006  0.7098747E+02  0.7818608E-02  0.1388559E+00
          2   -1    0    0  502    0  0.00000000000E+00  0.00000000000E+00  0.58185747323E+03  0.58185747323E+03  0.00000000000E+00 0. -1.
          1   -1    0    0  501    0 -0.00000000000E+00 -0.00000000000E+00 -0.23271963829E+03  0.23271963829E+03  0.00000000000E+00 0. -1.
         25    2    1    2    0    0 -0.30371190112E+02 -0.12829275127E+02 -0.29043796124E+02  0.13248570685E+03  0.12498768314E+03 0.  0.
          2    1    1    2  501    0  0.45780739069E+02  0.65227515287E+02 -0.13997196565E+03  0.16106724058E+03  0.00000000000E+00 0. -1.
          1    1    1    2  502    0 -0.15409548957E+02 -0.52398240160E+02  0.51815359672E+03  0.52102416409E+03  0.00000000000E+00 0. -1.
         22    1    3    3    0    0 -0.71065580608E+02  0.21872507192E+02 -0.71563768316E+01  0.74698976214E+02  0.00000000000E+00 0. -1.
         22    1    3    3    0    0  0.40694390496E+02 -0.34701782319E+02 -0.21887419292E+02  0.57786730633E+02  0.00000000000E+00 0. -1.
</event>
<event>
 7    1  0.6188600E-006  0.1155218E+03  0.7818608E-02  0.1265086E+00
          2   -1    0    0  502    0  0.00000000000E+00  0.00000000000E+00  0.80963481995E+03  0.80963481995E+03  0.00000000000E+00 0. -1.
          1   -1    0    0  501    0 -0.00000000000E+00 -0.00000000000E+00 -0.27074917311E+03  0.27074917311E+03  0.00000000000E+00 0. -1.
         25    2    1    2    0    0  0.53964144622E+02 -0.46869311645E+02  0.61144756437E+02  0.15644216606E+03  0.12500643504E+03 0.  0.
          2    1    1    2  501    0  0.60427505082E+01  0.12713290001E+03 -0.20096421236E+03  0.23787791774E+03  0.00000000000E+00 0. -1.
          1    1    1    2  502    0 -0.60006895130E+02 -0.80263588364E+02  0.67870510276E+03  0.68606390926E+03  0.00000000000E+00 0. -1.
         22    1    3    3    0    0 -0.84943742961E+01  0.36139110599E+02  0.30748840484E+02  0.48204573441E+02  0.00000000000E+00 0.  1.
         22    1    3    3    0    0  0.62458518918E+02 -0.83008422244E+02  0.30395915953E+02  0.10823759262E+03  0.00000000000E+00 0.  1.
</event>
<event>
 7    1  0.6188600E-006  0.1663846E+03  0.7818608E-02  0.1320955E+00
          2   -1    0    0  502    0  0.00000000000E+00  0.00000000000E+00  0.16647886087E+04  0.16647886087E+04  0.00000000000E+00 0. -1.
          1   -1    0    0  501    0 -0.00000000000E+00 -0.00000000000E+00 -0.76679615849E+03  0.76679615849E+03  0.00000000000E+00 0. -1.
         25    2    1    2    0    0  0.13355796870E+03 -0.12564933197E+02 -0.30802559841E+03  0.35846820845E+03  0.12499631453E+03 0.  0.
          2    1    1    2  501    0  0.27517467785E+02 -0.30834091331E+02 -0.42830876225E+03  0.43029797587E+03  0.00000000000E+00 0. -1.
          1    1    1    2  502    0 -0.16107543648E+03  0.43399024528E+02  0.16343268108E+04  0.16428185828E+04  0.00000000000E+00 0. -1.
         22    1    3    3    0    0  0.11472022375E+03  0.31711599475E+02 -0.27626661877E+03  0.30081489313E+03  0.00000000000E+00 0. -1.
         22    1    3    3    0    0  0.18837744945E+02 -0.44276532672E+02 -0.31758979631E+02  0.57653315319E+02  0.00000000000E+00 0. -1.
</event>
<event>
 7    1  0.6188600E-006  0.5718414E+02  0.7818608E-02  0.1458456E+00
          2   -1    0    0  502    0  0.00000000000E+00  0.00000000000E+00  0.12771781166E+04  0.12771781166E+04  0.00000000000E+00 0. -1.
          1   -1    0    0  501    0 -0.00000000000E+00 -0.00000000000E+00 -0.19648713145E+03  0.19648713145E+03  0.00000000000E+00 0. -1.
         25    2    1    2    0    0 -0.68031431204E+02 -0.44432005510E+02 -0.10385003885E+03  0.18169344669E+03  0.12500079702E+03 0.  0.
          2    1    1    2  501    0  0.50224458627E+02  0.89468220519E+01 -0.41208419676E+02  0.65579537368E+02  0.00000000000E+00 0. -1.
          1    1    1    2  502    0  0.17806972577E+02  0.35485183458E+02  0.12257494437E+04  0.12263922640E+04  0.00000000000E+00 0. -1.
         22    1    3    3    0    0  0.57162167214E+01  0.18017167996E+02  0.18049677945E+02  0.26135882424E+02  0.00000000000E+00 0.  1.
         22    1    3    3    0    0 -0.73747647925E+02 -0.62449173505E+02 -0.12189971679E+03  0.15555756426E+03  0.00000000000E+00 0.  1.
</event>
<event>
 7    1  0.6188600E-006  0.1308406E+03  0.7818608E-02  0.1271587E+00
          2   -1    0    0  502    0  0.00000000000E+00  0.00000000000E+00  0.10467726461E+04  0.10467726461E+04  0.00000000000E+00 0. -1.
          1   -1    0    0  501    0 -0.00000000000E+00 -0.00000000000E+00 -0.12849802935E+03  0.12849802935E+03  0.00000000000E+00 0. -1.
         25    2    1    2    0    0  0.22607728301E+01  0.18192723480E+03  0.31866811146E+03  0.38765558377E+03  0.12499942604E+03 0.  0.
          2    1    1    2  501    0 -0.51594863301E+02 -0.11508458714E+03 -0.47818394925E+02  0.13488176678E+03  0.00000000000E+00 0. -1.
          1    1    1    2  502    0  0.49334090471E+02 -0.66842647659E+02  0.64742490019E+03  0.65273332488E+03  0.00000000000E+00 0. -1.
         22    1    3    3    0    0 -0.22795276145E+02  0.41815463850E+02  0.11324082512E+02  0.48952961874E+02  0.00000000000E+00 0. -1.
         22    1    3    3    0    0  0.25056048975E+02  0.14011177095E+03  0.30734402894E+03  0.33870262189E+03  0.00000000000E+00 0. -1.
</event>
<event>
 7    1  0.6188600E-006  0.4370689E+02  0.7818608E-02  0.1492015E+00
          2   -1    0    0  502    0  0.00000000000E+00  0.00000000000E+00  0.79767291394E+03  0.79767291394E+03  0.00000000000E+00 0. -1.
          1   -1    0    0  501    0 -0.00000000000E+00 -0.00000000000E+00 -0.47783815976E+02  0.47783815976E+02  0.00000000000E+00 0. -1.
         25    2    1    2    0    0  0.30885821075E+02  0.16103345107E+02  0.29360107504E+03  0.32099888762E+03  0.12500177169E+03 0.  0.
          2    1    1    2  501    0  0.80072561986E+01 -0.40125096633E+02 -0.20305004245E+02  0.45677486019E+02  0.00000000000E+00 0. -1.
          1    1    1    2  502    0 -0.38893077274E+02  0.24021751526E+02  0.47659302717E+03  0.47878035627E+03  0.00000000000E+00 0. -1.
         22    1    3    3    0    0  0.45660818796E+02  0.64390778767E+02  0.19004502035E+03  0.20578676469E+03  0.00000000000E+00 0.  1.
         22    1    3    3    0    0 -0.14774997721E+02 -0.48287433661E+02  0.10355605469E+03  0.11521212293E+03  0.00000000000E+00 0.  1.
</event>
<event>
 7    1  0.6188600E-006  0.1977747E+03  0.7818608E-02  0.1242442E+00
          2   -1    0    0  502    0  0.00000000000E+00  0.00000000000E+00  0.14862977291E+04  0.14862977291E+04  0.00000000000E+00 0. -1.
          1   -1    0    0  501    0 -0.00000000000E+00 -0.00000000000E+00 -0.49580565666E+03  0.49580565666E+03  0.00000000000E+00 0. -1.
         25    2    1    2    0    0 -0.15707029759E+03 -0.12955925887E+03  0.37978106902E+03  0.44868133365E+03  0.12499839535E+03 0.  0.
          2    1    1    2  501    0 -0.31609355388E+02  0.66127685056E+02 -0.44911918951E+03  0.45506051077E+03  0.00000000000E+00 0. -1.
          1    1    1    2  502    0  0.18867965298E+03  0.63431573809E+02  0.10598301930E+04  0.10783615414E+04  0.00000000000E+00 0. -1.
         22    1    3    3    0    0 -0.15048943627E+03 -0.11589551548E+03  0.38758453852E+03  0.43162555003E+03  0.00000000000E+00 0.  1.
         22    1    3    3    0    0 -0.65808613255E+01 -0.13663743381E+02 -0.78034694974E+01  0.17055783628E+02  0.00000000000E+00 0.  1.
</event>
<event>
 7    1  0.6188600E-006  0.3798077E+02  0.7818608E-02  0.1541687E+00
          2   -1    0    0  502    0  0.00000000000E+00  0.00000000000E+00  0.12882511568E+04  0.12882511568E+04  0.00000000000E+00 0. -1.
          1   -1    0    0  501    0 -0.00000000000E+00 -0.00000000000E+00 -0.13480964452E+03  0.13480964452E+03  0.00000000000E+00 0. -1.
         25    2    1    2    0    0  0.66425440771E+01 -0.10747806383E+01  0.50365674082E+03  0.51898099086E+03  0.12500351095E+03 0.  0.
          2    1    1    2  501    0 -0.22440312859E+02  0.30873546688E+02 -0.12390754805E+03  0.12965270529E+03  0.00000000000E+00 0. -1.
          1    1    1    2  502    0  0.15797768782E+02 -0.29798766049E+02  0.77369231954E+03  0.77442710520E+03  0.00000000000E+00 0. -1.
         22    1    3    3    0    0  0.10658778023E+02 -0.34281375686E+02  0.47055390718E+03  0.47192139370E+03  0.00000000000E+00 0. -1.
         22    1    3    3    0    0 -0.40162339457E+01  0.33206595048E+02  0.33102833646E+02  0.47059597163E+02  0.00000000000E+00 0. -1.
</event>
<event>
 7    1  0.6188600E-006  0.9072846E+02  0.7818608E-02  0.1415054E+00
          2   -1    0    0  502    0  0.00000000000E+00  0.00000000000E+00  0.88457339739E+03  0.88457339739E+03  0.00000000000E+00 0. -1.
          1   -1    0    0  501    0 -0.00000000000E+00 -0.00000000000E+00 -0.14668726899E+03  0.14668726899E+03  0.00000000000E+00 0. -1.
         25    2    1    2    0    0 -0.50066730563E+02  0.81298524596E+02  0.13720478214E+01  0.15729923975E+03  0.12500016280E+03 0.  0.
          2    1    1    2  501    0  0.33729622945E+02  0.79984763979E+01 -0.61609257019E+02  0.70692033774E+02  0.00000000000E+00 0. -1.
          1    1    1    2  502    0  0.16337107618E+02 -0.89297000994E+02  0.79812333760E+03  0.80326939286E+03  0.00000000000E+00 0. -1.
         22    1    3    3    0    0 -0.28195113512E+02  0.44613209518E+02 -0.61658640225E+02  0.81160894548E+02  0.00000000000E+00 0. -1.
         22    1    3    3    0    0 -0.21871617051E+02  0.36685315078E+02  0.63030688046E+02  0.76138345204E+02  0.00000000000E+00 0. -1.
</event>
<event>
 7    1  0.6188600E-006  0.8731814E+02  0.7818608E-02  0.1376168E+00
          2   -1    0    0  502    0  0.00000000000E+00  0.00000000000E+00  0.79073137771E+03  0.79073137771E+03  0.00000000000E+00 0. -1.
          1   -1    0    0  501    0 -0.00000000000E+00 -0.00000000000E+00 -0.18144611170E+04  0.18144611170E+04  0.00000000000E+00 0. -1.
         25    2    1    2    0    0  0.12489899645E+03  0.12813062284E+02  0.60310329327E+02  0.18715314325E+03  0.12500011730E+03 0.  0.
          2    1    1    2  501    0 -0.45219185148E+02  0.19148861551E+02 -0.17479309139E+04  0.17486205802E+04  0.00000000000E+00 0. -1.
          1    1    1    2  502    0 -0.79679811300E+02 -0.31961923835E+02  0.66389084529E+03  0.66941877130E+03  0.00000000000E+00 0. -1.
         22    1    3    3    0    0  0.41298375229E+02 -0.27861731338E+02  0.77964021328E+02  0.92521459626E+02  0.00000000000E+00 0. -1.
         22    1    3    3    0    0  0.83600621218E+02  0.40674793621E+02 -0.17653692001E+02  0.94631683624E+02  0.00000000000E+00 0. -1.
</event>
<event>
 7    1  0.6188600E-006  0.5302129E+02  0.7818608E-02  0.1431575E+00
          2   -1    0    0  502    0  0.00000000000E+00  0.00000000000E+00  0.15989587371E+04  0.15989587371E+04  0.00000000000E+00 0. -1.
          1   -1    0    0  501    0 -0.00000000000E+00 -0.00000000000E+00 -0.10923354825E+04  0.10923354825E+04  0.00000000000E+00 0. -1.
         25    2    1    2    0    0 -0.33252772057E+02  0.25348423832E+02  0.12169555419E+03  0.17939667854E+03  0.12500028368E+03 0.  0.
          2    1    1    2  501    0 -0.11800901650E+02 -0.51852767092E+02 -0.10623480151E+04  0.10636781825E+04  0.00000000000E+00 0. -1.
          1    1    1    2  502    0  0.45053673707E+02  0.26504343260E+02  0.14472757155E+04  0.14482193586E+04  0.00000000000E+00 0. -1.
         22    1    3    3    0    0 -0.21276690989E+02 -0.66875555204E+01 -0.22214320655E+02  0.31478516809E+02  0.00000000000E+00 0.  1.
         22    1    3    3    0    0 -0.11976081067E+02  0.32035979352E+02  0.14390987485E+03  0.14791816173E+03  0.00000000000E+00 0.  1.
</event>
<event>
 7    1  0.6188600E-006  0.6714876E+02  0.7818608E-02  0.1464964E+00
          2   -1    0    0  502    0  0.00000000000E+00  0.00000000000E+00  0.48117802805E+02  0.48117802805E+02  0.00000000000E+00 0. -1.
          1   -1    0    0  501    0 -0.00000000000E+00 -0.00000000000E+00 -0.51715409930E+03  0.51715409930E+03  0.00000000000E+00 0. -1.
         25    2    1    2    0    0  0.27333472634E+02  0.26967343787E+02 -0.77307637711E+02  0.15189935238E+03  0.12499034382E+03 0.  0.
          2    1    1    2  501    0 -0.56314092755E+02 -0.41123341007E+02 -0.36465583355E+03  0.37126309157E+03  0.00000000000E+00 0. -1.
          1    1    1    2  502    0  0.28980620121E+02  0.14155997219E+02 -0.27072825225E+02  0.42109458148E+02  0.00000000000E+00 0. -1.
         22    1    3    3    0    0 -0.26364354519E+02 -0.77610804379E+01  0.21023874309E+02  0.34602266541E+02  0.00000000000E+00 0. -1.
         22    1    3    3    0    0  0.53697827153E+02  0.34728424225E+02 -0.98331512020E+02  0.11729708584E+03  0.00000000000E+00 0. -1.
</event>
<event>
 7    1  0.6188600E-006  0.1771035E+03  0.7818608E-02  0.1259452E+00
          2   -1    0    0  502    0  0.00000000000E+00  0.00000000000E+00  0.20465377839E+04  0.20465377839E+04  0.00000000000E+00 0. -1.
          1   -1    0    0  501    0 -0.00000000000E+00 -0.00000000000E+00 -0.69491665835E+03  0.69491665835E+03  0.00000000000E+00 0. -1.
         25    2    1    2    0    0 -0.14952926184E+03 -0.15156803547E+03 -0.57962326860E+01  0.24696216432E+03  0.12499937909E+03 0.  0.
          2    1    1    2  501    0  0.15321563303E+03  0.82590187883E+02 -0.55457716233E+03  0.58125037490E+03  0.00000000000E+00 0. -1.
          1    1    1    2  502    0 -0.36863711975E+01  0.68977847590E+02  0.19119945206E+04  0.19132419030E+04  0.00000000000E+00 0. -1.
         22    1    3    3    0    0 -0.13945381912E+03 -0.66396230490E+02  0.23710548858E+02  0.15626265458E+03  0.00000000000E+00 0. -1.
         22    1    3    3    0    0 -0.10075442716E+02 -0.85171804984E+02 -0.29506781544E+02  0.90699509741E+02  0.00000000000E+00 0. -1.
</event>
<event>
 7    1  0.6188600E-006  0.1393439E+03  0.7818608E-02  0.1324160E+00
          2   -1    0    0  502    0  0.00000000000E+00  0.00000000000E+00  0.70589103143E+03  0.70589103143E+03  0.00000000000E+00 0. -1.
          1   -1    0    0  501    0 -0.00000000000E+00 -0.00000000000E+00 -0.14566553419E+03  0.14566553419E+03  0.00000000000E+00 0. -1.
         25    2    1    2    0    0  0.12464300718E+03 -0.72100290495E+02  0.17843245961E+02  0.19151385966E+03  0.12499938355E+03 0.  0.
          2    1    1    2  501    0  0.12560459474E+02  0.46285813274E+02 -0.39197733456E+02  0.61940325804E+02  0.00000000000E+00 0. -1.
          1    1    1    2  502    0 -0.13720346665E+03  0.25814477221E+02  0.58157998474E+03  0.59810238015E+03  0.00000000000E+00 0. -1.
         22    1    3    3    0    0  0.79240747693E+02  0.23016455474E+02 -0.82723551380E+01  0.82929398750E+02  0.00000000000E+00 0.  1.
         22    1    3    3    0    0  0.45402259483E+02 -0.95116745970E+02  0.26115601099E+02  0.10858446091E+03  0.00000000000E+00 0.  1.
</event>
<event>
 7    1  0.6188600E-006  0.4140851E+02  0.7818608E-02  0.1592464E+00
          2   -1    0    0  502    0  0.00000000000E+00  0.00000000000E+00  0.92760466452E+03  0.92760466452E+03  0.00000000000E+00 0. -1.
          1   -1    0    0  501    0 -0.00000000000E+00 -0.00000000000E+00 -0.41071564479E+02  0.41071564479E+02  0.00000000000E+00 0. -1.
         25    2    1    2    0    0 -0.27943094488E+02 -0.34571369124E+02  0.35188562696E+03  0.37606461448E+03  0.12500041485E+03 0.  0.
          2    1    1    2  501    0 -0.10873189058E+02  0.19683873081E+02 -0.23727805797E+02  0.32690822377E+02  0.00000000000E+00 0. -1.
          1    1    1    2  502    0  0.38816283546E+02  0.14887496043E+02  0.55837527888E+03  0.55992079214E+03  0.00000000000E+00 0. -1.
         22    1    3    3    0    0  0.14055666062E+02  0.18829154138E+02  0.69512055322E+01  0.24503429399E+02  0.00000000000E+00 0. -1.
         22    1    3    3    0    0 -0.41998760550E+02 -0.53400523261E+02  0.34493442143E+03  0.35156118508E+03  0.00000000000E+00 0. -1.
</event>
<event>
 7    1  0.6188600E-006  0.5100693E+02  0.7818608E-02  0.1504622E+00
          2   -1    0    0  502    0  0.00000000000E+00  0.00000000000E+00  0.17449366026E+04  0.17449366026E+04  0.00000000000E+00 0. -1.
          1   -1    0    0  501    0 -0.00000000000E+00 -0.00000000000E+00 -0.15004983579E+04  0.15004983579E+04  0.00000000000E+00 0. -1.
         25    2    1    2    0    0 -0.57337161902E+02  0.27731973937E+02  0.15135780911E+03  0.20638157445E+03  0.12501022111E+03 0.  0.
          2    1    1    2  501    0  0.28632630010E+02 -0.42199912836E+02 -0.14723800400E+04  0.14732629237E+04  0.00000000000E+00 0. -1.
          1    1    1    2  502    0  0.28704531892E+02  0.14467938899E+02  0.15654604756E+04  0.15657904624E+04  0.00000000000E+00 0. -1.
         22    1    3    3    0    0 -0.52682827098E+02  0.74974770149E+02  0.86539393069E+02  0.12603873604E+03  0.00000000000E+00 0. -1.
         22    1    3    3    0    0 -0.46543348037E+01 -0.47242796212E+02  0.64818416040E+02  0.80342838414E+02  0.00000000000E+00 0. -1.
</event>
<event>
 7    1  0.6188600E-006  0.5068962E+02  0.7818608E-02  0.1524644E+00
          2   -1    0    0  502    0  0.00000000000E+00  0.00000000000E+00  0.19002896277E+04  0.19002896277E+04  0.00000000000E+00 0. -1.
          1   -1    0    0  501    0 -0.00000000000E+00 -0.00000000000E+00 -0.75758212480E+02  0.75758212480E+02  0.00000000000E+00 0. -1.
         25    2    1    2    0    0  0.38929668623E+01 -0.51250288997E+02  0.43281780914E+03  0.45342895585E+03  0.12499925915E+03 0.  0.
          2    1    1    2  501    0  0.23672007937E+02  0.44998991673E+02 -0.55419177989E+02  0.75210095734E+02  0.00000000000E+00 0. -1.
          1    1    1    2  502    0 -0.27564974799E+02  0.62512973241E+01  0.14471327840E+04  0.14474087886E+04  0.00000000000E+00 0. -1.
         22    1    3    3    0    0 -0.30629953164E+02 -0.75471540554E+02  0.36161318626E+03  0.37067269112E+03  0.00000000000E+00 0. -1.
         22    1    3    3    0    0  0.34522920026E+02  0.24221251557E+02  0.71204622875E+02  0.82756264735E+02  0.00000000000E+00 0. -1.
</event>
<event>
 7    1  0.6188600E-006  0.6932007E+02  0.7818608E-02  0.1452527E+00
          2   -1    0    0  502    0  0.00000000000E+00  0.00000000000E+00  0.63125249400E+03  0.63125249400E+03  0.00000000000E+00 0. -1.
          1   -1    0    0  501    0 -0.00000000000E+00 -0.00000000000E+00 -0.29904173465E+02  0.29904173465E+02  0.00000000000E+00 0. -1.
         25    2    1    2    0    0 -0.58612753956E+02 -0.43031643486E+01  0.24358053820E+03  0.28001853189E+03  0.12499970983E+03 0.  0.
          2    1    1    2  501    0 -0.83202419267E+01  0.33174856558E+02  0.30422124667E+02  0.45774482003E+02  0.00000000000E+00 0. -1.
          1    1    1    2  502    0  0.66932995883E+02 -0.28871692209E+02  0.32734565766E+03  0.33536365357E+03  0.00000000000E+00 0. -1.
         22    1    3    3    0    0 -0.51640748383E+02  0.56668639070E+02  0.13029191683E+03  0.15117567642E+03  0.00000000000E+00 0.  1.
         22    1    3    3    0    0 -0.69720055733E+01 -0.60971803419E+02  0.11328862137E+03  0.12884285547E+03  0.00000000000E+00 0.  1.
</event>
<event>
 7    1  0.6188600E-006  0.9469658E+02  0.7818608E-02  0.1431456E+00
          2   -1    0    0  502    0  0.00000000000E+00  0.00000000000E+00  0.97123557940E+03  0.97123557940E+03  0.00000000000E+00 0. -1.
          1   -1    0    0  501    0 -0.00000000000E+00 -0.00000000000E+00 -0.48604839836E+03  0.48604839836E+03  0.00000000000E+00 0. -1.
         25    2    1    2    0    0  0.20458910260E+02  0.68344643151E+02  0.65400506417E+03  0.66965472448E+03  0.12500107517E+03 0.  0.
          2    1    1    2  501    0 -0.74327574514E+01 -0.94582640609E+02 -0.47280705176E+03  0.48223192551E+03  0.00000000000E+00 0. -1.
          1    1    1    2  502    0 -0.13026152809E+02  0.26237997458E+02  0.30398916862E+03  0.30539732777E+03  0.00000000000E+00 0. -1.
         22    1    3    3    0    0  0.29473659913E+02  0.65676503750E+02  0.65608800344E+03  0.66002542984E+03  0.00000000000E+00 0.  1.
         22    1    3    3    0    0 -0.90147496531E+01  0.26681394009E+01 -0.20829392719E+01  0.96292946357E+01  0.00000000000E+00 0.  1.
</event>
<event>
 7    1  0.6188600E-006  0.1172384E+03  0.7818608E-02  0.1283337E+00
          2   -1    0    0  502    0  0.00000000000E+00  0.00000000000E+00  0.15948040527E+04  0.15948040527E+04  0.00000000000E+00 0. -1.
          1   -1    0    0  501    0 -0.00000000000E+00 -0.00000000000E+00 -0.42096289934E+02  0.42096289934E+02  0.00000000000E+00 0. -1.
         25    2    1    2    0    0  0.37714815453E+02  0.47246169030E+02  0.26395856709E+03  0.29825006089E+03  0.12499746352E+03 0.  0.
          2    1    1    2  501    0 -0.17003602759E+02  0.81107596238E+02  0.58233827082E+02  0.10128545449E+03  0.00000000000E+00 0. -1.
          1    1    1    2  502    0 -0.20711212694E+02 -0.12835376527E+03  0.12305153686E+04  0.12373648273E+04  0.00000000000E+00 0. -1.
         22    1    3    3    0    0 -0.86137043430E+01  0.61544876220E+02  0.52646697710E+02  0.81447175956E+02  0.00000000000E+00 0.  1.
         22    1    3    3    0    0  0.46328519796E+02 -0.14298707190E+02  0.21131186938E+03  0.21680288493E+03  0.00000000000E+00 0.  1.
</event>
<event>
 7    1  0.6188600E-006  0.2412905E+03  0.7818608E-02  0.1272400E+00
          2   -1    0    0  502    0  0.00000000000E+00  0.00000000000E+00  0.12877357592E+04  0.12877357592E+04  0.00000000000E+00 0. -1.
          1   -1    0    0  501    0 -0.00000000000E+00 -0.00000000000E+00 -0.36601412176E+03  0.36601412176E+03  0.00000000000E+00 0. -1.
         25    2    1    2    0    0  0.19041311929E+03  0.64894461302E+02  0.54742158146E+03  0.59645968523E+03  0.12500128462E+03 0.  0.
          2    1    1    2  501    0 -0.22695547470E+03 -0.90634000704E+02 -0.29693447944E+03  0.38456910258E+03  0.00000000000E+00 0. -1.
          1    1    1    2  502    0  0.36542355411E+02  0.25739539401E+02  0.67123453547E+03  0.67272109319E+03  0.00000000000E+00 0. -1.
         22    1    3    3    0    0  0.17720651725E+02 -0.32036711059E+02  0.59249621420E+02  0.69648330859E+02  0.00000000000E+00 0. -1.
         22    1    3    3    0    0  0.17269246757E+03  0.96931172362E+02  0.48817196004E+03  0.52681135438E+03  0.00000000000E+00 0. -1.
</event>
<event>
 7    1  0.6188600E-006  0.2702955E+03  0.7818608E-02  0.1285368E+00
          2   -1    0    0  502    0  0.00000000000E+00  0.00000000000E+00  0.13844254889E+04  0.13844254889E+04  0.00000000000E+00 0. -1.
          1   -1    0    0  501    0 -0.00000000000E+00 -0.00000000000E+00 -0.49099630648E+03  0.49099630648E+03  0.00000000000E+00 0. -1.
         25    2    1    2    0    0 -0.16755142548E+03 -0.24463829075E+03 -0.14458511838E+02  0.32211133526E+03  0.12500116101E+03 0.  0.
          2    1    1    2  501    0  0.14856845352E+03  0.21492299890E+03 -0.26952061227E+03  0.37537426826E+03  0.00000000000E+00 0. -1.
          1    1    1    2  502    0  0.18982971963E+02  0.29715291853E+02  0.11774083066E+04  0.11779361919E+04  0.00000000000E+00 0. -1.
         22    1    3    3    0    0 -0.11593305539E+03 -0.23702779320E+03  0.10927011722E+02  0.26408719709E+03  0.00000000000E+00 0. -1.
         22    1    3    3    0    0 -0.51618370092E+02 -0.76104975569E+01 -0.25385523559E+02  0.58024138170E+02  0.00000000000E+00 0. -1.
</event>
<event>
 7    1  0.6188600E-006  0.4171303E+02  0.7818608E-02  0.1514075E+00
          2   -1    0    0  502    0  0.00000000000E+00  0.00000000000E+00  0.15337544392E+03  0.15337544392E+03  0.00000000000E+00 0. -1.
          1   -1    0    0  501    0 -0.00000000000E+00 -0.00000000000E+00 -0.12506625474E+04  0.12506625474E+04  0.00000000000E+00 0. -1.
         25    2    1    2    0    0 -0.70652237196E+02 -0.30704722359E+02 -0.22041336284E+03  0.26484229947E+03  0.12499949790E+03 0.  0.
          2    1    1    2  501    0  0.35863179173E+02  0.85359908372E+01 -0.10044445991E+04  0.10051208800E+04  0.00000000000E+00 0. -1.
          1    1    1    2  502    0  0.34789058023E+02  0.22168731522E+02  0.12757085851E+03  0.13407481179E+03  0.00000000000E+00 0. -1.
         22    1    3    3    0    0 -0.44033316936E+02  0.24991086477E+02 -0.18829976577E+02  0.54019028329E+02  0.00000000000E+00 0. -1.
         22    1    3    3    0    0 -0.26618920260E+02 -0.55695808837E+02 -0.20158338626E+03  0.21082327114E+03  0.00000000000E+00 0. -1.
</event>
<event>
 7    1  0.6188600E-006  0.1978570E+03  0.7818608E-02  0.1280781E+00
          2   -1    0    0  502    0  0.00000000000E+00  0.00000000000E+00  0.50112018829E+02  0.50112018829E+02  0.00000000000E+00 0. -1.
          1   -1    0    0  501    0 -0.00000000000E+00 -0.00000000000E+00 -0.21142423256E+04  0.21142423256E+04  0.00000000000E+00 0. -1.
         25    2    1    2    0    0 -0.21727348195E+02  0.19881867179E+03 -0.51755207996E+03  0.56875873124E+03  0.12500158794E+03 0.  0.
          2    1    1    2  501    0 -0.48676036285E+02 -0.12713931567E+02 -0.11574788575E+04  0.11585716664E+04  0.00000000000E+00 0. -1.
          1    1    1    2  502    0  0.70403384480E+02 -0.18610474022E+03 -0.38909936923E+03  0.43702394672E+03  0.00000000000E+00 0. -1.
         22    1    3    3    0    0 -0.47491652035E+02  0.17370281127E+03 -0.31333190358E+03  0.36139314529E+03  0.00000000000E+00 0. -1.
         22    1    3    3    0    0  0.25764303840E+02  0.25115860517E+02 -0.20422017637E+03  0.20736558596E+03  0.00000000000E+00 0. -1.
</event>
<event>
 7    1  0.6188600E-006  0.1775881E+03  0.7818608E-02  0.1376827E+00
          2   -1    0    0  502    0  0.00000000000E+00  0.00000000000E+00  0.37168039104E+03  0.37168039104E+03  0.00000000000E+00 0. -1.
          1   -1    0    0  501    0 -0.00000000000E+00 -0.00000000000E+00 -0.10515008705E+04  0.10515008705E+04  0.00000000000E+00 0. -1.
         25    2    1    2    0    0 -0.19189819974E+03  0.35388019728E+02 -0.56571030161E+03  0.61133523987E+03  0.12500159661E+03 0.  0.
          2    1    1    2  501    0  0.21213071003E+02  0.11257015609E+02 -0.44019347491E+03  0.44084805788E+03  0.00000000000E+00 0. -1.
          1    1    1    2  502    0  0.17068512874E+03 -0.46645035337E+02  0.32608329708E+03  0.37099796378E+03  0.00000000000E+00 0. -1.
         22    1    3    3    0    0 -0.35035217628E+02 -0.13054875811E+02 -0.27450995368E+03  0.27704442049E+03  0.00000000000E+00 0.  1.
         22    1    3    3    0    0 -0.15686298211E+03  0.48442895539E+02 -0.29120034793E+03  0.33429081938E+03  0.00000000000E+00 0.  1.
</event>
<event>
 7    1  0.6188600E-006  0.4215049E+02  0.7818608E-02  0.1537630E+00
          2   -1    0    0  502    0  0.00000000000E+00  0.00000000000E+00  0.29244934320E+03  0.29244934320E+03  0.00000000000E+00 0. -1.
          1   -1    0    0  501    0 -0.00000000000E+00 -0.00000000000E+00 -0.32478944090E+03  0.32478944090E+03  0.00000000000E+00 0. -1.
         25    2    1    2    0    0 -0.63432506577E+02 -0.25711093180E+02 -0.34558049973E+02  0.14664254253E+03  0.12500013303E+03 0.  0.
          2    1    1    2  501    0  0.21902608543E+02  0.22226071717E+02 -0.23129650827E+03  0.23339193915E+03  0.00000000000E+00 0. -1.
          1    1    1    2  502    0  0.41529898035E+02  0.34850214630E+01  0.23351446054E+03  0.23720430242E+03  0.00000000000E+00 0. -1.
         22    1    3    3    0    0 -0.62934162946E+02  0.39668858346E+02 -0.40772133971E+01  0.74504703592E+02  0.00000000000E+00 0.  1.
         22    1    3    3    0    0 -0.49834363107E+00 -0.65379951526E+02 -0.30480836576E+02  0.72137838936E+02  0.00000000000E+00 0.  1.
</event>
<event>
 7    1  0.6188600E-006  0.6386422E+02  0.7818608E-02  0.1441070E+00
          2   -1    0    0  502    0  0.00000000000E+00  0.00000000000E+00  0.16803616749E+04  0.16803616749E+04  0.00000000000E+00 0. -1.
          1   -1    0    0  501    0 -0.00000000000E+00 -0.00000000000E+00 -0.13083023299E+04  0.13083023299E+04  0.00000000000E+00 0. -1.
         25    2    1    2    0    0 -0.20332530950E+02  0.22759875350E+02  0.33833483122E+03  0.36197675132E+03  0.12500114695E+03 0.  0.
          2    1    1    2  501    0  0.13293198912E+02 -0.62551490063E+02 -0.12953855506E+04  0.12969630384E+04  0.00000000000E+00 0. -1.
          1    1    1    2  502    0  0.70393320384E+01  0.39791614713E+02  0.13291100644E+04  0.13297242151E+04  0.00000000000E+00 0. -1.
         22    1    3    3    0    0 -0.67495365004E+02 -0.12457298038E+02  0.15754890022E+03  0.17185012229E+03  0.00000000000E+00 0.  1.
         22    1    3    3    0    0  0.47162834054E+02  0.35217173389E+02  0.18078593100E+03  0.19012662903E+03  0.00000000000E+00 0.  1.
</event>
<event>
 7    1  0.6188600E-006  0.1078419E+03  0.7818608E-02  0.1277277E+00
          2   -1    0    0  502    0  0.00000000000E+00  0.00000000000E+00  0.79705597918E+03  0.79705597918E+03  0.00000000000E+00 0. -1.
          1   -1    0    0  501    0 -0.00000000000E+00 -0.00000000000E+00 -0.92857300399E+02  0.92857300399E+02  0.00000000000E+00 0. -1.
         25    2    1    2    0    0  0.13867406422E+02 -0.47398076416E+02  0.23310206939E+03  0.26906702509E+03  0.12498642577E+03 0.  0.
          2    1    1    2  501    0  0.10652965698E+03  0.16771913468E+02 -0.23933546814E+02  0.11046573930E+03  0.00000000000E+00 0. -1.
          1    1    1    2  502    0 -0.12039706340E+03  0.30626162948E+02  0.49503015621E+03  0.51038051519E+03  0.00000000000E+00 0. -1.
         22    1    3    3    0    0 -0.46942200214E+02 -0.54379171578E+02  0.14458621171E+03  0.16144917801E+03  0.00000000000E+00 0.  1.
         22    1    3    3    0    0  0.60809606637E+02  0.69810951615E+01  0.88515857675E+02  0.10761784707E+03  0.00000000000E+00 0.  1.
</event>
<event>
 7    1  0.6188600E-006  0.1020076E+03  0.7818608E-02  0.1379314E+00
          2   -1    0    0  502    0  0.00000000000E+00  0.00000000000E+00  0.23824957070E+03  0.23824957070E+03  0.00000000000E+00 0. -1.
          1   -1    0    0  501    0 -0.00000000000E+00 -0.00000000000E+00 -0.13658871883E+04  0.13658871883E+04  0.00000000000E+00 0. -1.
         25    2    1    2    0    0  0.47073127439E+02 -0.81736927148E+02  0.12398477529E+03  0.19971168930E+03  0.12496291350E+03 0.  0.
          2    1    1    2  501    0  0.40119336393E+02  0.82891836714E+01 -0.12849857873E+04  0.12856386527E+04  0.00000000000E+00 0. -1.
          1    1    1    2  502    0 -0.87192463832E+02  0.73447743477E+02  0.33363394438E+02  0.11878641698E+03  0.00000000000E+00 0. -1.
         22    1    3    3    0    0  0.89760105828E+02 -0.64472368895E+02  0.86892403198E+02  0.14058397022E+03  0.00000000000E+00 0.  1.
         22    1    3    3    0    0 -0.42686978389E+02 -0.17264558253E+02  0.37092372095E+02  0.59127719077E+02  0.00000000000E+00 0.  1.
</event>
<event>
 7    1  0.6188600E-006  0.6043104E+02  0.7818608E-02  0.1442868E+00
          2   -1    0    0  502    0  0.00000000000E+00  0.00000000000E+00  0.10832028913E+03  0.10832028913E+03  0.00000000000E+00 0. -1.
          1   -1    0    0  501    0 -0.00000000000E+00 -0.00000000000E+00 -0.70208541847E+03  0.70208541847E+03  0.00000000000E+00 0. -1.
         25    2    1    2    0    0 -0.76875492020E+02  0.10312918993E+02 -0.97036688169E+02  0.17623109934E+03  0.12500033580E+03 0.  0.
          2    1    1    2  501    0  0.45937241240E+02 -0.38919225419E+02 -0.55721491016E+03  0.56045819857E+03  0.00000000000E+00 0. -1.
          1    1    1    2  502    0  0.30938250780E+02  0.28606306426E+02  0.60486468984E+02  0.73716409698E+02  0.00000000000E+00 0. -1.
         22    1    3    3    0    0  0.10675671980E+02 -0.42692716569E+02 -0.21186024739E+02  0.48841433891E+02  0.00000000000E+00 0.  1.
         22    1    3    3    0    0 -0.87551164000E+02  0.53005635562E+02 -0.75850663430E+02  0.12738966544E+03  0.00000000000E+00 0.  1.
</event>
<event>
 7    1  0.6188600E-006  0.9429659E+02  0.7818608E-02  0.1375628E+00
          2   -1    0    0  502    0  0.00000000000E+00  0.00000000000E+00  0.14587616670E+04  0.14587616670E+04  0.00000000000E+00 0. -1.
          1   -1    0    0  501    0 -0.00000000000E+00 -0.00000000000E+00 -0.28907155083E+02  0.28907155083E+02  0.00000000000E+00 0. -1.
         25    2    1    2    0    0 -0.89937127009E+02  0.79086026965E+02  0.47593627226E+03  0.50644158641E+03  0.12499783487E+03 0.  0.
          2    1    1    2  501    0  0.45666026071E+02  0.86440774850E+00  0.34402123303E+02  0.57180759226E+02  0.00000000000E+00 0. -1.
          1    1    1    2  502    0  0.44271100938E+02 -0.79950434713E+02  0.91951611633E+03  0.92404647641E+03  0.00000000000E+00 0. -1.
         22    1    3    3    0    0 -0.39595966433E+02 -0.10650987405E+01  0.33084606868E+03  0.33320878763E+03  0.00000000000E+00 0.  1.
         22    1    3    3    0    0 -0.50341160576E+02  0.80151125705E+02  0.14509020358E+03  0.17323279879E+03  0.00000000000E+00 0.  1.
</event>
<event>
 7    1  0.6188600E-006  0.3357984E+02  0.7818608E-02  0.1616667E+00
          2   -1    0    0  502    0  0.00000000000E+00  0.00000000000E+00  0.24168246213E+04  0.24168246213E+04  0.00000000000E+00 0. -1.
          1   -1    0    0  501    0 -0.00000000000E+00 -0.00000000000E+00 -0.31455357047E+03  0.31455357047E+03  0.00000000000E+00 0. -1.
         25    2    1    2    0    0 -0.49782543981E+02  0.15946356671E+02  0.13858235845E+04  0.13924310215E+04  0.12499821731E+03 0.  0.
          2    1    1    2  501    0  0.23771110440E+02  0.32523168997E+01 -0.31053274119E+03  0.31145822610E+03  0.00000000000E+00 0. -1.
          1    1    1    2  502    0  0.26011433541E+02 -0.19198673571E+02  0.10269802076E+04  0.10274889442E+04  0.00000000000E+00 0. -1.
         22    1    3    3    0    0  0.37368902643E+02 -0.12577651733E+02  0.59580442906E+03  0.59710765352E+03  0.00000000000E+00 0.  1.
         22    1    3    3    0    0 -0.87151446624E+02  0.28524008404E+02  0.79001915539E+03  0.79532336794E+03  0.00000000000E+00 0.  1.
</event>
<event>
 7    1  0.6188600E-006  0.3495487E+02  0.7818608E-02  0.1627543E+00
          2   -1    0    0  502    0  0.00000000000E+00  0.00000000000E+00  0.22381067874E+04  0.22381067874E+04  0.00000000000E+00 0. -1.
          1   -1    0    0  501    0 -0.00000000000E+00 -0.00000000000E+00 -0.58806234431E+01  0.58806234431E+01  0.00000000000E+00 0. -1.
         25    2    1    2    0    0 -0.60150400617E+01 -0.54785392934E+02  0.18841840149E+04  0.18891300129E+04  0.12500073480E+03 0.  0.
          2    1    1    2  501    0  0.70588201248E+01  0.33182293074E+02  0.94689958526E+02  0.10058369530E+03  0.00000000000E+00 0. -1.
          1    1    1    2  502    0 -0.10437800631E+01  0.21603099861E+02  0.25335219048E+03  0.25427370257E+03  0.00000000000E+00 0. -1.
         22    1    3    3    0    0  0.22197519920E+02 -0.47731682395E+02  0.29370167151E+03  0.29838182794E+03  0.00000000000E+00 0. -1.
         22    1    3    3    0    0 -0.28212559982E+02 -0.70537105394E+01  0.15904823434E+04  0.15907481850E+04  0.00000000000E+00 0. -1.
</event>
<event>
 7    1  0.6188600E-006  0.4438045E+02  0.7818608E-02  0.1535215E+00
          2   -1    0    0  502    0  0.00000000000E+00  0.00000000000E+00  0.23891924244E+04  0.23891924244E+04  0.00000000000E+00 0. -1.
          1   -1    0    0  501    0 -0.00000000000E+00 -0.00000000000E+00 -0.68419225163E+03  0.68419225163E+03  0.00000000000E+00 0. -1.
         25    2    1    2    0    0  0.48560813728E+02  0.15139156384E+02  0.13079023500E+03  0.18793018834E+03  0.12499729370E+03 0.  0.
          2    1    1    2  501    0 -0.65070062135E+01 -0.29396885637E+02 -0.65505538214E+03  0.65574695706E+03  0.00000000000E+00 0. -1.
          1    1    1    2  502    0 -0.42053807514E+02  0.14257729253E+02  0.22292653200E+04  0.22297075307E+04  0.00000000000E+00 0. -1.
         22    1    3    3    0    0 -0.29439420079E+01  0.52247942917E+02  0.12685914072E+02  0.53846511024E+02  0.00000000000E+00 0. -1.
         22    1    3    3    0    0  0.51504755735E+02 -0.37108786533E+02  0.11810432093E+03  0.13408367732E+03  0.00000000000E+00 0. -1.
</event>
<event>
 7    1  0.6188600E-006  0.1473041E+03  0.7818608E-02  0.1304159E+00
          2   -1    0    0  502    0  0.00000000000E+00  0.00000000000E+00  0.12291261782E+04  0.12291261782E+04  0.00000000000E+00 0. -1.
          1   -1    0    0  501    0 -0.00000000000E+00 -0.00000000000E+00 -0.11979151768E+04  0.11979151768E+04  0.00000000000E+00 0. -1.
         25    2    1    2    0    0  0.64804825418E+02  0.89546441786E+02 -0.20120207706E+03  0.26139172562E+03  0.12500051109E+03 0.  0.
          2    1    1    2  501    0 -0.11781101551E+03 -0.10148053349E+03 -0.95974235270E+03  0.97225671385E+03  0.00000000000E+00 0. -1.
          1    1    1    2  502    0  0.53006190096E+02  0.11934091702E+02  0.11921554311E+04  0.11933929155E+04  0.00000000000E+00 0. -1.
         22    1    3    3    0    0  0.41486280448E+02  0.10742659089E+03 -0.89385105747E+02  0.14577819118E+03  0.00000000000E+00 0. -1.
         22    1    3    3    0    0  0.23318544970E+02 -0.17880149099E+02 -0.11181697131E+03  0.11561353443E+03  0.00000000000E+00 0. -1.
</event>
<event>
 7    1  0.6188600E-006  0.3355684E+03  0.7818608E-02  0.1183939E+00
          2   -1    0    0  502    0  0.00000000000E+00  0.00000000000E+00  0.80739432862E+03  0.80739432862E+03  0.00000000000E+00 0. -1.
          1   -1    0    0  501    0 -0.00000000000E+00 -0.00000000000E+00 -0.75630219609E+03  0.75630219609E+03  0.00000000000E+00 0. -1.
         25    2    1    2    0    0 -0.10206565934E+03 -0.38332804446E+03  0.63795360775E+02  0.42077529695E+03  0.12499685590E+03 0.  0.
          2    1    1    2  501    0  0.52406290275E+02  0.32005631277E+03 -0.52894255412E+03  0.62045361484E+03  0.00000000000E+00 0. -1.
          1    1    1    2  502    0  0.49659369061E+02  0.63271731684E+02  0.51623932588E+03  0.52246761292E+03  0.00000000000E+00 0. -1.
         22    1    3    3    0    0 -0.87358857134E+02 -0.11372008169E+03  0.30031341245E+00  0.14340124507E+03  0.00000000000E+00 0. -1.
         22    1    3    3    0    0 -0.14706802203E+02 -0.26960796276E+03  0.63495047363E+02  0.27737405188E+03  0.00000000000E+00 0. -1.
</event>
<event>
 7    1  0.6188600E-006  0.6426391E+02  0.7818608E-02  0.1456653E+00
          2   -1    0    0  502    0  0.00000000000E+00  0.00000000000E+00  0.10285367618E+04  0.10285367618E+04  0.00000000000E+00 0. -1.
          1   -1    0    0  501    0 -0.00000000000E+00 -0.00000000000E+00 -0.48849116576E+03  0.48849116576E+03  0.00000000000E+00 0. -1.
         25    2    1    2    0    0  0.24025792607E+02 -0.93528506957E+02 -0.21501225403E+03  0.26679565008E+03  0.12499931678E+03 0.  0.
          2    1    1    2  501    0  0.35386559408E+01  0.35620426595E+02 -0.24526109719E+03  0.24785952205E+03  0.00000000000E+00 0. -1.
          1    1    1    2  502    0 -0.27564448548E+02  0.57908080362E+02  0.10003189473E+04  0.10023727555E+04  0.00000000000E+00 0. -1.
         22    1    3    3    0    0 -0.36795211917E+02 -0.46321883299E+02 -0.16424345606E+03  0.17457238427E+03  0.00000000000E+00 0. -1.
         22    1    3    3    0    0  0.60821004525E+02 -0.47206623658E+02 -0.50768797967E+02  0.92223265804E+02  0.00000000000E+00 0. -1.
</event>
<event>
 7    1  0.6188600E-006  0.2125725E+03  0.7818608E-02  0.1291575E+00
          2   -1    0    0  502    0  0.00000000000E+00  0.00000000000E+00  0.49473750271E+03  0.49473750271E+03  0.00000000000E+00 0. -1.
          1   -1    0    0  501    0 -0.00000000000E+00 -0.00000000000E+00 -0.54272379190E+03  0.54272379190E+03  0.00000000000E+00 0. -1.
         25    2    1    2    0    0 -0.22114848591E+03  0.46159061917E+02 -0.38618707541E+03  0.46454508112E+03  0.12499745339E+03 0.  0.
          2    1    1    2  501    0  0.17950298449E+03 -0.53561433702E+02 -0.40673173215E+02  0.19168843377E+03  0.00000000000E+00 0. -1.
          1    1    1    2  502    0  0.41645501416E+02  0.74023717842E+01  0.37887395944E+03  0.38122777973E+03  0.00000000000E+00 0. -1.
         22    1    3    3    0    0 -0.13977380656E+03 -0.19191309012E+02 -0.14787872516E+03  0.20438478588E+03  0.00000000000E+00 0. -1.
         22    1    3    3    0    0 -0.81374679349E+02  0.65350370929E+02 -0.23830835025E+03  0.26016029524E+03  0.00000000000E+00 0. -1.
</event>
<event>
 7    1  0.6188600E-006  0.4870841E+02  0.7818608E-02  0.1555444E+00
          2   -1    0    0  502    0  0.00000000000E+00  0.00000000000E+00  0.14320872095E+03  0.14320872095E+03  0.00000000000E+00 0. -1.
          1   -1    0    0  501    0 -0.00000000000E+00 -0.00000000000E+00 -0.56374709314E+03  0.56374709314E+03  0.00000000000E+00 0. -1.
         25    2    1    2    0    0 -0.51606991803E+02 -0.14754420267E+02 -0.15581569174E+03  0.20684266151E+03  0.12499752921E+03 0.  0.
          2    1    1    2  501    0  0.35879418753E+02  0.32976845650E+02 -0.37961308770E+03  0.38272823439E+03  0.00000000000E+00 0. -1.
          1    1    1    2  502    0  0.15727573049E+02 -0.18222425383E+02  0.11489040726E+03  0.11738491820E+03  0.00000000000E+00 0. -1.
         22    1    3    3    0    0 -0.87261031517E+02  0.16267024240E+02 -0.10285381322E+03  0.13586026127E+03  0.00000000000E+00 0. -1.
         22    1    3    3    0    0  0.35654039714E+02 -0.31021444508E+02 -0.52961878518E+02  0.70982400237E+02  0.00000000000E+00 0. -1.
</event>
<event>
 7    1  0.6188600E-006  0.1074710E+03  0.7818608E-02  0.1428116E+00
          2   -1    0    0  502    0  0.00000000000E+00  0.00000000000E+00  0.30603291649E+03  0.30603291649E+03  0.00000000000E+00 0. -1.
          1   -1    0    0  501    0 -0.00000000000E+00 -0.00000000000E+00 -0.11104934924E+03  0.11104934924E+03  0.00000000000E+00 0. -1.
         25    2    1    2    0    0 -0.73870016357E+01  0.92422176805E+02  0.13833673452E+03  0.20822740260E+03  0.12500069007E+03 0.  0.
          2    1    1    2  501    0 -0.49351829446E+01  0.26009741966E+02 -0.45058395080E+02  0.52260134664E+02  0.00000000000E+00 0. -1.
          1    1    1    2  502    0  0.12322184580E+02 -0.11843191877E+03  0.10170522781E+03  0.15659472846E+03  0.00000000000E+00 0. -1.
         22    1    3    3    0    0 -0.25824602739E+02 -0.24386366732E+02  0.19247768157E+02  0.40399029296E+02  0.00000000000E+00 0. -1.
         22    1    3    3    0    0  0.18437601103E+02  0.11680854354E+03  0.11908896636E+03  0.16782837330E+03  0.00000000000E+00 0. -1.
</event>
<event>
 7    1  0.6188600E-006  0.4426179E+02  0.7818608E-02  0.1546376E+00
          2   -1    0    0  502    0  0.00000000000E+00  0.00000000000E+00  0.90470762583E+03  0.90470762583E+03  0.00000000000E+00 0. -1.
          1   -1    0    0  501    0 -0.00000000000E+00 -0.00000000000E+00 -0.34853188790E+03  0.34853188790E+03  0.00000000000E+00 0. -1.
         25    2    1    2    0    0  0.18011006613E+02  0.15951377707E+02  0.44771942716E+02  0.13494474814E+03  0.12500686136E+03 0.  0.
          2    1    1    2  501    0 -0.11380449109E+02 -0.43233090144E+02 -0.30155523688E+03  0.30485107117E+03  0.00000000000E+00 0. -1.
          1    1    1    2  502    0 -0.66305575039E+01  0.27281712437E+02  0.81295903209E+03  0.81344369442E+03  0.00000000000E+00 0. -1.
         22    1    3    3    0    0 -0.30263039899E+02 -0.25445796806E+02  0.57800779589E+02  0.70030495359E+02  0.00000000000E+00 0.  1.
         22    1    3    3    0    0  0.48274046513E+02  0.41397174513E+02 -0.13028836873E+02  0.64914252785E+02  0.00000000000E+00 0.  1.
</event>
<event>
 7    1  0.6188600E-006  0.8454033E+02  0.7818608E-02  0.1397582E+00
          2   -1    0    0  502    0  0.00000000000E+00  0.00000000000E+00  0.14911845630E+04  0.14911845630E+04  0.00000000000E+00 0. -1.
          1   -1    0    0  501    0 -0.00000000000E+00 -0.00000000000E+00 -0.54490844399E+03  0.54490844399E+03  0.00000000000E+00 0. -1.
         25    2    1    2    0    0  0.17109252382E+02 -0.47842950017E+02  0.29997375271E+03  0.32892424824E+03  0.12500093753E+03 0.  0.
          2    1    1    2  501    0 -0.57000328986E+02  0.62983632574E+02 -0.52664182590E+03  0.53344876817E+03  0.00000000000E+00 0. -1.
          1    1    1    2  502    0  0.39891076604E+02 -0.15140682557E+02  0.11729441922E+04  0.11737199906E+04  0.00000000000E+00 0. -1.
         22    1    3    3    0    0 -0.12482763207E+02 -0.75655916263E+02  0.26318512078E+03  0.27412778926E+03  0.00000000000E+00 0.  1.
         22    1    3    3    0    0  0.29592015589E+02  0.27812966246E+02  0.36788631934E+02  0.54796458988E+02  0.00000000000E+00 0.  1.
</event>
<event>
 7    1  0.6188600E-006  0.3614901E+02  0.7818608E-02  0.1548466E+00
          2   -1    0    0  502    0  0.00000000000E+00  0.00000000000E+00  0.97762444205E+03  0.97762444205E+03  0.00000000000E+00 0. -1.
          1   -1    0    0  501    0 -0.00000000000E+00 -0.00000000000E+00 -0.23506555390E+03  0.23506555390E+03  0.00000000000E+00 0. -1.
         25    2    1    2    0    0 -0.42194354500E+02 -0.55079325557E+02  0.16669955385E+03  0.21960777786E+03  0.12499895675E+03 0.  0.
          2    1    1    2  501    0  0.22529079756E+02  0.25353452283E+02 -0.20682461125E+03  0.20958715800E+03  0.00000000000E+00 0. -1.
          1    1    1    2  502    0  0.19665274745E+02  0.29725873274E+02  0.78268394555E+03  0.78349506009E+03  0.00000000000E+00 0. -1.
         22    1    3    3    0    0 -0.66653162698E+02 -0.15081375957E+02  0.29164143349E+02  0.74301004406E+02  0.00000000000E+00 0. -1.
         22    1    3    3    0    0  0.24458808198E+02 -0.39997949600E+02  0.13753541050E+03  0.14530677346E+03  0.00000000000E+00 0. -1.
</event>
<event>
 7    1  0.6188600E-006  0.2375131E+02  0.7818608E-02  0.1700634E+00
          2   -1    0    0  502    0  0.00000000000E+00  0.00000000000E+00  0.15792942450E+04  0.15792942450E+04  0.00000000000E+00 0. -1.
          1   -1    0    0  501    0 -0.00000000000E+00 -0.00000000000E+00 -0.80045726522E+02  0.80045726522E+02  0.00000000000E+00 0. -1.
         25    2    1    2    0    0  0.13262656184E+01 -0.77089477369E+01  0.26170319499E+03  0.29012744512E+03  0.12499674111E+03 0.  0.
          2    1    1    2  501    0 -0.22538942752E+02  0.79749787031E+01 -0.63573639013E+02  0.67920628701E+02  0.00000000000E+00 0. -1.
          1    1    1    2  502    0  0.21212677134E+02 -0.26603096618E+00  0.13011189625E+04  0.13012918977E+04  0.00000000000E+00 0. -1.
         22    1    3    3    0    0  0.14241249444E+02 -0.56389085063E+02  0.65641562758E+02  0.87700381193E+02  0.00000000000E+00 0. -1.
         22    1    3    3    0    0 -0.12914983826E+02  0.48680137326E+02  0.19606163223E+03  0.20242706393E+03  0.00000000000E+00 0. -1.
</event>
<event>
 7    1  0.6188600E-006  0.3381218E+02  0.7818608E-02  0.1627568E+00
          2   -1    0    0  502    0  0.00000000000E+00  0.00000000000E+00  0.94170623060E+03  0.94170623060E+03  0.00000000000E+00 0. -1.
          1   -1    0    0  501    0 -0.00000000000E+00 -0.00000000000E+00 -0.53315119115E+02  0.53315119115E+02  0.00000000000E+00 0. -1.
         25    2    1    2    0    0 -0.18942959133E+02 -0.32037963365E+02  0.46171914519E+03  0.47978630008E+03  0.12500023166E+03 0.  0.
          2    1    1    2  501    0  0.22280350435E+02 -0.18381343804E+01 -0.40801014511E+02  0.46524354252E+02  0.00000000000E+00 0. -1.
          1    1    1    2  502    0 -0.33373913021E+01  0.33876097745E+02  0.46747298081E+03  0.46871069539E+03  0.00000000000E+00 0. -1.
         22    1    3    3    0    0 -0.44789357512E+02 -0.64079388961E+02  0.19804684315E+03  0.21291971895E+03  0.00000000000E+00 0.  1.
         22    1    3    3    0    0  0.25846398379E+02  0.32041425596E+02  0.26367230204E+03  0.26686658113E+03  0.00000000000E+00 0.  1.
</event>
<event>
 7    1  0.6188600E-006  0.5080941E+02  0.7818608E-02  0.1488788E+00
          2   -1    0    0  502    0  0.00000000000E+00  0.00000000000E+00  0.32951018168E+03  0.32951018168E+03  0.00000000000E+00 0. -1.
          1   -1    0    0  501    0 -0.00000000000E+00 -0.00000000000E+00 -0.72651058717E+03  0.72651058717E+03  0.00000000000E+00 0. -1.
         25    2    1    2    0    0  0.15411885205E+02 -0.15400388116E+01  0.33344784961E+02  0.13029569180E+03  0.12500077876E+03 0.  0.
          2    1    1    2  501    0 -0.51159701542E+02 -0.26842595284E+01 -0.67575258755E+03  0.67769172925E+03  0.00000000000E+00 0. -1.
          1    1    1    2  502    0  0.35747816337E+02  0.42242983400E+01  0.24540739710E+03  0.24803334780E+03  0.00000000000E+00 0. -1.
         22    1    3    3    0    0  0.36903461435E+02 -0.50572053161E+02  0.42928284182E+02  0.75909390787E+02  0.00000000000E+00 0. -1.
         22    1    3    3    0    0 -0.21491576230E+02  0.49032014349E+02 -0.95834992210E+01  0.54386301008E+02  0.00000000000E+00 0. -1.
</event>
<event>
 7    1  0.6188600E-006  0.9154412E+02  0.7818608E-02  0.1367664E+00
          2   -1    0    0  502    0  0.00000000000E+00  0.00000000000E+00  0.22292210558E+04  0.22292210558E+04  0.00000000000E+00 0. -1.
          1   -1    0    0  501    0 -0.00000000000E+00 -0.00000000000E+00 -0.48272728865E+03  0.48272728865E+03  0.00000000000E+00 0. -1.
         25    2    1    2    0    0  0.95184871096E+02 -0.62584070578E+02  0.29658518580E+03  0.34141555102E+03  0.12499952187E+03 0.  0.
          2    1    1    2  501    0 -0.47912655680E+02 -0.15132471083E+02 -0.45785402033E+03  0.46060277701E+03  0.00000000000E+00 0. -1.
          1    1    1    2  502    0 -0.47272215415E+02  0.77716541661E+02  0.19077626017E+04  0.19099300164E+04  0.00000000000E+00 0. -1.
         22    1    3    3    0    0  0.49746996697E+02 -0.98557915462E+02  0.20949140144E+03  0.23680176025E+03  0.00000000000E+00 0.  1.
         22    1    3    3    0    0  0.45437874399E+02  0.35973844883E+02  0.87093784359E+02  0.10461379077E+03  0.00000000000E+00 0.  1.
</event>
<event>
 7    1  0.6188600E-006  0.9039488E+02  0.7818608E-02  0.1308622E+00
          2   -1    0    0  502    0  0.00000000000E+00  0.00000000000E+00  0.21802915582E+03  0.21802915582E+03  0.00000000000E+00 0. -1.
          1   -1    0    0  501    0 -0.00000000000E+00 -0.00000000000E+00 -0.42129187933E+03  0.42129187933E+03  0.00000000000E+00 0. -1.
         25    2    1    2    0    0  0.12333858686E+00  0.13364755072E+02 -0.10055797510E+03  0.16098247295E+03  0.12499927339E+03 0.  0.
          2    1    1    2  501    0  0.13251504244E+02  0.83966358592E+02 -0.27069529215E+03  0.28372855502E+03  0.00000000000E+00 0. -1.
          1    1    1    2  502    0 -0.13374842831E+02 -0.97331113664E+02  0.16799054375E+03  0.19461000719E+03  0.00000000000E+00 0. -1.
         22    1    3    3    0    0 -0.56846171933E+02  0.18017001268E+02 -0.80971064339E+02  0.10056049353E+03  0.00000000000E+00 0.  1.
         22    1    3    3    0    0  0.56969510520E+02 -0.46522461959E+01 -0.19586910766E+02  0.60421979419E+02  0.00000000000E+00 0.  1.
</event>
<event>
 7    1  0.6188600E-006  0.4001973E+02  0.7818608E-02  0.1528286E+00
          2   -1    0    0  502    0  0.00000000000E+00  0.00000000000E+00  0.14703516892E+03  0.14703516892E+03  0.00000000000E+00 0. -1.
          1   -1    0    0  501    0 -0.00000000000E+00 -0.00000000000E+00 -0.13069526409E+04  0.13069526409E+04  0.00000000000E+00 0. -1.
         25    2    1    2    0    0  0.55793127701E+02 -0.49567242618E+02 -0.51135614183E+02  0.15430527841E+03  0.12500193306E+03 0.  0.
          2    1    1    2  501    0 -0.31087074678E+02  0.24850873252E+02 -0.12006926413E+04  0.12013520678E+04  0.00000000000E+00 0. -1.
          1    1    1    2  502    0 -0.24706053022E+02  0.24716369366E+02  0.91910783409E+02  0.98330463629E+02  0.00000000000E+00 0. -1.
         22    1    3    3    0    0  0.76124747984E+02 -0.61002624172E+02 -0.73382412186E+02  0.12207078205E+03  0.00000000000E+00 0. -1.
         22    1    3    3    0    0 -0.20331620283E+02  0.11435381553E+02  0.22246798004E+02  0.32234496367E+02  0.00000000000E+00 0. -1.
</event>
<event>
 7    1  0.6188600E-006  0.7100439E+02  0.7818608E-02  0.1460561E+00
          2   -1    0    0  502    0  0.00000000000E+00  0.00000000000E+00  0.10410241458E+04  0.10410241458E+04  0.00000000000E+00 0. -1.
          1   -1    0    0  501    0 -0.00000000000E+00 -0.00000000000E+00 -0.11483397628E+04  0.11483397628E+04  0.00000000000E+00 0. -1.
         25    2    1    2    0    0  0.97356279404E+02 -0.24397192499E+02  0.51714693008E+02  0.16844270277E+03  0.12500026601E+03 0.  0.
          2    1    1    2  501    0 -0.31487604830E+02 -0.30931027134E+00 -0.10884186764E+04  0.10888740883E+04  0.00000000000E+00 0. -1.
          1    1    1    2  502    0 -0.65868674574E+02  0.24706502770E+02  0.92938836644E+03  0.93204711750E+03  0.00000000000E+00 0. -1.
         22    1    3    3    0    0  0.10466011860E+03  0.22859565229E+02  0.55172052457E+02  0.12050002291E+03  0.00000000000E+00 0. -1.
         22    1    3    3    0    0 -0.73038391987E+01 -0.47256757728E+02 -0.34573594494E+01  0.47942679862E+02  0.00000000000E+00 0. -1.
</event>
<event>
 7    1  0.6188600E-006  0.1807120E+03  0.7818608E-02  0.1207188E+00
          2   -1    0    0  502    0  0.00000000000E+00  0.00000000000E+00  0.20657673542E+04  0.20657673542E+04  0.00000000000E+00 0. -1.
          1   -1    0    0  501    0 -0.00000000000E+00 -0.00000000000E+00 -0.72166051886E+03  0.72166051886E+03  0.00000000000E+00 0. -1.
         25    2    1    2    0    0  0.27486934995E+03  0.10693271249E+03 -0.37320361487E+03  0.49182638496E+03  0.12499796098E+03 0.  0.
          2    1    1    2  501    0 -0.11072252682E+03 -0.33933929231E+02 -0.27334079487E+03  0.29686053904E+03  0.00000000000E+00 0. -1.
          1    1    1    2  502    0 -0.16414682313E+03 -0.72998783258E+02  0.19906512451E+04  0.19987409491E+04  0.00000000000E+00 0. -1.
         22    1    3    3    0    0  0.22572222866E+03  0.28152191879E+02 -0.26646621696E+03  0.35035312929E+03  0.00000000000E+00 0.  1.
         22    1    3    3    0    0  0.49147121284E+02  0.78780520610E+02 -0.10673739791E+03  0.14147325567E+03  0.00000000000E+00 0.  1.
</event>
<event>
 7    1  0.6188600E-006  0.1064327E+03  0.7818608E-02  0.1360945E+00
          2   -1    0    0  502    0  0.00000000000E+00  0.00000000000E+00  0.38896974831E+03  0.38896974831E+03  0.00000000000E+00 0. -1.
          1   -1    0    0  501    0 -0.00000000000E+00 -0.00000000000E+00 -0.10579136257E+04  0.10579136257E+04  0.00000000000E+00 0. -1.
         25    2    1    2    0    0 -0.63185633140E+02 -0.10571807643E+03  0.11418018253E+03  0.20935923815E+03  0.12500176237E+03 0.  0.
          2    1    1    2  501    0  0.45586316117E+02  0.33658397233E+01 -0.99790543955E+03  0.99895180433E+03  0.00000000000E+00 0. -1.
          1    1    1    2  502    0  0.17599317024E+02  0.10235223671E+03  0.21478137965E+03  0.23857233151E+03  0.00000000000E+00 0. -1.
         22    1    3    3    0    0  0.18487523754E+02 -0.90308276635E+02  0.64865712595E+02  0.11271616581E+03  0.00000000000E+00 0.  1.
         22    1    3    3    0    0 -0.81673156894E+02 -0.15409799795E+02  0.49314469936E+02  0.96643072343E+02  0.00000000000E+00 0.  1.
</event>
<event>
 7    1  0.6188600E-006  0.1823473E+03  0.7818608E-02  0.1238848E+00
          2   -1    0    0  502    0  0.00000000000E+00  0.00000000000E+00  0.60797161674E+03  0.60797161674E+03  0.00000000000E+00 0. -1.
          1   -1    0    0  501    0 -0.00000000000E+00 -0.00000000000E+00 -0.18261260008E+03  0.18261260008E+03  0.00000000000E+00 0. -1.
         25    2    1    2    0    0  0.30072469770E+02 -0.14495418467E+03  0.18543283705E+03  0.26819284076E+03  0.12500397468E+03 0.  0.
          2    1    1    2  501    0 -0.50924381000E+02 -0.64838987434E+02 -0.95528761647E+02  0.12618688986E+03  0.00000000000E+00 0. -1.
          1    1    1    2  502    0  0.20851911230E+02  0.20979317211E+03  0.33545494126E+03  0.39620448620E+03  0.00000000000E+00 0. -1.
         22    1    3    3    0    0  0.21022107602E+02 -0.10909836421E+03  0.19972348609E+03  0.22854726640E+03  0.00000000000E+00 0.  1.
         22    1    3    3    0    0  0.90503621681E+01 -0.35855820460E+02 -0.14290649043E+02  0.39645574360E+02  0.00000000000E+00 0.  1.
</event>
<event>
 7    1  0.6188600E-006  0.1187926E+03  0.7818608E-02  0.1310915E+00
          2   -1    0    0  502    0  0.00000000000E+00  0.00000000000E+00  0.12676454616E+03  0.12676454616E+03  0.00000000000E+00 0. -1.
          1   -1    0    0  501    0 -0.00000000000E+00 -0.00000000000E+00 -0.19493360179E+04  0.19493360179E+04  0.00000000000E+00 0. -1.
         25    2    1    2    0    0  0.16257026200E+03  0.60475115929E+02 -0.20581291782E+03  0.29676552861E+03  0.12499796838E+03 0.  0.
          2    1    1    2  501    0 -0.61261242812E+02 -0.16143468603E+02 -0.16595512590E+04  0.16607600467E+04  0.00000000000E+00 0. -1.
          1    1    1    2  502    0 -0.10130901919E+03 -0.44331647326E+02  0.42792705163E+02  0.11857498867E+03  0.00000000000E+00 0. -1.
         22    1    3    3    0    0  0.99360910676E+02  0.91468622523E+02 -0.17195009465E+03  0.21864568262E+03  0.00000000000E+00 0.  1.
         22    1    3    3    0    0  0.63209351324E+02 -0.30993506593E+02 -0.33862823164E+02  0.78119845996E+02  0.00000000000E+00 0.  1.
</event>
<event>
 7    1  0.6188600E-006  0.8126447E+02  0.7818608E-02  0.1368018E+00
          2   -1    0    0  502    0  0.00000000000E+00  0.00000000000E+00  0.26920459649E+03  0.26920459649E+03  0.00000000000E+00 0. -1.
          1   -1    0    0  501    0 -0.00000000000E+00 -0.00000000000E+00 -0.29472865294E+04  0.29472865294E+04  0.00000000000E+00 0. -1.
         25    2    1    2    0    0  0.10428174004E+03  0.59800136287E+02 -0.11446656200E+04  0.11577284785E+04  0.12500044288E+03 0.  0.
          2    1    1    2  501    0 -0.23625990544E+02 -0.51251932358E+02 -0.17893729546E+04  0.17902626955E+04  0.00000000000E+00 0. -1.
          1    1    1    2  502    0 -0.80655749496E+02 -0.85482039300E+01  0.25595664174E+03  0.26849995190E+03  0.00000000000E+00 0. -1.
         22    1    3    3    0    0  0.49802437438E+01  0.40159890659E+02 -0.95892230544E+02  0.10408140816E+03  0.00000000000E+00 0. -1.
         22    1    3    3    0    0  0.99301496297E+02  0.19640245629E+02 -0.10487733895E+04  0.10536470704E+04  0.00000000000E+00 0. -1.
</event>
<event>
 7    1  0.7919279E-006  0.1244070E+03  0.7818608E-02  0.1305012E+00
          2   -1    0    0  502    0  0.00000000000E+00  0.00000000000E+00  0.99827754291E+03  0.99827754291E+03  0.00000000000E+00 0. -1.
          1   -1    0    0  501    0 -0.00000000000E+00 -0.00000000000E+00 -0.14050663097E+04  0.14050663097E+04  0.00000000000E+00 0. -1.
         25    2    1    2    0    0  0.41809625155E+02  0.60512418077E+02 -0.28934180402E+03  0.32365698560E+03  0.12500146909E+03 0.  0.
          2    1    1    2  501    0 -0.71424625754E+02 -0.11705951200E+03 -0.10932407345E+04  0.11018074742E+04  0.00000000000E+00 0. -1.
          1    1    1    2  502    0  0.29615000599E+02  0.56547093928E+02  0.97579377172E+03  0.97787939288E+03  0.00000000000E+00 0. -1.
         22    1    3    3    0    0  0.70131529181E+02  0.45587470125E+01 -0.87116879218E+02  0.11193106899E+03  0.00000000000E+00 0.  1.
         22    1    3    3    0    0 -0.28321904026E+02  0.55953671064E+02 -0.20222492480E+03  0.21172591661E+03  0.00000000000E+00 0.  1.
</event>
<event>
 7    1  0.6188600E-006  0.1069832E+03  0.7818608E-02  0.1341460E+00
          2   -1    0    0  502    0  0.00000000000E+00  0.00000000000E+00  0.86611281657E+03  0.86611281657E+03  0.00000000000E+00 0. -1.
          1   -1    0    0  501    0 -0.00000000000E+00 -0.00000000000E+00 -0.46946687379E+03  0.46946687379E+03  0.00000000000E+00 0. -1.
         25    2    1    2    0    0 -0.50620365764E+02  0.12914670642E+03 -0.21850968060E+02  0.18800062938E+03  0.12500191452E+03 0.  0.
          2    1    1    2  501    0  0.69108627525E+02 -0.78747528480E+02 -0.35606470689E+03  0.37115933389E+03  0.00000000000E+00 0. -1.
          1    1    1    2  502    0 -0.18488261761E+02 -0.50399177939E+02  0.77456161773E+03  0.77641972709E+03  0.00000000000E+00 0. -1.
         22    1    3    3    0    0  0.15942576514E+02  0.77560820070E+02  0.34814956204E+02  0.86498137155E+02  0.00000000000E+00 0.  1.
         22    1    3    3    0    0 -0.66562942277E+02  0.51585886349E+02 -0.56665924264E+02  0.10150249222E+03  0.00000000000E+00 0.  1.
</event>
<event>
 7    1  0.6188600E-006  0.5062247E+02  0.7818608E-02  0.1486093E+00
          2   -1    0    0  502    0  0.00000000000E+00  0.00000000000E+00  0.75792197918E+03  0.75792197918E+03  0.00000000000E+00 0. -1.
          1   -1    0    0  501    0 -0.00000000000E+00 -0.00000000000E+00 -0.31993726816E+02  0.31993726816E+02  0.00000000000E+00 0. -1.
         25    2    1    2    0    0 -0.40667239785E+02  0.98367426331E+01  0.19260722507E+03  0.23339632942E+03  0.12500287014E+03 0.  0.
          2    1    1    2  501    0  0.13326692934E+02  0.34319815375E+02  0.22674726053E+02  0.43238798243E+02  0.00000000000E+00 0. -1.
          1    1    1    2  502    0  0.27340546851E+02 -0.44156558008E+02  0.51064630125E+03  0.51328057834E+03  0.00000000000E+00 0. -1.
         22    1    3    3    0    0  0.22285279531E+02 -0.20217016737E+02  0.14700970348E+03  0.15005737025E+03  0.00000000000E+00 0.  1.
         22    1    3    3    0    0 -0.62952519316E+02  0.30053759370E+02  0.45597521583E+02  0.83338959167E+02  0.00000000000E+00 0.  1.
</event>
<event>
 7    1  0.6188600E-006  0.7631620E+02  0.7818608E-02  0.1352451E+00
          2   -1    0    0  502    0  0.00000000000E+00  0.00000000000E+00  0.14342309522E+04  0.14342309522E+04  0.00000000000E+00 0. -1.
          1   -1    0    0  501    0 -0.00000000000E+00 -0.00000000000E+00 -0.62916562124E+02  0.62916562124E+02  0.00000000000E+00 0. -1.
         25    2    1    2    0    0  0.60017580669E+02  0.87633860860E+02  0.11955500220E+03  0.20298173528E+03  0.12500553087E+03 0.  0.
          2    1    1    2  501    0  0.63241495244E+01 -0.70616086869E+02  0.41869329007E+02  0.82338735133E+02  0.00000000000E+00 0. -1.
          1    1    1    2  502    0 -0.66341730194E+02 -0.17017773991E+02  0.12098900589E+04  0.12118270439E+04  0.00000000000E+00 0. -1.
         22    1    3    3    0    0  0.99138977716E+02  0.67478924593E+02  0.84215710098E+02  0.14654087482E+03  0.00000000000E+00 0.  1.
         22    1    3    3    0    0 -0.39121397047E+02  0.20154936266E+02  0.35339292099E+02  0.56440860455E+02  0.00000000000E+00 0.  1.
</event>
<event>
 7    1  0.6188600E-006  0.1171859E+03  0.7818608E-02  0.1249796E+00
          2   -1    0    0  502    0  0.00000000000E+00  0.00000000000E+00  0.90172493545E+03  0.90172493545E+03  0.00000000000E+00 0. -1.
          1   -1    0    0  501    0 -0.00000000000E+00 -0.00000000000E+00 -0.48751606589E+03  0.48751606589E+03  0.00000000000E+00 0. -1.
         25    2    1    2    0    0  0.51194237321E+01  0.10456677727E+03  0.41236891043E+03  0.44343391004E+03  0.12500037950E+03 0.  0.
          2    1    1    2  501    0  0.10128384030E+03 -0.61247534548E+02 -0.45737379850E+03  0.47244096811E+03  0.00000000000E+00 0. -1.
          1    1    1    2  502    0 -0.10640326403E+03 -0.43319242718E+02  0.45921375764E+03  0.47336612320E+03  0.00000000000E+00 0. -1.
         22    1    3    3    0    0  0.41783820426E+01 -0.27873736889E+02  0.47032490428E+02  0.54831188575E+02  0.00000000000E+00 0.  1.
         22    1    3    3    0    0  0.94104168952E+00  0.13244051416E+03  0.36533642000E+03  0.38860272146E+03  0.00000000000E+00 0.  1.
</event>
<event>
 7    1  0.6188600E-006  0.1043418E+03  0.7818608E-02  0.1289253E+00
          2   -1    0    0  502    0  0.00000000000E+00  0.00000000000E+00  0.52852855154E+03  0.52852855154E+03  0.00000000000E+00 0. -1.
          1   -1    0    0  501    0 -0.00000000000E+00 -0.00000000000E+00 -0.15555394315E+04  0.15555394315E+04  0.00000000000E+00 0. -1.
         25    2    1    2    0    0  0.10622623400E+03 -0.14680523655E+03 -0.13007455482E+02  0.22052146672E+03  0.12499893246E+03 0.  0.
          2    1    1    2  501    0 -0.70622974997E+02  0.52611375668E+02 -0.14314347097E+04  0.14341411679E+04  0.00000000000E+00 0. -1.
          1    1    1    2  502    0 -0.35603259002E+02  0.94193860882E+02  0.41743128514E+03  0.42940534847E+03  0.00000000000E+00 0. -1.
         22    1    3    3    0    0  0.14862928522E+02 -0.51041707498E+02  0.50851118059E+02  0.73566288179E+02  0.00000000000E+00 0. -1.
         22    1    3    3    0    0  0.91363305477E+02 -0.95763529053E+02 -0.63858573541E+02  0.14695517854E+03  0.00000000000E+00 0. -1.
</event>
<event>
 7    1  0.6188600E-006  0.7185859E+02  0.7818608E-02  0.1446568E+00
          2   -1    0    0  502    0  0.00000000000E+00  0.00000000000E+00  0.24793356828E+03  0.24793356828E+03  0.00000000000E+00 0. -1.
          1   -1    0    0  501    0 -0.00000000000E+00 -0.00000000000E+00 -0.90715767511E+03  0.90715767511E+03  0.00000000000E+00 0. -1.
         25    2    1    2    0    0 -0.76936548243E+02 -0.70599680214E+02  0.65247720783E+02  0.17546074398E+03  0.12500264121E+03 0.  0.
          2    1    1    2  501    0  0.57938362616E+02  0.41830631538E+02 -0.84819179093E+03  0.85119678676E+03  0.00000000000E+00 0. -1.
          1    1    1    2  502    0  0.18998185627E+02  0.28769048676E+02  0.12371996332E+03  0.12843371264E+03  0.00000000000E+00 0. -1.
         22    1    3    3    0    0  0.25365247696E+02 -0.24160082480E+02 -0.14263184809E+02  0.37822530547E+02  0.00000000000E+00 0.  1.
         22    1    3    3    0    0 -0.10230179594E+03 -0.46439597734E+02  0.79510905592E+02  0.13763821344E+03  0.00000000000E+00 0.  1.
</event>
<event>
 7    1  0.6188600E-006  0.3286899E+02  0.7818608E-02  0.1574181E+00
          2   -1    0    0  502    0  0.00000000000E+00  0.00000000000E+00  0.18212327903E+04  0.18212327903E+04  0.00000000000E+00 0. -1.
          1   -1    0    0  501    0 -0.00000000000E+00 -0.00000000000E+00 -0.18656114943E+03  0.18656114943E+03  0.00000000000E+00 0. -1.
         25    2    1    2    0    0  0.33919075125E+01  0.13601427398E+00  0.28096094835E+03  0.30753007771E+03  0.12499668259E+03 0.  0.
          2    1    1    2  501    0  0.12412398593E+02  0.29168713674E+02 -0.17164357563E+03  0.17454626478E+03  0.00000000000E+00 0. -1.
          1    1    1    2  502    0 -0.15804306105E+02 -0.29304727948E+02  0.15253542681E+04  0.15257175972E+04  0.00000000000E+00 0. -1.
         22    1    3    3    0    0 -0.27417213665E+02  0.19406050763E+02  0.26619424721E+03  0.26830519126E+03  0.00000000000E+00 0. -1.
         22    1    3    3    0    0  0.30809121177E+02 -0.19270036489E+02  0.14766701146E+02  0.39224886446E+02  0.00000000000E+00 0. -1.
</event>
<event>
 7    1  0.6188600E-006  0.2939985E+02  0.7818608E-02  0.1630379E+00
          2   -1    0    0  502    0  0.00000000000E+00  0.00000000000E+00  0.21098413398E+02  0.21098413398E+02  0.00000000000E+00 0. -1.
          1   -1    0    0  501    0 -0.00000000000E+00 -0.00000000000E+00 -0.13712931872E+04  0.13712931872E+04  0.00000000000E+00 0. -1.
         25    2    1    2    0    0  0.29968890572E+02 -0.20632206164E+02 -0.84957735039E+03  0.85949428105E+03  0.12499969013E+03 0.  0.
          2    1    1    2  501    0 -0.29222551584E+02 -0.46523659358E+01 -0.50614137052E+03  0.50700561040E+03  0.00000000000E+00 0. -1.
          1    1    1    2  502    0 -0.74633898744E+00  0.25284572100E+02  0.55239471464E+01  0.25891709102E+02  0.00000000000E+00 0. -1.
         22    1    3    3    0    0  0.49769202417E+02 -0.15765724890E+02 -0.82859095505E+03  0.83023400459E+03  0.00000000000E+00 0. -1.
         22    1    3    3    0    0 -0.19800311845E+02 -0.48664812739E+01 -0.20986395337E+02  0.29260276458E+02  0.00000000000E+00 0. -1.
</event>
<event>
 7    1  0.6188600E-006  0.1217454E+03  0.7818608E-02  0.1271301E+00
          2   -1    0    0  502    0  0.00000000000E+00  0.00000000000E+00  0.14432360988E+04  0.14432360988E+04  0.00000000000E+00 0. -1.
          1   -1    0    0  501    0 -0.00000000000E+00 -0.00000000000E+00 -0.64134540994E+03  0.64134540994E+03  0.00000000000E+00 0. -1.
         25    2    1    2    0    0 -0.73196395378E+02 -0.75271126325E+00 -0.91060654819E+02  0.17110098196E+03  0.12500089721E+03 0.  0.
          2    1    1    2  501    0 -0.13249034660E+02  0.88544631497E+02 -0.50360420961E+03  0.51150062426E+03  0.00000000000E+00 0. -1.
          1    1    1    2  502    0  0.86445430037E+02 -0.87791920234E+02  0.13965555533E+04  0.14019799025E+04  0.00000000000E+00 0. -1.
         22    1    3    3    0    0  0.35695244177E+01  0.51653566822E+02 -0.36096447918E+02  0.63117240294E+02  0.00000000000E+00 0. -1.
         22    1    3    3    0    0 -0.76765919795E+02 -0.52406278086E+02 -0.54964206901E+02  0.10798374167E+03  0.00000000000E+00 0. -1.
</event>
<event>
 7    1  0.6188600E-006  0.1208327E+03  0.7818608E-02  0.1261433E+00
          2   -1    0    0  502    0  0.00000000000E+00  0.00000000000E+00  0.55980258832E+03  0.55980258832E+03  0.00000000000E+00 0. -1.
          1   -1    0    0  501    0 -0.00000000000E+00 -0.00000000000E+00 -0.98690565443E+03  0.98690565443E+03  0.00000000000E+00 0. -1.
         25    2    1    2    0    0  0.72347932889E+02 -0.30350822736E+02 -0.71106401086E+02  0.16382249417E+03  0.12500517384E+03 0.  0.
          2    1    1    2  501    0  0.36929370109E+02  0.92171525066E+02 -0.85886256100E+03  0.86458329101E+03  0.00000000000E+00 0. -1.
          1    1    1    2  502    0 -0.10927730300E+03 -0.61820702330E+02  0.50286589597E+03  0.51830245757E+03  0.00000000000E+00 0. -1.
         22    1    3    3    0    0  0.54297637665E+02 -0.47112674711E+02  0.15705666309E+02  0.73583323713E+02  0.00000000000E+00 0.  1.
         22    1    3    3    0    0  0.18050295224E+02  0.16761851975E+02 -0.86812067395E+02  0.90239170456E+02  0.00000000000E+00 0.  1.
</event>
<event>
 7    1  0.6188600E-006  0.4346171E+02  0.7818608E-02  0.1528039E+00
          2   -1    0    0  502    0  0.00000000000E+00  0.00000000000E+00  0.20481693324E+03  0.20481693324E+03  0.00000000000E+00 0. -1.
          1   -1    0    0  501    0 -0.00000000000E+00 -0.00000000000E+00 -0.10273538965E+04  0.10273538965E+04  0.00000000000E+00 0. -1.
         25    2    1    2    0    0  0.61518113230E+02  0.67267039051E+00  0.68641742075E+02  0.15531383861E+03  0.12500307584E+03 0.  0.
          2    1    1    2  501    0 -0.24492328775E+02 -0.20952901511E+02 -0.97893970601E+03  0.97947018650E+03  0.00000000000E+00 0. -1.
          1    1    1    2  502    0 -0.37025784456E+02  0.20280231120E+02  0.87761000634E+02  0.97386804656E+02  0.00000000000E+00 0. -1.
         22    1    3    3    0    0  0.12689357734E+02  0.56471992680E+02  0.58939595835E+01  0.58179416605E+02  0.00000000000E+00 0. -1.
         22    1    3    3    0    0  0.48828755497E+02 -0.55799322289E+02  0.62747782491E+02  0.97134422008E+02  0.00000000000E+00 0. -1.
</event>
<event>
 7    1  0.6188600E-006  0.2845218E+03  0.7818608E-02  0.1328172E+00
          2   -1    0    0  502    0  0.00000000000E+00  0.00000000000E+00  0.54756388889E+03  0.54756388889E+03  0.00000000000E+00 0. -1.
          1   -1    0    0  501    0 -0.00000000000E+00 -0.00000000000E+00 -0.13411562208E+04  0.13411562208E+04  0.00000000000E+00 0. -1.
         25    2    1    2    0    0  0.20818349494E+03 -0.20072515158E+03 -0.23145428739E+03  0.39093047920E+03  0.12499839349E+03 0.  0.
          2    1    1    2  501    0  0.10805973000E+02  0.19927587665E+02 -0.98672648222E+03  0.98698684313E+03  0.00000000000E+00 0. -1.
          1    1    1    2  502    0 -0.21898946794E+03  0.18079756392E+03  0.42458843767E+03  0.51080278738E+03  0.00000000000E+00 0. -1.
         22    1    3    3    0    0  0.19433104123E+03 -0.13382224397E+03 -0.13228295285E+03  0.27050272860E+03  0.00000000000E+00 0. -1.
         22    1    3    3    0    0  0.13852453718E+02 -0.66902907616E+02 -0.99171334542E+02  0.12042775061E+03  0.00000000000E+00 0. -1.
</event>
<event>
 7    1  0.6188600E-006  0.5709493E+02  0.7818608E-02  0.1508078E+00
          2   -1    0    0  502    0  0.00000000000E+00  0.00000000000E+00  0.17035544201E+04  0.17035544201E+04  0.00000000000E+00 0. -1.
          1   -1    0    0  501    0 -0.00000000000E+00 -0.00000000000E+00 -0.20443945261E+03  0.20443945261E+03  0.00000000000E+00 0. -1.
         25    2    1    2    0    0 -0.70429646786E+02  0.46756386796E+02  0.35088319622E+03  0.38195635220E+03  0.12500057099E+03 0.  0.
          2    1    1    2  501    0  0.45403914456E+02 -0.34089432377E+02 -0.18448575403E+03  0.19302486443E+03  0.00000000000E+00 0. -1.
          1    1    1    2  502    0  0.25025732330E+02 -0.12666954419E+02  0.13327175253E+04  0.13330126561E+04  0.00000000000E+00 0. -1.
         22    1    3    3    0    0 -0.87680233305E+02  0.74938042560E+02  0.24039591089E+03  0.26663407041E+03  0.00000000000E+00 0.  1.
         22    1    3    3    0    0  0.17250586519E+02 -0.28181655764E+02  0.11048728533E+03  0.11532228179E+03  0.00000000000E+00 0.  1.
</event>
<event>
 7    1  0.6188600E-006  0.1109273E+03  0.7818608E-02  0.1301898E+00
          2   -1    0    0  502    0  0.00000000000E+00  0.00000000000E+00  0.11939534979E+04  0.11939534979E+04  0.00000000000E+00 0. -1.
          1   -1    0    0  501    0 -0.00000000000E+00 -0.00000000000E+00 -0.54763884313E+03  0.54763884313E+03  0.00000000000E+00 0. -1.
         25    2    1    2    0    0  0.50709967429E+02 -0.16906378785E+03  0.35483225458E+03  0.41555377636E+03  0.12499978802E+03 0.  0.
          2    1    1    2  501    0 -0.29580708679E+02  0.67463123556E+02 -0.51129871541E+03  0.51657784287E+03  0.00000000000E+00 0. -1.
          1    1    1    2  502    0 -0.21129258750E+02  0.10160066429E+03  0.80278111564E+03  0.80946072183E+03  0.00000000000E+00 0. -1.
         22    1    3    3    0    0  0.30699310005E+01 -0.11080299564E+03  0.30695717455E+03  0.32635783326E+03  0.00000000000E+00 0. -1.
         22    1    3    3    0    0  0.47640036428E+02 -0.58260792206E+02  0.47875080024E+02  0.89195943107E+02  0.00000000000E+00 0. -1.
</event>
<event>
 7    1  0.6188600E-006  0.5879597E+02  0.7818608E-02  0.1411127E+00
          2   -1    0    0  502    0  0.00000000000E+00  0.00000000000E+00  0.16044441969E+04  0.16044441969E+04  0.00000000000E+00 0. -1.
          1   -1    0    0  501    0 -0.00000000000E+00 -0.00000000000E+00 -0.21733209534E+03  0.21733209534E+03  0.00000000000E+00 0. -1.
         25    2    1    2    0    0 -0.52412493445E+02 -0.71191491259E+02 -0.72205211853E+01  0.15325354051E+03  0.12497685328E+03 0.  0.
          2    1    1    2  501    0  0.55386284847E+02  0.16122999280E+02 -0.13050640677E+03  0.14268676835E+03  0.00000000000E+00 0. -1.
          1    1    1    2  502    0 -0.29737914018E+01  0.55068491979E+02  0.15248390295E+04  0.15258359834E+04  0.00000000000E+00 0. -1.
         22    1    3    3    0    0 -0.46163063804E+02  0.27632775432E+02  0.17209430430E+01  0.53828992028E+02  0.00000000000E+00 0.  1.
         22    1    3    3    0    0 -0.62494296414E+01 -0.98824266691E+02 -0.89414642283E+01  0.99424548480E+02  0.00000000000E+00 0.  1.
</event>
<event>
 7    1  0.6188600E-006  0.1034731E+03  0.7818608E-02  0.1398122E+00
          2   -1    0    0  502    0  0.00000000000E+00  0.00000000000E+00  0.15924169170E+04  0.15924169170E+04  0.00000000000E+00 0. -1.
          1   -1    0    0  501    0 -0.00000000000E+00 -0.00000000000E+00 -0.49988746271E+03  0.49988746271E+03  0.00000000000E+00 0. -1.
         25    2    1    2    0    0  0.18366493751E+02 -0.85136055024E+02 -0.31543714548E+03  0.35030070655E+03  0.12499806520E+03 0.  0.
          2    1    1    2  501    0  0.34486705670E+02 -0.39445639011E+01 -0.16349142932E+03  0.16713569312E+03  0.00000000000E+00 0. -1.
          1    1    1    2  502    0 -0.52853199421E+02  0.89080618925E+02  0.15714580291E+04  0.15748679800E+04  0.00000000000E+00 0. -1.
         22    1    3    3    0    0 -0.42990981305E+02 -0.35845527115E+02 -0.55957961101E+02  0.79148087143E+02  0.00000000000E+00 0.  1.
         22    1    3    3    0    0  0.61357475056E+02 -0.49290527908E+02 -0.25947918438E+03  0.27115261941E+03  0.00000000000E+00 0.  1.
</event>
<event>
 7    1  0.6188600E-006  0.5543276E+02  0.7818608E-02  0.1425315E+00
          2   -1    0    0  502    0  0.00000000000E+00  0.00000000000E+00  0.95204925782E+02  0.95204925782E+02  0.00000000000E+00 0. -1.
          1   -1    0    0  501    0 -0.00000000000E+00 -0.00000000000E+00 -0.73078267939E+03  0.73078267939E+03  0.00000000000E+00 0. -1.
         25    2    1    2    0    0  0.59870315916E+02  0.14241038194E+02 -0.17633732752E+03  0.22473774150E+03  0.12499974992E+03 0.  0.
          2    1    1    2  501    0 -0.36892652448E+02  0.37258159503E+02 -0.51751062583E+03  0.52016005815E+03  0.00000000000E+00 0. -1.
          1    1    1    2  502    0 -0.22977663469E+02 -0.51499197698E+02  0.58270199739E+02  0.81089805522E+02  0.00000000000E+00 0. -1.
         22    1    3    3    0    0  0.21606416405E+02 -0.15560050665E+01  0.16674368238E+02  0.27336659229E+02  0.00000000000E+00 0.  1.
         22    1    3    3    0    0  0.38263899511E+02  0.15797043261E+02 -0.19301169576E+03  0.19740108227E+03  0.00000000000E+00 0.  1.
</event>
<event>
 7    1  0.6188600E-006  0.8216808E+02  0.7818608E-02  0.1384657E+00
          2   -1    0    0  502    0  0.00000000000E+00  0.00000000000E+00  0.50246870834E+03  0.50246870834E+03  0.00000000000E+00 0. -1.
          1   -1    0    0  501    0 -0.00000000000E+00 -0.00000000000E+00 -0.25804478581E+03  0.25804478581E+03  0.00000000000E+00 0. -1.
         25    2    1    2    0    0  0.57241621936E+02  0.57946885095E+02  0.18249517760E+03  0.23572157866E+03  0.12500291208E+03 0.  0.
          2    1    1    2  501    0 -0.81211397397E+02 -0.15559003637E+02 -0.22190538895E+03  0.23681084288E+03  0.00000000000E+00 0. -1.
          1    1    1    2  502    0  0.23969775461E+02 -0.42387881458E+02  0.28383413388E+03  0.28798107261E+03  0.00000000000E+00 0. -1.
         22    1    3    3    0    0  0.89852562208E+02  0.16852348539E+02  0.84121001726E+02  0.12423295665E+03  0.00000000000E+00 0. -1.
         22    1    3    3    0    0 -0.32610940272E+02  0.41094536556E+02  0.98374175872E+02  0.11148862201E+03  0.00000000000E+00 0. -1.
</event>
<event>
 7    1  0.6188600E-006  0.2975587E+03  0.7818608E-02  0.1301629E+00
          2   -1    0    0  502    0  0.00000000000E+00  0.00000000000E+00  0.29050163065E+04  0.29050163065E+04  0.00000000000E+00 0. -1.
          1   -1    0    0  501    0 -0.00000000000E+00 -0.00000000000E+00 -0.90968475875E+02  0.90968475875E+02  0.00000000000E+00 0. -1.
         25    2    1    2    0    0 -0.26565128214E+03 -0.16871891077E+03  0.14671067137E+04  0.15056771854E+04  0.12500001085E+03 0.  0.
          2    1    1    2  501    0  0.25736468782E+03  0.14246664489E+03  0.23099352382E+03  0.37402050143E+03  0.00000000000E+00 0. -1.
          1    1    1    2  502    0  0.82865943184E+01  0.26252265877E+02  0.11159475931E+04  0.11162870956E+04  0.00000000000E+00 0. -1.
         22    1    3    3    0    0 -0.14246728514E+03 -0.15846816293E+03  0.10033887328E+04  0.10257670472E+04  0.00000000000E+00 0.  1.
         22    1    3    3    0    0 -0.12318399701E+03 -0.10250747835E+02  0.46371798092E+03  0.47991013823E+03  0.00000000000E+00 0.  1.
</event>
<event>
 7    1  0.6188600E-006  0.4290751E+02  0.7818608E-02  0.1507119E+00
          2   -1    0    0  502    0  0.00000000000E+00  0.00000000000E+00  0.10624268567E+04  0.10624268567E+04  0.00000000000E+00 0. -1.
          1   -1    0    0  501    0 -0.00000000000E+00 -0.00000000000E+00 -0.25219760301E+03  0.25219760301E+03  0.00000000000E+00 0. -1.
         25    2    1    2    0    0  0.90369694101E+00  0.74111683875E+02  0.12955741583E+03  0.19468464636E+03  0.12499451658E+03 0.  0.
          2    1    1    2  501    0 -0.15527926892E+02 -0.34208319432E+02 -0.21752141709E+03  0.22074168733E+03  0.00000000000E+00 0. -1.
          1    1    1    2  502    0  0.14624229951E+02 -0.39903364443E+02  0.89819325499E+03  0.89919812606E+03  0.00000000000E+00 0. -1.
         22    1    3    3    0    0 -0.21491908870E+01  0.56924598846E+01  0.12595582864E+03  0.12610271167E+03  0.00000000000E+00 0.  1.
         22    1    3    3    0    0  0.30528878280E+01  0.68419223990E+02  0.36015871888E+01  0.68581934690E+02  0.00000000000E+00 0.  1.
</event>
<event>
 7    1  0.6188600E-006  0.1035686E+03  0.7818608E-02  0.1375532E+00
          2   -1    0    0  502    0  0.00000000000E+00  0.00000000000E+00  0.17493104826E+03  0.17493104826E+03  0.00000000000E+00 0. -1.
          1   -1    0    0  501    0 -0.00000000000E+00 -0.00000000000E+00 -0.26922758715E+04  0.26922758715E+04  0.00000000000E+00 0. -1.
         25    2    1    2    0    0  0.48697062935E+01  0.13114709469E+03 -0.15477639475E+04  0.15583393663E+04  0.12500027548E+03 0.  0.
          2    1    1    2  501    0  0.11983072659E+02 -0.93094186927E+02 -0.11347044978E+04  0.11385800011E+04  0.00000000000E+00 0. -1.
          1    1    1    2  502    0 -0.16852778953E+02 -0.38052907761E+02  0.16512362201E+03  0.17028755237E+03  0.00000000000E+00 0. -1.
         22    1    3    3    0    0  0.15092330355E+02  0.15780825824E+02 -0.90247326066E+03  0.90273739211E+03  0.00000000000E+00 0.  1.
         22    1    3    3    0    0 -0.10222624062E+02  0.11536626886E+03 -0.64529068683E+03  0.65560197417E+03  0.00000000000E+00 0.  1.
</event>
<event>
 7    1  0.6188600E-006  0.1334023E+03  0.7818608E-02  0.1407796E+00
          2   -1    0    0  502    0  0.00000000000E+00  0.00000000000E+00  0.12750372620E+04  0.12750372620E+04  0.00000000000E+00 0. -1.
          1   -1    0    0  501    0 -0.00000000000E+00 -0.00000000000E+00 -0.75135076264E+02  0.75135076264E+02  0.00000000000E+00 0. -1.
         25    2    1    2    0    0 -0.58152388860E+02 -0.10375336105E+03  0.83373224555E+02  0.19163188499E+03  0.12500089805E+03 0.  0.
          2    1    1    2  501    0 -0.24852279182E+02 -0.21705058122E+01 -0.78377358624E+01  0.26149129612E+02  0.00000000000E+00 0. -1.
          1    1    1    2  502    0  0.83004668042E+02  0.10592386686E+03  0.11243666970E+04  0.11323913236E+04  0.00000000000E+00 0. -1.
         22    1    3    3    0    0 -0.95208629437E+01 -0.11836896855E+03  0.74208179840E+02  0.14003111619E+03  0.00000000000E+00 0.  1.
         22    1    3    3    0    0 -0.48631525916E+02  0.14615607505E+02  0.91650447155E+01  0.51600768796E+02  0.00000000000E+00 0.  1.
</event>
<event>
 7    1  0.6188600E-006  0.5737243E+02  0.7818608E-02  0.1453601E+00
          2   -1    0    0  502    0  0.00000000000E+00  0.00000000000E+00  0.11855086371E+04  0.11855086371E+04  0.00000000000E+00 0. -1.
          1   -1    0    0  501    0 -0.00000000000E+00 -0.00000000000E+00 -0.35211835884E+02  0.35211835884E+02  0.00000000000E+00 0. -1.
         25    2    1    2    0    0 -0.23596479835E+02 -0.54323322829E+02  0.37173368288E+03  0.39663536599E+03  0.12500346115E+03 0.  0.
          2    1    1    2  501    0 -0.17374982174E+02  0.55868159883E+02  0.16321414939E+02  0.60741500474E+02  0.00000000000E+00 0. -1.
          1    1    1    2  502    0  0.40971462009E+02 -0.15448370536E+01  0.76224170342E+03  0.76334360654E+03  0.00000000000E+00 0. -1.
         22    1    3    3    0    0  0.27990290155E+02 -0.27050981421E+02  0.30710297222E+03  0.30956008704E+03  0.00000000000E+00 0.  1.
         22    1    3    3    0    0 -0.51586769991E+02 -0.27272341408E+02  0.64630710656E+02  0.87075278947E+02  0.00000000000E+00 0.  1.
</event>
<event>
 7    1  0.6188600E-006  0.8577192E+02  0.7818608E-02  0.1461205E+00
          2   -1    0    0  502    0  0.00000000000E+00  0.00000000000E+00  0.20466318101E+03  0.20466318101E+03  0.00000000000E+00 0. -1.
          1   -1    0    0  501    0 -0.00000000000E+00 -0.00000000000E+00 -0.23591249166E+04  0.23591249166E+04  0.00000000000E+00 0. -1.
         25    2    1    2    0    0  0.38686620862E+02 -0.78975111654E+02 -0.85502959316E+03  0.86858169152E+03  0.12499930703E+03 0.  0.
          2    1    1    2  501    0 -0.58864910880E+02  0.62664434086E+02 -0.14952285504E+04  0.14976983431E+04  0.00000000000E+00 0. -1.
          1    1    1    2  502    0  0.20178290018E+02  0.16310677568E+02  0.19579640795E+03  0.19750806301E+03  0.00000000000E+00 0. -1.
         22    1    3    3    0    0 -0.32280378537E+02 -0.72602138318E+02 -0.52224594511E+03  0.52825554471E+03  0.00000000000E+00 0.  1.
         22    1    3    3    0    0  0.70966999398E+02 -0.63729733363E+01 -0.33278364805E+03  0.34032614681E+03  0.00000000000E+00 0.  1.
</event>
<event>
 7    1  0.6188600E-006  0.6859118E+02  0.7818608E-02  0.1462466E+00
          2   -1    0    0  502    0  0.00000000000E+00  0.00000000000E+00  0.44370459260E+03  0.44370459260E+03  0.00000000000E+00 0. -1.
          1   -1    0    0  501    0 -0.00000000000E+00 -0.00000000000E+00 -0.84736861500E+03  0.84736861500E+03  0.00000000000E+00 0. -1.
         25    2    1    2    0    0 -0.42527564837E+02  0.82034734287E+02  0.12710926327E+03  0.20079940126E+03  0.12500137335E+03 0.  0.
          2    1    1    2  501    0  0.26901124133E+02 -0.17605701415E+02 -0.80627080661E+03  0.80691154707E+03  0.00000000000E+00 0. -1.
          1    1    1    2  502    0  0.15626440704E+02 -0.64429032872E+02  0.27549752095E+03  0.28336225926E+03  0.00000000000E+00 0. -1.
         22    1    3    3    0    0  0.28743071820E+02  0.31596971775E+02  0.10100903284E+03  0.10966930983E+03  0.00000000000E+00 0.  1.
         22    1    3    3    0    0 -0.71270636656E+02  0.50437762512E+02  0.26100230428E+02  0.91130091436E+02  0.00000000000E+00 0.  1.
</event>
<event>
 7    1  0.6188600E-006  0.7326397E+02  0.7818608E-02  0.1372914E+00
          2   -1    0    0  502    0  0.00000000000E+00  0.00000000000E+00  0.14735057269E+04  0.14735057269E+04  0.00000000000E+00 0. -1.
          1   -1    0    0  501    0 -0.00000000000E+00 -0.00000000000E+00 -0.19679386847E+03  0.19679386847E+03  0.00000000000E+00 0. -1.
         25    2    1    2    0    0 -0.84370234227E+02 -0.38711717395E+02  0.19932392899E+03  0.25292721036E+03  0.12500084634E+03 0.  0.
          2    1    1    2  501    0  0.31030112012E+02  0.66432128590E+02 -0.16132292158E+03  0.17720378266E+03  0.00000000000E+00 0. -1.
          1    1    1    2  502    0  0.53340122215E+02 -0.27720411195E+02  0.12387108510E+04  0.12401686023E+04  0.00000000000E+00 0. -1.
         22    1    3    3    0    0  0.78127373395E+01 -0.36940128055E+00  0.13263112490E+03  0.13286154679E+03  0.00000000000E+00 0.  1.
         22    1    3    3    0    0 -0.92182971566E+02 -0.38342316114E+02  0.66692804083E+02  0.12006566357E+03  0.00000000000E+00 0.  1.
</event>
<event>
 7    1  0.6188600E-006  0.4084691E+02  0.7818608E-02  0.1544109E+00
          2   -1    0    0  502    0  0.00000000000E+00  0.00000000000E+00  0.48121140699E+03  0.48121140699E+03  0.00000000000E+00 0. -1.
          1   -1    0    0  501    0 -0.00000000000E+00 -0.00000000000E+00 -0.94957091617E+03  0.94957091617E+03  0.00000000000E+00 0. -1.
         25    2    1    2    0    0 -0.11362330888E+02  0.13219105325E+02 -0.33844543266E+03  0.36121610364E+03  0.12501166080E+03 0.  0.
          2    1    1    2  501    0  0.13774401911E+02  0.27628825638E+02 -0.59845055711E+03  0.59924632286E+03  0.00000000000E+00 0. -1.
          1    1    1    2  502    0 -0.24120710226E+01 -0.40847930964E+02  0.46853648058E+03  0.47031989665E+03  0.00000000000E+00 0. -1.
         22    1    3    3    0    0  0.26574563620E+02  0.38099611949E+02 -0.29420100496E+03  0.29784562978E+03  0.00000000000E+00 0.  1.
         22    1    3    3    0    0 -0.37936894509E+02 -0.24880506624E+02 -0.44244427702E+02  0.63370473862E+02  0.00000000000E+00 0.  1.
</event>
<event>
 7    1  0.6188600E-006  0.5957466E+02  0.7818608E-02  0.1493976E+00
          2   -1    0    0  502    0  0.00000000000E+00  0.00000000000E+00  0.84603880829E+03  0.84603880829E+03  0.00000000000E+00 0. -1.
          1   -1    0    0  501    0 -0.00000000000E+00 -0.00000000000E+00 -0.25942116731E+02  0.25942116731E+02  0.00000000000E+00 0. -1.
         25    2    1    2    0    0  0.31715998234E+02 -0.15058413558E+02  0.24225053674E+03  0.27484904268E+03  0.12499605333E+03 0.  0.
          2    1    1    2  501    0  0.29436486995E+02  0.32250876486E+01  0.19804369715E+02  0.35624724795E+02  0.00000000000E+00 0. -1.
          1    1    1    2  502    0 -0.61152485229E+02  0.11833325909E+02  0.55804178511E+03  0.56150715755E+03  0.00000000000E+00 0. -1.
         22    1    3    3    0    0 -0.24346084273E+02 -0.23842831253E+02  0.20302576562E+03  0.20586566962E+03  0.00000000000E+00 0. -1.
         22    1    3    3    0    0  0.56062082507E+02  0.87844176953E+01  0.39224771112E+02  0.68983373055E+02  0.00000000000E+00 0. -1.
</event>
<event>
 7    1  0.6188600E-006  0.5756628E+02  0.7818608E-02  0.1444266E+00
          2   -1    0    0  502    0  0.00000000000E+00  0.00000000000E+00  0.58968288053E+02  0.58968288053E+02  0.00000000000E+00 0. -1.
          1   -1    0    0  501    0 -0.00000000000E+00 -0.00000000000E+00 -0.63281134067E+03  0.63281134067E+03  0.00000000000E+00 0. -1.
         25    2    1    2    0    0  0.34701620409E+02  0.38751297518E+02 -0.17924368207E+03  0.22463187397E+03  0.12500126289E+03 0.  0.
          2    1    1    2  501    0  0.25286092730E+02 -0.35734730673E+02 -0.40398975606E+03  0.40635462402E+03  0.00000000000E+00 0. -1.
          1    1    1    2  502    0 -0.59987713139E+02 -0.30165668446E+01  0.93903855196E+01  0.60793130725E+02  0.00000000000E+00 0. -1.
         22    1    3    3    0    0 -0.30797810601E+02  0.18437218698E+02 -0.35993501743E+01  0.36074804128E+02  0.00000000000E+00 0. -1.
         22    1    3    3    0    0  0.65499431010E+02  0.20314078819E+02 -0.17564433190E+03  0.18855706984E+03  0.00000000000E+00 0. -1.
</event>
<event>
 7    1  0.6188600E-006  0.1091235E+03  0.7818608E-02  0.1441209E+00
          2   -1    0    0  502    0  0.00000000000E+00  0.00000000000E+00  0.22006922498E+03  0.22006922498E+03  0.00000000000E+00 0. -1.
          1   -1    0    0  501    0 -0.00000000000E+00 -0.00000000000E+00 -0.16353564373E+04  0.16353564373E+04  0.00000000000E+00 0. -1.
         25    2    1    2    0    0 -0.91468487820E+02  0.36281582767E+02 -0.39841183914E+03  0.42899869730E+03  0.12500020483E+03 0.  0.
          2    1    1    2  501    0 -0.16394999990E+02 -0.17010029342E+02 -0.12068698819E+04  0.12071010931E+04  0.00000000000E+00 0. -1.
          1    1    1    2  502    0  0.10786348781E+03 -0.19271553424E+02  0.18999450867E+03  0.21932587193E+03  0.00000000000E+00 0. -1.
         22    1    3    3    0    0 -0.11555562260E+03  0.38402513036E+02 -0.37871861849E+03  0.39781358311E+03  0.00000000000E+00 0.  1.
         22    1    3    3    0    0  0.24087134779E+02 -0.21209302688E+01 -0.19693220648E+02  0.31185114182E+02  0.00000000000E+00 0.  1.
</event>
<event>
 7    1  0.6188600E-006  0.3561665E+02  0.7818608E-02  0.1554724E+00
          2   -1    0    0  502    0  0.00000000000E+00  0.00000000000E+00  0.50538844936E+02  0.50538844936E+02  0.00000000000E+00 0. -1.
          1   -1    0    0  501    0 -0.00000000000E+00 -0.00000000000E+00 -0.24965784264E+04  0.24965784264E+04  0.00000000000E+00 0. -1.
         25    2    1    2    0    0  0.41643235521E+02 -0.92457118287E+01 -0.32521460721E+03  0.35101206340E+03  0.12500114263E+03 0.  0.
          2    1    1    2  501    0 -0.12823846454E+02  0.30482776382E+02 -0.21497970653E+04  0.21500514116E+04  0.00000000000E+00 0. -1.
          1    1    1    2  502    0 -0.28819389067E+02 -0.21237064553E+02  0.28972091026E+02  0.46053796319E+02  0.00000000000E+00 0. -1.
         22    1    3    3    0    0 -0.38565565185E+02 -0.37951518834E+01 -0.18824174003E+03  0.19218912218E+03  0.00000000000E+00 0. -1.
         22    1    3    3    0    0  0.80208800706E+02 -0.54505599453E+01 -0.13697286718E+03  0.15882294122E+03  0.00000000000E+00 0. -1.
</event>
<event>
 7    1  0.6188600E-006  0.4436717E+02  0.7818608E-02  0.1479779E+00
          2   -1    0    0  502    0  0.00000000000E+00  0.00000000000E+00  0.47917713095E+02  0.47917713095E+02  0.00000000000E+00 0. -1.
          1   -1    0    0  501    0 -0.00000000000E+00 -0.00000000000E+00 -0.10131383407E+04  0.10131383407E+04  0.00000000000E+00 0. -1.
         25    2    1    2    0    0 -0.24741257147E+02  0.13055765591E+02 -0.22239883418E+03  0.25664731983E+03  0.12499608998E+03 0.  0.
          2    1    1    2  501    0 -0.10594292588E+02 -0.43083721410E+02 -0.75512975878E+03  0.75643201855E+03  0.00000000000E+00 0. -1.
          1    1    1    2  502    0  0.35335549735E+02  0.30027955819E+02  0.12307965402E+02  0.47976715374E+02  0.00000000000E+00 0. -1.
         22    1    3    3    0    0 -0.12463289437E+02 -0.14095283939E+02  0.10704515729E+02  0.21647107657E+02  0.00000000000E+00 0.  1.
         22    1    3    3    0    0 -0.12277967710E+02  0.27151049530E+02 -0.23310334991E+03  0.23500021217E+03  0.00000000000E+00 0.  1.
</event>
<event>
 7    1  0.6188600E-006  0.7899467E+02  0.7818608E-02  0.1348995E+00
          2   -1    0    0  502    0  0.00000000000E+00  0.00000000000E+00  0.60083954846E+03  0.60083954846E+03  0.00000000000E+00 0. -1.
          1   -1    0    0  501    0 -0.00000000000E+00 -0.00000000000E+00 -0.11401600189E+04  0.11401600189E+04  0.00000000000E+00 0. -1.
         25    2    1    2    0    0 -0.11076656786E+03 -0.44094919764E+02 -0.41056958007E+03  0.44542699779E+03  0.12499694307E+03 0.  0.
          2    1    1    2  501    0  0.33403566257E+02  0.59396975361E+02 -0.70785290491E+03  0.71112554019E+03  0.00000000000E+00 0. -1.
          1    1    1    2  502    0  0.77363001599E+02 -0.15302055597E+02  0.57910201453E+03  0.58444702939E+03  0.00000000000E+00 0. -1.
         22    1    3    3    0    0 -0.95749938825E+02 -0.41421554239E+02 -0.41626994472E+03  0.42914387193E+03  0.00000000000E+00 0. -1.
         22    1    3    3    0    0 -0.15016629031E+02 -0.26733655247E+01  0.57003646449E+01  0.16283125860E+02  0.00000000000E+00 0. -1.
</event>
<event>
 7    1  0.6188600E-006  0.1354191E+03  0.7818608E-02  0.1373018E+00
          2   -1    0    0  502    0  0.00000000000E+00  0.00000000000E+00  0.22096078696E+04  0.22096078696E+04  0.00000000000E+00 0. -1.
          1   -1    0    0  501    0 -0.00000000000E+00 -0.00000000000E+00 -0.31711256407E+03  0.31711256407E+03  0.00000000000E+00 0. -1.
         25    2    1    2    0    0 -0.13070189080E+03  0.10325716057E+03  0.87604828980E+03  0.90046139942E+03  0.12500040127E+03 0.  0.
          2    1    1    2  501    0  0.10166992148E+03 -0.88661778512E+02 -0.28977332688E+03  0.31963458022E+03  0.00000000000E+00 0. -1.
          1    1    1    2  502    0  0.29031969318E+02 -0.14595382058E+02  0.13062203427E+04  0.13066244541E+04  0.00000000000E+00 0. -1.
         22    1    3    3    0    0 -0.10792594212E+03  0.48871026091E+02  0.77054376953E+03  0.77959867043E+03  0.00000000000E+00 0.  1.
         22    1    3    3    0    0 -0.22775948679E+02  0.54386134480E+02  0.10550452027E+03  0.12086272899E+03  0.00000000000E+00 0.  1.
</event>
<event>
 7    1  0.6188600E-006  0.2178857E+03  0.7818608E-02  0.1311932E+00
          2   -1    0    0  502    0  0.00000000000E+00  0.00000000000E+00  0.35782813738E+03  0.35782813738E+03  0.00000000000E+00 0. -1.
          1   -1    0    0  501    0 -0.00000000000E+00 -0.00000000000E+00 -0.21157928115E+04  0.21157928115E+04  0.00000000000E+00 0. -1.
         25    2    1    2    0    0 -0.21072815607E+03 -0.32954318399E+02 -0.76709648257E+03  0.80594846511E+03  0.12499428781E+03 0.  0.
          2    1    1    2  501    0 -0.74754882156E+01  0.33397226008E+02 -0.12938456432E+04  0.12942981906E+04  0.00000000000E+00 0. -1.
          1    1    1    2  502    0  0.21820364429E+03 -0.44290760912E+00  0.30297745171E+03  0.37337429315E+03  0.00000000000E+00 0. -1.
         22    1    3    3    0    0 -0.18990358237E+03 -0.52909414206E+02 -0.74191889933E+03  0.76766296634E+03  0.00000000000E+00 0. -1.
         22    1    3    3    0    0 -0.20824573696E+02  0.19955095807E+02 -0.25177583238E+02  0.38285498769E+02  0.00000000000E+00 0. -1.
</event>
<event>
 7    1  0.6188600E-006  0.1375657E+03  0.7818608E-02  0.1304984E+00
          2   -1    0    0  502    0  0.00000000000E+00  0.00000000000E+00  0.10569457445E+04  0.10569457445E+04  0.00000000000E+00 0. -1.
          1   -1    0    0  501    0 -0.00000000000E+00 -0.00000000000E+00 -0.51594634299E+03  0.51594634299E+03  0.00000000000E+00 0. -1.
         25    2    1    2    0    0 -0.14758341876E+03  0.88993034771E+02 -0.16432671175E+03  0.26894270847E+03  0.12500514594E+03 0.  0.
          2    1    1    2  501    0  0.14680758115E+02 -0.55844243329E+02 -0.29180054721E+03  0.29745867532E+03  0.00000000000E+00 0. -1.
          1    1    1    2  502    0  0.13290266065E+03 -0.33148791442E+02  0.99712666047E+03  0.10064907037E+04  0.00000000000E+00 0. -1.
         22    1    3    3    0    0 -0.82258675568E+02  0.82240503280E+02 -0.16664924271E+03  0.20322883699E+03  0.00000000000E+00 0.  1.
         22    1    3    3    0    0 -0.65324743196E+02  0.67525314914E+01  0.23225309604E+01  0.65713871482E+02  0.00000000000E+00 0.  1.
</event>
<event>
 7    1  0.6188600E-006  0.1558647E+03  0.7818608E-02  0.1340387E+00
          2   -1    0    0  502    0  0.00000000000E+00  0.00000000000E+00  0.14059086542E+04  0.14059086542E+04  0.00000000000E+00 0. -1.
          1   -1    0    0  501    0 -0.00000000000E+00 -0.00000000000E+00 -0.97083057606E+02  0.97083057606E+02  0.00000000000E+00 0. -1.
         25    2    1    2    0    0 -0.14946159515E+03  0.39163394423E+02  0.55301629877E+02  0.20629216907E+03  0.12500259543E+03 0.  0.
          2    1    1    2  501    0 -0.67368937533E+01 -0.36575855782E+02  0.39523044330E+01  0.37400530397E+02  0.00000000000E+00 0. -1.
          1    1    1    2  502    0  0.15619848891E+03 -0.25875386416E+01  0.12495716623E+04  0.12592990124E+04  0.00000000000E+00 0. -1.
         22    1    3    3    0    0  0.18041268505E+02 -0.49804144507E+01 -0.99392239908E+01  0.21191509406E+02  0.00000000000E+00 0. -1.
         22    1    3    3    0    0 -0.16750286366E+03  0.44143808874E+02  0.65240853867E+02  0.18510065966E+03  0.00000000000E+00 0. -1.
</event>
<event>
 7    1  0.6188600E-006  0.1270691E+03  0.7818608E-02  0.1282482E+00
          2   -1    0    0  502    0  0.00000000000E+00  0.00000000000E+00  0.54653686903E+03  0.54653686903E+03  0.00000000000E+00 0. -1.
          1   -1    0    0  501    0 -0.00000000000E+00 -0.00000000000E+00 -0.19016805675E+03  0.19016805675E+03  0.00000000000E+00 0. -1.
         25    2    1    2    0    0 -0.12723108118E+03  0.11025572864E+03  0.27467528361E+03  0.34556487340E+03  0.12499798631E+03 0.  0.
          2    1    1    2  501    0  0.19242426251E+02 -0.74640052928E+02 -0.12983119594E+03  0.15098856880E+03  0.00000000000E+00 0. -1.
          1    1    1    2  502    0  0.10798865493E+03 -0.35615675715E+02  0.21152472460E+03  0.24015148358E+03  0.00000000000E+00 0. -1.
         22    1    3    3    0    0  0.21785984288E+02 -0.44256108484E+00  0.15388379584E+02  0.26676341540E+02  0.00000000000E+00 0.  1.
         22    1    3    3    0    0 -0.14901706547E+03  0.11069828973E+03  0.25928690403E+03  0.31888853186E+03  0.00000000000E+00 0.  1.
</event>
<event>
 7    1  0.6188600E-006  0.1114874E+03  0.7818608E-02  0.1441984E+00
          2   -1    0    0  502    0  0.00000000000E+00  0.00000000000E+00  0.80409526079E+03  0.80409526079E+03  0.00000000000E+00 0. -1.
          1   -1    0    0  501    0 -0.00000000000E+00 -0.00000000000E+00 -0.30562503351E+02  0.30562503351E+02  0.00000000000E+00 0. -1.
         25    2    1    2    0    0  0.45368607362E+02 -0.91937426623E+02  0.50858563166E+03  0.53366351606E+03  0.12500641062E+03 0.  0.
          2    1    1    2  501    0 -0.32283560151E+02  0.11084128261E+03  0.18735791883E+03  0.22007046129E+03  0.00000000000E+00 0. -1.
          1    1    1    2  502    0 -0.13085047210E+02 -0.18903855991E+02  0.77589206948E+02  0.80923786779E+02  0.00000000000E+00 0. -1.
         22    1    3    3    0    0  0.19497008355E+01 -0.85243749736E+02  0.46132150724E+03  0.46913519506E+03  0.00000000000E+00 0.  1.
         22    1    3    3    0    0  0.43418906526E+02 -0.66936768873E+01  0.47264124422E+02  0.64528321004E+02  0.00000000000E+00 0.  1.
</event>
<event>
 7    1  0.6188600E-006  0.3724090E+03  0.7818608E-02  0.1235575E+00
          2   -1    0    0  502    0  0.00000000000E+00  0.00000000000E+00  0.25213416856E+04  0.25213416856E+04  0.00000000000E+00 0. -1.
          1   -1    0    0  501    0 -0.00000000000E+00 -0.00000000000E+00 -0.38203062389E+03  0.38203062389E+03  0.00000000000E+00 0. -1.
         25    2    1    2    0    0  0.73317082542E+02 -0.35731811620E+03  0.15943581695E+04  0.16403215441E+04  0.12500065801E+03 0.  0.
          2    1    1    2  501    0 -0.31235021257E+02 -0.27687620306E+02 -0.31613176721E+03  0.31887540688E+03  0.00000000000E+00 0. -1.
          1    1    1    2  502    0 -0.42082061285E+02  0.38500573650E+03  0.86108465941E+03  0.94417535855E+03  0.00000000000E+00 0. -1.
         22    1    3    3    0    0  0.16229887975E+02 -0.19563452568E+03  0.60026566624E+03  0.63154979770E+03  0.00000000000E+00 0. -1.
         22    1    3    3    0    0  0.57087194567E+02 -0.16168359051E+03  0.99409250329E+03  0.10087717464E+04  0.00000000000E+00 0. -1.
</event>
<event>
 7    1  0.6188600E-006  0.6263368E+02  0.7818608E-02  0.1427161E+00
          2   -1    0    0  502    0  0.00000000000E+00  0.00000000000E+00  0.28769064387E+03  0.28769064387E+03  0.00000000000E+00 0. -1.
          1   -1    0    0  501    0 -0.00000000000E+00 -0.00000000000E+00 -0.15446595883E+04  0.15446595883E+04  0.00000000000E+00 0. -1.
         25    2    1    2    0    0  0.27810723612E+02  0.27468030063E+02 -0.92081035973E+02  0.16009920387E+03  0.12499963548E+03 0.  0.
          2    1    1    2  501    0  0.56129685915E+00 -0.63366497900E+02 -0.14157916775E+04  0.14172091243E+04  0.00000000000E+00 0. -1.
          1    1    1    2  502    0 -0.28372020471E+02  0.35898467837E+02  0.25090376895E+03  0.25504190403E+03  0.00000000000E+00 0. -1.
         22    1    3    3    0    0  0.43572378225E+02  0.70115132265E+02 -0.74989633763E+02  0.11152636051E+03  0.00000000000E+00 0.  1.
         22    1    3    3    0    0 -0.15761654613E+02 -0.42647102203E+02 -0.17091402210E+02  0.48572843358E+02  0.00000000000E+00 0.  1.
</event>
<event>
 7    1  0.6188600E-006  0.1511105E+03  0.7818608E-02  0.1314078E+00
          2   -1    0    0  502    0  0.00000000000E+00  0.00000000000E+00  0.53984157155E+03  0.53984157155E+03  0.00000000000E+00 0. -1.
          1   -1    0    0  501    0 -0.00000000000E+00 -0.00000000000E+00 -0.55584350381E+03  0.55584350381E+03  0.00000000000E+00 0. -1.
         25    2    1    2    0    0  0.66070839113E+02 -0.16016879455E+03  0.10740468090E+03  0.23912438765E+03  0.12500123505E+03 0.  0.
          2    1    1    2  501    0  0.22633795396E+02  0.42781006877E+02 -0.47393750541E+03  0.47640241633E+03  0.00000000000E+00 0. -1.
          1    1    1    2  502    0 -0.88704634509E+02  0.11738778767E+03  0.35053089226E+03  0.38015827139E+03  0.00000000000E+00 0. -1.
         22    1    3    3    0    0 -0.14719970022E+02 -0.87727794385E+02  0.94609379145E+02  0.12986061007E+03  0.00000000000E+00 0.  1.
         22    1    3    3    0    0  0.80790809134E+02 -0.72441000163E+02  0.12795301758E+02  0.10926377759E+03  0.00000000000E+00 0.  1.
</event>
<event>
 7    1  0.6188600E-006  0.4694162E+02  0.7818608E-02  0.1505550E+00
          2   -1    0    0  502    0  0.00000000000E+00  0.00000000000E+00  0.40479856085E+03  0.40479856085E+03  0.00000000000E+00 0. -1.
          1   -1    0    0  501    0 -0.00000000000E+00 -0.00000000000E+00 -0.56798038331E+03  0.56798038331E+03  0.00000000000E+00 0. -1.
         25    2    1    2    0    0  0.35723782945E+02  0.56960268767E+02 -0.18109566779E+03  0.23009086368E+03  0.12500201507E+03 0.  0.
          2    1    1    2  501    0 -0.33184110166E+02 -0.10171601909E+02 -0.36010621396E+03  0.36177497424E+03  0.00000000000E+00 0. -1.
          1    1    1    2  502    0 -0.25396727793E+01 -0.46788666857E+02  0.37802005929E+03  0.38091310625E+03  0.00000000000E+00 0. -1.
         22    1    3    3    0    0  0.66738644403E+02  0.73517475566E+02 -0.96409436848E+02  0.13839669571E+03  0.00000000000E+00 0. -1.
         22    1    3    3    0    0 -0.31014861458E+02 -0.16557206800E+02 -0.84686230942E+02  0.91694167969E+02  0.00000000000E+00 0. -1.
</event>
<event>
 7    1  0.6188600E-006  0.2896232E+02  0.7818608E-02  0.1662698E+00
          2   -1    0    0  502    0  0.00000000000E+00  0.00000000000E+00  0.10942362184E+03  0.10942362184E+03  0.00000000000E+00 0. -1.
          1   -1    0    0  501    0 -0.00000000000E+00 -0.00000000000E+00 -0.44585339913E+03  0.44585339913E+03  0.00000000000E+00 0. -1.
         25    2    1    2    0    0  0.27367778621E+02 -0.23699790197E+02 -0.10850377484E+03  0.16943644829E+03  0.12499986197E+03 0.  0.
          2    1    1    2  501    0 -0.28855085033E+02  0.23745426738E+01 -0.30473754691E+03  0.30610982813E+03  0.00000000000E+00 0. -1.
          1    1    1    2  502    0  0.14873064119E+01  0.21325247523E+02  0.76811544463E+02  0.79730744541E+02  0.00000000000E+00 0. -1.
         22    1    3    3    0    0 -0.49032995179E+02  0.32037640793E+01 -0.40824211394E+02  0.63883604755E+02  0.00000000000E+00 0. -1.
         22    1    3    3    0    0  0.76400773801E+02 -0.26903554276E+02 -0.67679563451E+02  0.10555284354E+03  0.00000000000E+00 0. -1.
</event>
<event>
 7    1  0.6188600E-006  0.1579809E+03  0.7818608E-02  0.1342492E+00
          2   -1    0    0  502    0  0.00000000000E+00  0.00000000000E+00  0.10952490956E+03  0.10952490956E+03  0.00000000000E+00 0. -1.
          1   -1    0    0  501    0 -0.00000000000E+00 -0.00000000000E+00 -0.10170167105E+04  0.10170167105E+04  0.00000000000E+00 0. -1.
         25    2    1    2    0    0  0.12485068687E+03  0.37749801153E+02 -0.20592141394E+03  0.27393692601E+03  0.12500027686E+03 0.  0.
          2    1    1    2  501    0 -0.16088122050E+03 -0.37509816217E+02 -0.76338538452E+03  0.78105505486E+03  0.00000000000E+00 0. -1.
          1    1    1    2  502    0  0.36030533627E+02 -0.23998493651E+00  0.61814997531E+02  0.71549639174E+02  0.00000000000E+00 0. -1.
         22    1    3    3    0    0  0.19263871264E+02  0.31124482830E+02  0.59845616081E+01  0.37089690550E+02  0.00000000000E+00 0. -1.
         22    1    3    3    0    0  0.10558681561E+03  0.66253183235E+01 -0.21190597555E+03  0.23684723546E+03  0.00000000000E+00 0. -1.
</event>
<event>
 7    1  0.6188600E-006  0.8143578E+02  0.7818608E-02  0.1441152E+00
          2   -1    0    0  502    0  0.00000000000E+00  0.00000000000E+00  0.49002159820E+04  0.49002159820E+04  0.00000000000E+00 0. -1.
          1   -1    0    0  501    0 -0.00000000000E+00 -0.00000000000E+00 -0.12416776384E+04  0.12416776384E+04  0.00000000000E+00 0. -1.
         25    2    1    2    0    0 -0.62681052337E+02 -0.53349534101E+02 -0.53909044526E+03  0.55948095747E+03  0.12500138598E+03 0.  0.
          2    1    1    2  501    0 -0.14725127381E+02  0.28039445644E+02 -0.69169049555E+03  0.69241518002E+03  0.00000000000E+00 0. -1.
          1    1    1    2  502    0  0.77406179718E+02  0.25310088457E+02  0.48893192845E+04  0.48899974829E+04  0.00000000000E+00 0. -1.
         22    1    3    3    0    0 -0.91461848397E+01  0.39804118327E+02 -0.18471768955E+03  0.18917887135E+03  0.00000000000E+00 0.  1.
         22    1    3    3    0    0 -0.53534867497E+02 -0.93153652429E+02 -0.35437275571E+03  0.37030208612E+03  0.00000000000E+00 0.  1.
</event>
<event>
 7    1  0.6188600E-006  0.7445849E+02  0.7818608E-02  0.1394632E+00
          2   -1    0    0  502    0  0.00000000000E+00  0.00000000000E+00  0.79821697708E+03  0.79821697708E+03  0.00000000000E+00 0. -1.
          1   -1    0    0  501    0 -0.00000000000E+00 -0.00000000000E+00 -0.17353701209E+04  0.17353701209E+04  0.00000000000E+00 0. -1.
         25    2    1    2    0    0  0.10998723238E+03  0.53096608603E+02  0.24070366430E+03  0.29746664481E+03  0.12502683565E+03 0.  0.
          2    1    1    2  501    0 -0.61829760302E+02 -0.41235072684E+02 -0.17050151759E+04  0.17066341144E+04  0.00000000000E+00 0. -1.
          1    1    1    2  502    0 -0.48157472077E+02 -0.11861535918E+02  0.52715836780E+03  0.52948633873E+03  0.00000000000E+00 0. -1.
         22    1    3    3    0    0 -0.13189023587E+02  0.13092274273E+02 -0.54119604252E+01  0.19355808029E+02  0.00000000000E+00 0. -1.
         22    1    3    3    0    0  0.12317625597E+03  0.40004334330E+02  0.24611562473E+03  0.27811083678E+03  0.00000000000E+00 0. -1.
</event>
<event>
 7    1  0.6188600E-006  0.1251320E+03  0.7818608E-02  0.1277612E+00
          2   -1    0    0  502    0  0.00000000000E+00  0.00000000000E+00  0.17862181493E+04  0.17862181493E+04  0.00000000000E+00 0. -1.
          1   -1    0    0  501    0 -0.00000000000E+00 -0.00000000000E+00 -0.20077437703E+04  0.20077437703E+04  0.00000000000E+00 0. -1.
         25    2    1    2    0    0 -0.66721875927E+02 -0.14296570932E+03  0.16639183941E+03  0.26115637230E+03  0.12500161521E+03 0.  0.
          2    1    1    2  501    0 -0.13122182479E+02  0.12434553545E+03 -0.19572966078E+04  0.19612863164E+04  0.00000000000E+00 0. -1.
          1    1    1    2  502    0  0.79844058405E+02  0.18620173873E+02  0.15693791475E+04  0.15715192309E+04  0.00000000000E+00 0. -1.
         22    1    3    3    0    0 -0.42591069210E+02 -0.75760698692E+02  0.78372783579E+01  0.87264572278E+02  0.00000000000E+00 0. -1.
         22    1    3    3    0    0 -0.24130806717E+02 -0.67205010630E+02  0.15855456105E+03  0.17389180003E+03  0.00000000000E+00 0. -1.
</event>
<event>
 7    1  0.6188600E-006  0.1136798E+03  0.7818608E-02  0.1274109E+00
          2   -1    0    0  502    0  0.00000000000E+00  0.00000000000E+00  0.15619959197E+04  0.15619959197E+04  0.00000000000E+00 0. -1.
          1   -1    0    0  501    0 -0.00000000000E+00 -0.00000000000E+00 -0.75510824805E+03  0.75510824805E+03  0.00000000000E+00 0. -1.
         25    2    1    2    0    0  0.15681219864E+03 -0.71068834565E+02  0.27938394381E+03  0.35117315854E+03  0.12500541721E+03 0.  0.
          2    1    1    2  501    0 -0.65871072212E+02  0.92027314970E+02 -0.71299790058E+03  0.72192384023E+03  0.00000000000E+00 0. -1.
          1    1    1    2  502    0 -0.90941126424E+02 -0.20958480405E+02  0.12405016285E+04  0.12440071690E+04  0.00000000000E+00 0. -1.
         22    1    3    3    0    0  0.17783545156E+03 -0.58680652506E+02  0.23464095593E+03  0.30020866911E+03  0.00000000000E+00 0. -1.
         22    1    3    3    0    0 -0.21023252923E+02 -0.12388182059E+02  0.44742987884E+02  0.50964489431E+02  0.00000000000E+00 0. -1.
</event>
<event>
 7    1  0.6188600E-006  0.2162930E+03  0.7818608E-02  0.1248390E+00
          2   -1    0    0  502    0  0.00000000000E+00  0.00000000000E+00  0.12921127724E+04  0.12921127724E+04  0.00000000000E+00 0. -1.
          1   -1    0    0  501    0 -0.00000000000E+00 -0.00000000000E+00 -0.19341100810E+04  0.19341100810E+04  0.00000000000E+00 0. -1.
         25    2    1    2    0    0  0.22150543316E+03 -0.46518405176E+02  0.60882332386E+02  0.26563287880E+03  0.12500219582E+03 0.  0.
          2    1    1    2  501    0 -0.60227746594E+01  0.62836204807E+02 -0.18208407425E+04  0.18219345960E+04  0.00000000000E+00 0. -1.
          1    1    1    2  502    0 -0.21548265851E+03 -0.16317799631E+02  0.11179611015E+04  0.11386553786E+04  0.00000000000E+00 0. -1.
         22    1    3    3    0    0  0.42109784981E+01 -0.30959446401E+02  0.33924656429E+02  0.46120515773E+02  0.00000000000E+00 0. -1.
         22    1    3    3    0    0  0.21729445467E+03 -0.15558958775E+02  0.26957675957E+02  0.21951236302E+03  0.00000000000E+00 0. -1.
</event>
<event>
 7    1  0.6188600E-006  0.1319895E+03  0.7818608E-02  0.1348417E+00
          2   -1    0    0  502    0  0.00000000000E+00  0.00000000000E+00  0.31848235796E+03  0.31848235796E+03  0.00000000000E+00 0. -1.
          1   -1    0    0  501    0 -0.00000000000E+00 -0.00000000000E+00 -0.28219716338E+03  0.28219716338E+03  0.00000000000E+00 0. -1.
         25    2    1    2    0    0  0.16072988673E+02  0.13280491829E+03  0.12851068781E+03  0.22368356063E+03  0.12499540443E+03 0.  0.
          2    1    1    2  501    0  0.24821960668E+02 -0.13006662167E+03 -0.21224958872E+03  0.25016663190E+03  0.00000000000E+00 0. -1.
          1    1    1    2  502    0 -0.40894949342E+02 -0.27382966153E+01  0.12002409549E+03  0.12682932882E+03  0.00000000000E+00 0. -1.
         22    1    3    3    0    0 -0.54164871736E+02  0.56087226880E+02  0.43070744402E+02  0.89076929520E+02  0.00000000000E+00 0.  1.
         22    1    3    3    0    0  0.70237860409E+02  0.76717691408E+02  0.85439943403E+02  0.13460663111E+03  0.00000000000E+00 0.  1.
</event>
<event>
 7    1  0.6188600E-006  0.1698757E+03  0.7818608E-02  0.1205795E+00
          2   -1    0    0  502    0  0.00000000000E+00  0.00000000000E+00  0.30777814852E+04  0.30777814852E+04  0.00000000000E+00 0. -1.
          1   -1    0    0  501    0 -0.00000000000E+00 -0.00000000000E+00 -0.11698883195E+04  0.11698883195E+04  0.00000000000E+00 0. -1.
         25    2    1    2    0    0  0.86855274609E+02 -0.83734286671E+01 -0.83929869671E+01  0.15267397229E+03  0.12499978620E+03 0.  0.
          2    1    1    2  501    0  0.49830829623E+02  0.11469233988E+03 -0.10832607017E+04  0.10904545806E+04  0.00000000000E+00 0. -1.
          1    1    1    2  502    0 -0.13668610423E+03 -0.10631891121E+03  0.29995468544E+04  0.30045412518E+04  0.00000000000E+00 0. -1.
         22    1    3    3    0    0  0.11404214160E+03 -0.36364865790E+01 -0.29592075251E+02  0.11787503982E+03  0.00000000000E+00 0. -1.
         22    1    3    3    0    0 -0.27186866989E+02 -0.47369420882E+01  0.21199088284E+02  0.34798932471E+02  0.00000000000E+00 0. -1.
</event>
<event>
 7    1  0.6188600E-006  0.9806816E+02  0.7818608E-02  0.1313686E+00
          2   -1    0    0  502    0  0.00000000000E+00  0.00000000000E+00  0.46575113026E+04  0.46575113026E+04  0.00000000000E+00 0. -1.
          1   -1    0    0  501    0 -0.00000000000E+00 -0.00000000000E+00 -0.33005718181E+03  0.33005718181E+03  0.00000000000E+00 0. -1.
         25    2    1    2    0    0  0.38817373024E+02  0.44757686157E+02  0.13127859005E+03  0.19070673395E+03  0.12499980499E+03 0.  0.
          2    1    1    2  501    0  0.60333434776E+02 -0.44285374210E+02 -0.29512500422E+03  0.30446688791E+03  0.00000000000E+00 0. -1.
          1    1    1    2  502    0 -0.99150807800E+02 -0.47231194627E+00  0.44913005349E+04  0.44923948625E+04  0.00000000000E+00 0. -1.
         22    1    3    3    0    0  0.60231861663E+02  0.70850183763E+02  0.56880436571E+02  0.10900921871E+03  0.00000000000E+00 0. -1.
         22    1    3    3    0    0 -0.21414488639E+02 -0.26092497606E+02  0.74398153482E+02  0.81697515241E+02  0.00000000000E+00 0. -1.
</event>
<event>
 7    1  0.6188600E-006  0.2313755E+03  0.7818608E-02  0.1211014E+00
          2   -1    0    0  502    0  0.00000000000E+00  0.00000000000E+00  0.42235404761E+03  0.42235404761E+03  0.00000000000E+00 0. -1.
          1   -1    0    0  501    0 -0.00000000000E+00 -0.00000000000E+00 -0.14509154418E+04  0.14509154418E+04  0.00000000000E+00 0. -1.
         25    2    1    2    0    0  0.90889282194E+02 -0.29427332376E+03 -0.14051068622E+02  0.33268257733E+03  0.12499045579E+03 0.  0.
          2    1    1    2  501    0 -0.41631396113E+02  0.22277564187E+03 -0.12599877550E+04  0.12802075232E+04  0.00000000000E+00 0. -1.
          1    1    1    2  502    0 -0.49257886081E+02  0.71497681881E+02  0.24547742936E+03  0.26037938893E+03  0.00000000000E+00 0. -1.
         22    1    3    3    0    0  0.22025973744E+01 -0.20951923913E+03 -0.14176495465E+02  0.21000984745E+03  0.00000000000E+00 0.  1.
         22    1    3    3    0    0  0.88686684820E+02 -0.84754084623E+02  0.12542684266E+00  0.12267272988E+03  0.00000000000E+00 0.  1.
</event>
<event>
 7    1  0.8811297E-006  0.6237448E+02  0.7818608E-02  0.1406375E+00
          2   -1    0    0  502    0  0.00000000000E+00  0.00000000000E+00  0.20695202946E+04  0.20695202946E+04  0.00000000000E+00 0. -1.
          1   -1    0    0  501    0 -0.00000000000E+00 -0.00000000000E+00 -0.65623289930E+03  0.65623289930E+03  0.00000000000E+00 0. -1.
         25    2    1    2    0    0 -0.27263749533E+01  0.42319599825E+02 -0.11059666106E+03  0.17220425997E+03  0.12499721623E+03 0.  0.
          2    1    1    2  501    0 -0.52400071522E+02 -0.12847874984E+02 -0.51293813885E+03  0.51576774780E+03  0.00000000000E+00 0. -1.
          1    1    1    2  502    0  0.55126446476E+02 -0.29471724841E+02  0.20368221952E+04  0.20377811861E+04  0.00000000000E+00 0. -1.
         22    1    3    3    0    0  0.15516379001E+02  0.73574332283E+02 -0.11322638796E+03  0.13591966494E+03  0.00000000000E+00 0. -1.
         22    1    3    3    0    0 -0.18242753954E+02 -0.31254732458E+02  0.26297268933E+01  0.36284595029E+02  0.00000000000E+00 0. -1.
</event>
<event>
 7    1  0.6188600E-006  0.9206233E+02  0.7818608E-02  0.1373327E+00
          2   -1    0    0  502    0  0.00000000000E+00  0.00000000000E+00  0.11445412632E+04  0.11445412632E+04  0.00000000000E+00 0. -1.
          1   -1    0    0  501    0 -0.00000000000E+00 -0.00000000000E+00 -0.10780266445E+03  0.10780266445E+03  0.00000000000E+00 0. -1.
         25    2    1    2    0    0 -0.45448718298E+02  0.11902855185E+03  0.45480425586E+03  0.48857471095E+03  0.12499981952E+03 0.  0.
          2    1    1    2  501    0  0.54642787682E+02 -0.72247255982E+02 -0.67261194398E+02  0.11282538949E+03  0.00000000000E+00 0. -1.
          1    1    1    2  502    0 -0.91940693843E+01 -0.46781295871E+02  0.64919553727E+03  0.65094382720E+03  0.00000000000E+00 0. -1.
         22    1    3    3    0    0 -0.87868374214E+02  0.90052484849E+02  0.34829706448E+03  0.37032573006E+03  0.00000000000E+00 0.  1.
         22    1    3    3    0    0  0.42419655917E+02  0.28976067005E+02  0.10650719137E+03  0.11824898089E+03  0.00000000000E+00 0.  1.
</event>
<event>
 7    1  0.6188600E-006  0.1521132E+03  0.7818608E-02  0.1312925E+00
          2   -1    0    0  502    0  0.00000000000E+00  0.00000000000E+00  0.12439221021E+04  0.12439221021E+04  0.00000000000E+00 0. -1.
          1   -1    0    0  501    0 -0.00000000000E+00 -0.00000000000E+00 -0.22033815803E+03  0.22033815803E+03  0.00000000000E+00 0. -1.
         25    2    1    2    0    0  0.10662724367E+03 -0.46361665826E+00  0.58406240525E+03  0.60673195864E+03  0.12500076949E+03 0.  0.
          2    1    1    2  501    0 -0.15395335509E+03 -0.10516987215E+02 -0.17943809812E+03  0.23666489731E+03  0.00000000000E+00 0. -1.
          1    1    1    2  502    0  0.47326111415E+02  0.10980603873E+02  0.61895963696E+03  0.62086340419E+03  0.00000000000E+00 0. -1.
         22    1    3    3    0    0  0.62573384320E+02 -0.69214404355E+01  0.54146413591E+03  0.54511168143E+03  0.00000000000E+00 0.  1.
         22    1    3    3    0    0  0.44053859352E+02  0.64578237773E+01  0.42598269343E+02  0.61620277204E+02  0.00000000000E+00 0.  1.
</event>
<event>
 7    1  0.6188600E-006  0.9877881E+02  0.7818608E-02  0.1425857E+00
          2   -1    0    0  502    0  0.00000000000E+00  0.00000000000E+00  0.12676966546E+03  0.12676966546E+03  0.00000000000E+00 0. -1.
          1   -1    0    0  501    0 -0.00000000000E+00 -0.00000000000E+00 -0.19003808705E+04  0.19003808705E+04  0.00000000000E+00 0. -1.
         25    2    1    2    0    0  0.24861708623E+02  0.78156107434E+02 -0.62693917816E+01  0.14963738267E+03  0.12500223732E+03 0.  0.
          2    1    1    2  501    0 -0.43201500440E+01 -0.99053611009E+02 -0.18170810577E+04  0.18197840124E+04  0.00000000000E+00 0. -1.
          1    1    1    2  502    0 -0.20541558579E+02  0.20897503575E+02  0.49739244372E+02  0.57729140953E+02  0.00000000000E+00 0. -1.
         22    1    3    3    0    0  0.67751268561E+02  0.19939560845E+02 -0.25038404168E+02  0.74931583205E+02  0.00000000000E+00 0. -1.
         22    1    3    3    0    0 -0.42889559938E+02  0.58216546588E+02  0.18769012387E+02  0.74705799469E+02  0.00000000000E+00 0. -1.
</event>
<event>
 7    1  0.6188600E-006  0.1120028E+03  0.7818608E-02  0.1318779E+00
          2   -1    0    0  502    0  0.00000000000E+00  0.00000000000E+00  0.13311231220E+04  0.13311231220E+04  0.00000000000E+00 0. -1.
          1   -1    0    0  501    0 -0.00000000000E+00 -0.00000000000E+00 -0.64966820501E+03  0.64966820501E+03  0.00000000000E+00 0. -1.
         25    2    1    2    0    0  0.10119011585E+03  0.12764567072E+03 -0.93307582980E+02  0.22552752658E+03  0.12499401347E+03 0.  0.
          2    1    1    2  501    0 -0.46483452472E+02 -0.97219212019E+02 -0.48354156586E+03  0.49540360561E+03  0.00000000000E+00 0. -1.
          1    1    1    2  502    0 -0.54706663383E+02 -0.30426458698E+02  0.12583040659E+04  0.12598601948E+04  0.00000000000E+00 0. -1.
         22    1    3    3    0    0  0.22136674930E+02  0.60192900698E+02  0.24301545957E+02  0.68584129413E+02  0.00000000000E+00 0. -1.
         22    1    3    3    0    0  0.79053440924E+02  0.67452770019E+02 -0.11760912894E+03  0.15694339717E+03  0.00000000000E+00 0. -1.
</event>
<event>
 7    1  0.9112419E-006  0.5931680E+02  0.7818608E-02  0.1456698E+00
          2   -1    0    0  502    0  0.00000000000E+00  0.00000000000E+00  0.97678357539E+03  0.97678357539E+03  0.00000000000E+00 0. -1.
          1   -1    0    0  501    0 -0.00000000000E+00 -0.00000000000E+00 -0.10768360542E+04  0.10768360542E+04  0.00000000000E+00 0. -1.
         25    2    1    2    0    0 -0.50739611834E+02 -0.15313706184E+02 -0.19297402108E+03  0.23595127686E+03  0.12500005774E+03 0.  0.
          2    1    1    2  501    0  0.18076895381E+02 -0.34296086868E+02 -0.86101353040E+03  0.86188589457E+03  0.00000000000E+00 0. -1.
          1    1    1    2  502    0  0.32662716453E+02  0.49609793051E+02  0.95393507263E+03  0.95578245820E+03  0.00000000000E+00 0. -1.
         22    1    3    3    0    0 -0.39577273192E+02  0.47983137144E+02 -0.52208794061E+02  0.81206527945E+02  0.00000000000E+00 0. -1.
         22    1    3    3    0    0 -0.11162338642E+02 -0.63296843328E+02 -0.14076522702E+03  0.15474474892E+03  0.00000000000E+00 0. -1.
</event>
<event>
 7    1  0.6188600E-006  0.3608381E+03  0.7818608E-02  0.1108382E+00
          2   -1    0    0  502    0  0.00000000000E+00  0.00000000000E+00  0.27843790734E+04  0.27843790734E+04  0.00000000000E+00 0. -1.
          1   -1    0    0  501    0 -0.00000000000E+00 -0.00000000000E+00 -0.74983094768E+03  0.74983094768E+03  0.00000000000E+00 0. -1.
         25    2    1    2    0    0  0.98126593419E+02 -0.28206727062E+03 -0.22231499402E+02  0.32451510120E+03  0.12500015140E+03 0.  0.
          2    1    1    2  501    0 -0.28252125187E+03  0.28291711005E+03 -0.50341181403E+03  0.64287152949E+03  0.00000000000E+00 0. -1.
          1    1    1    2  502    0  0.18439465845E+03 -0.84983942784E+00  0.25601914392E+04  0.25668233904E+04  0.00000000000E+00 0. -1.
         22    1    3    3    0    0  0.82652074631E+02 -0.10319074038E+03  0.33740571946E+02  0.13644823391E+03  0.00000000000E+00 0.  1.
         22    1    3    3    0    0  0.15474518788E+02 -0.17887653024E+03 -0.55972071349E+02  0.18806686730E+03  0.00000000000E+00 0.  1.
</event>
<event>
 7    1  0.1116788E-005  0.8672927E+02  0.7818608E-02  0.1335863E+00
          2   -1    0    0  502    0  0.00000000000E+00  0.00000000000E+00  0.62786733815E+03  0.62786733815E+03  0.00000000000E+00 0. -1.
          1   -1    0    0  501    0 -0.00000000000E+00 -0.00000000000E+00 -0.19023405311E+04  0.19023405311E+04  0.00000000000E+00 0. -1.
         25    2    1    2    0    0  0.52453517228E+02  0.64334406068E+02 -0.10155412671E+04  0.10265671974E+04  0.12500343278E+03 0.  0.
          2    1    1    2  501    0  0.34283269124E+02 -0.60475093995E+02 -0.87687588207E+03  0.87962713242E+03  0.00000000000E+00 0. -1.
          1    1    1    2  502    0 -0.86736786352E+02 -0.38593120734E+01  0.61794395623E+03  0.62401353947E+03  0.00000000000E+00 0. -1.
         22    1    3    3    0    0  0.80576977844E+02  0.98060159694E+00 -0.56914753720E+03  0.57482391220E+03  0.00000000000E+00 0. -1.
         22    1    3    3    0    0 -0.28123460616E+02  0.63353804471E+02 -0.44639372992E+03  0.45174328516E+03  0.00000000000E+00 0. -1.
</event>
<event>
 7    1  0.6188600E-006  0.6639737E+02  0.7818608E-02  0.1430270E+00
          2   -1    0    0  502    0  0.00000000000E+00  0.00000000000E+00  0.52166952875E+03  0.52166952875E+03  0.00000000000E+00 0. -1.
          1   -1    0    0  501    0 -0.00000000000E+00 -0.00000000000E+00 -0.96969930568E+03  0.96969930568E+03  0.00000000000E+00 0. -1.
         25    2    1    2    0    0  0.52894309372E+02  0.13871667926E+01  0.70559907670E+02  0.15298579742E+03  0.12500488569E+03 0.  0.
          2    1    1    2  501    0 -0.57246059721E+00  0.42151733606E+02 -0.92517725156E+03  0.92613716217E+03  0.00000000000E+00 0. -1.
          1    1    1    2  502    0 -0.52321848775E+02 -0.43538900399E+02  0.40658756696E+03  0.41224587483E+03  0.00000000000E+00 0. -1.
         22    1    3    3    0    0 -0.11970166765E+02 -0.49984245802E+02  0.38628213202E+02  0.64295012061E+02  0.00000000000E+00 0. -1.
         22    1    3    3    0    0  0.64864476137E+02  0.51371412595E+02  0.31931694468E+02  0.88690785362E+02  0.00000000000E+00 0. -1.
</event>
<event>
 7    1  0.6188600E-006  0.3665398E+02  0.7818608E-02  0.1540059E+00
          2   -1    0    0  502    0  0.00000000000E+00  0.00000000000E+00  0.11326828181E+04  0.11326828181E+04  0.00000000000E+00 0. -1.
          1   -1    0    0  501    0 -0.00000000000E+00 -0.00000000000E+00 -0.32775797395E+03  0.32775797395E+03  0.00000000000E+00 0. -1.
         25    2    1    2    0    0  0.56617918391E+02 -0.41008592736E+00  0.25133493253E+02  0.13950797225E+03  0.12500009994E+03 0.  0.
          2    1    1    2  501    0 -0.27652384965E+02 -0.21973859916E+02 -0.26909741326E+03  0.27140545820E+03  0.00000000000E+00 0. -1.
          1    1    1    2  502    0 -0.28965533426E+02  0.22383945844E+02  0.10488887642E+04  0.10495273616E+04  0.00000000000E+00 0. -1.
         22    1    3    3    0    0  0.15594382843E+02  0.29273622357E+02 -0.43195918702E+02  0.54461152528E+02  0.00000000000E+00 0.  1.
         22    1    3    3    0    0  0.41023535548E+02 -0.29683708284E+02  0.68329411955E+02  0.85046819720E+02  0.00000000000E+00 0.  1.
</event>
<event>
 7    1  0.6188600E-006  0.6279298E+02  0.7818608E-02  0.1416932E+00
          2   -1    0    0  502    0  0.00000000000E+00  0.00000000000E+00  0.62340018889E+02  0.62340018889E+02  0.00000000000E+00 0. -1.
          1   -1    0    0  501    0 -0.00000000000E+00 -0.00000000000E+00 -0.36581183698E+03  0.36581183698E+03  0.00000000000E+00 0. -1.
         25    2    1    2    0    0 -0.43672425353E+02  0.62336180270E+02 -0.17363696282E+03  0.22708366937E+03  0.12499647166E+03 0.  0.
          2    1    1    2  501    0  0.60888152506E+02 -0.16071110806E+02 -0.13738478170E+03  0.15112983148E+03  0.00000000000E+00 0. -1.
          1    1    1    2  502    0 -0.17215727153E+02 -0.46265069463E+02  0.75499264351E+01  0.49938355029E+02  0.00000000000E+00 0. -1.
         22    1    3    3    0    0 -0.10239871993E+02 -0.84490453648E+01 -0.14204824845E+03  0.14266725705E+03  0.00000000000E+00 0.  1.
         22    1    3    3    0    0 -0.33432553359E+02  0.70785225634E+02 -0.31588714370E+02  0.84416412313E+02  0.00000000000E+00 0.  1.
</event>
<event>
 7    1  0.6188600E-006  0.1116055E+03  0.7818608E-02  0.1398519E+00
          2   -1    0    0  502    0  0.00000000000E+00  0.00000000000E+00  0.62538823198E+02  0.62538823198E+02  0.00000000000E+00 0. -1.
          1   -1    0    0  501    0 -0.00000000000E+00 -0.00000000000E+00 -0.45020379526E+03  0.45020379526E+03  0.00000000000E+00 0. -1.
         25    2    1    2    0    0  0.46398705432E+02 -0.77629793481E+02 -0.20867434839E+03  0.25951762208E+03  0.12500075116E+03 0.  0.
          2    1    1    2  501    0  0.67937090716E+01 -0.31353253036E+02 -0.10808612543E+03  0.11274658075E+03  0.00000000000E+00 0. -1.
          1    1    1    2  502    0 -0.53192414504E+02  0.10898304652E+03 -0.70904498245E+02  0.14047841564E+03  0.00000000000E+00 0. -1.
         22    1    3    3    0    0  0.34472469370E+02 -0.25812645177E+02  0.11298964645E+01  0.43080395327E+02  0.00000000000E+00 0. -1.
         22    1    3    3    0    0  0.11926236062E+02 -0.51817148304E+02 -0.20980424485E+03  0.21643722675E+03  0.00000000000E+00 0. -1.
</event>
<event>
 7    1  0.6188600E-006  0.1005331E+03  0.7818608E-02  0.1314703E+00
          2   -1    0    0  502    0  0.00000000000E+00  0.00000000000E+00  0.12198016171E+04  0.12198016171E+04  0.00000000000E+00 0. -1.
          1   -1    0    0  501    0 -0.00000000000E+00 -0.00000000000E+00 -0.18643988778E+03  0.18643988778E+03  0.00000000000E+00 0. -1.
         25    2    1    2    0    0  0.23220535812E+02  0.99523280307E+02  0.72249889510E+02  0.17687430728E+03  0.12498158839E+03 0.  0.
          2    1    1    2  501    0  0.59703309378E+02 -0.40848929279E+02 -0.12182073049E+03  0.14168066400E+03  0.00000000000E+00 0. -1.
          1    1    1    2  502    0 -0.82923845190E+02 -0.58674351028E+02  0.10829325703E+04  0.10876865336E+04  0.00000000000E+00 0. -1.
         22    1    3    3    0    0  0.47371152276E+02 -0.44074757474E+01  0.47733971327E+02  0.67394242551E+02  0.00000000000E+00 0. -1.
         22    1    3    3    0    0 -0.24150616463E+02  0.10393075605E+03  0.24515918183E+02  0.10948006473E+03  0.00000000000E+00 0. -1.
</event>
<event>
 7    1  0.6188600E-006  0.5790618E+02  0.7818608E-02  0.1452806E+00
          2   -1    0    0  502    0  0.00000000000E+00  0.00000000000E+00  0.15767099916E+03  0.15767099916E+03  0.00000000000E+00 0. -1.
          1   -1    0    0  501    0 -0.00000000000E+00 -0.00000000000E+00 -0.75872135521E+03  0.75872135521E+03  0.00000000000E+00 0. -1.
         25    2    1    2    0    0  0.19885086171E+02 -0.94488931741E+01 -0.25458215720E+03  0.28446783204E+03  0.12500069786E+03 0.  0.
          2    1    1    2  501    0 -0.58558653020E+02  0.22636728347E+02 -0.48420328143E+03  0.48825644396E+03  0.00000000000E+00 0. -1.
          1    1    1    2  502    0  0.38673566849E+02 -0.13187835173E+02  0.13773508258E+03  0.14366807838E+03  0.00000000000E+00 0. -1.
         22    1    3    3    0    0  0.13863469645E+02  0.32505997460E+02 -0.23523763792E+03  0.23787724136E+03  0.00000000000E+00 0. -1.
         22    1    3    3    0    0  0.60216165258E+01 -0.41954890634E+02 -0.19344519278E+02  0.46590590679E+02  0.00000000000E+00 0. -1.
</event>
<event>
 7    1  0.6188600E-006  0.4432810E+02  0.7818608E-02  0.1559058E+00
          2   -1    0    0  502    0  0.00000000000E+00  0.00000000000E+00  0.28656731856E+04  0.28656731856E+04  0.00000000000E+00 0. -1.
          1   -1    0    0  501    0 -0.00000000000E+00 -0.00000000000E+00 -0.86332005954E+01  0.86332005954E+01  0.00000000000E+00 0. -1.
         25    2    1    2    0    0  0.34039087093E+02 -0.12810773161E+02  0.95179365229E+03  0.96065524467E+03  0.12499826879E+03 0.  0.
          2    1    1    2  501    0 -0.26774210225E+02  0.37617278404E+02  0.12561593084E+03  0.13383303049E+03  0.00000000000E+00 0. -1.
          1    1    1    2  502    0 -0.72648768683E+01 -0.24806505243E+02  0.17796304019E+04  0.17798181111E+04  0.00000000000E+00 0. -1.
         22    1    3    3    0    0 -0.43905940721E+02 -0.82851559818E+01  0.51532377793E+03  0.51725716190E+03  0.00000000000E+00 0.  1.
         22    1    3    3    0    0  0.77945027814E+02 -0.45256171789E+01  0.43646987436E+03  0.44339808276E+03  0.00000000000E+00 0.  1.
</event>
<event>
 7    1  0.6188600E-006  0.2639290E+03  0.7818608E-02  0.1263256E+00
          2   -1    0    0  502    0  0.00000000000E+00  0.00000000000E+00  0.11460561627E+03  0.11460561627E+03  0.00000000000E+00 0. -1.
          1   -1    0    0  501    0 -0.00000000000E+00 -0.00000000000E+00 -0.14034713473E+04  0.14034713473E+04  0.00000000000E+00 0. -1.
         25    2    1    2    0    0 -0.20582427598E+03  0.20803399068E+03 -0.62783881128E+03  0.70388079245E+03  0.12499929268E+03 0.  0.
          2    1    1    2  501    0  0.17452232878E+03 -0.17618642156E+03 -0.70752527278E+03  0.74972775726E+03  0.00000000000E+00 0. -1.
          1    1    1    2  502    0  0.31301947204E+02 -0.31847569119E+02  0.46498352994E+02  0.64468413884E+02  0.00000000000E+00 0. -1.
         22    1    3    3    0    0 -0.78294061388E+02  0.14498883922E+03 -0.42760055608E+03  0.45825097830E+03  0.00000000000E+00 0.  1.
         22    1    3    3    0    0 -0.12753021460E+03  0.63045151453E+02 -0.20023825519E+03  0.24562981415E+03  0.00000000000E+00 0.  1.
</event>
<event>
 7    1  0.6188600E-006  0.7412280E+02  0.7818608E-02  0.1353583E+00
          2   -1    0    0  502    0  0.00000000000E+00  0.00000000000E+00  0.72263126632E+03  0.72263126632E+03  0.00000000000E+00 0. -1.
          1   -1    0    0  501    0 -0.00000000000E+00 -0.00000000000E+00 -0.20867332041E+03  0.20867332041E+03  0.00000000000E+00 0. -1.
         25    2    1    2    0    0 -0.51209132060E+02  0.88150144822E+02  0.29623833456E+03  0.33730728007E+03  0.12500490826E+03 0.  0.
          2    1    1    2  501    0  0.67811196053E+02 -0.16718687141E+02 -0.17817142598E+03  0.19137118342E+03  0.00000000000E+00 0. -1.
          1    1    1    2  502    0 -0.16602063993E+02 -0.71431457680E+02  0.39589103733E+03  0.40262612324E+03  0.00000000000E+00 0. -1.
         22    1    3    3    0    0 -0.26221929035E+02  0.79300118019E+02  0.29919527946E+03  0.31063469466E+03  0.00000000000E+00 0.  1.
         22    1    3    3    0    0 -0.24987203025E+02  0.88500268026E+01 -0.29569448936E+01  0.26672585411E+02  0.00000000000E+00 0.  1.
</event>
<event>
 7    1  0.6188600E-006  0.5798655E+02  0.7818608E-02  0.1424888E+00
          2   -1    0    0  502    0  0.00000000000E+00  0.00000000000E+00  0.61967065045E+03  0.61967065045E+03  0.00000000000E+00 0. -1.
          1   -1    0    0  501    0 -0.00000000000E+00 -0.00000000000E+00 -0.14785262534E+03  0.14785262534E+03  0.00000000000E+00 0. -1.
         25    2    1    2    0    0 -0.19396937871E+02  0.15066488971E+01  0.21019290891E+03  0.24532525264E+03  0.12499963775E+03 0.  0.
          2    1    1    2  501    0 -0.34928905481E+02 -0.36177444752E+02 -0.12264861059E+03  0.13255760117E+03  0.00000000000E+00 0. -1.
          1    1    1    2  502    0  0.54325843352E+02  0.34670795855E+02  0.38427372679E+03  0.38964042198E+03  0.00000000000E+00 0. -1.
         22    1    3    3    0    0 -0.23964072181E+02  0.46136756121E+02  0.30843761298E+02  0.60450100346E+02  0.00000000000E+00 0.  1.
         22    1    3    3    0    0  0.45671343099E+01 -0.44630107223E+02  0.17934914761E+03  0.18487515229E+03  0.00000000000E+00 0.  1.
</event>
<event>
 7    1  0.6188600E-006  0.1530306E+03  0.7818608E-02  0.1209191E+00
          2   -1    0    0  502    0  0.00000000000E+00  0.00000000000E+00  0.88756175389E+03  0.88756175389E+03  0.00000000000E+00 0. -1.
          1   -1    0    0  501    0 -0.00000000000E+00 -0.00000000000E+00 -0.17226689143E+04  0.17226689143E+04  0.00000000000E+00 0. -1.
         25    2    1    2    0    0  0.14832500565E+03 -0.17217726559E+03  0.71178985337E+02  0.26895479820E+03  0.12499966974E+03 0.  0.
          2    1    1    2  501    0 -0.33387898224E+01  0.13381073666E+03 -0.16131413982E+04  0.16186851551E+04  0.00000000000E+00 0. -1.
          1    1    1    2  502    0 -0.14498621583E+03  0.38366528935E+02  0.70685525246E+03  0.72259071489E+03  0.00000000000E+00 0. -1.
         22    1    3    3    0    0  0.26010589950E+02 -0.10223389496E+03  0.72579980455E+02  0.12804754441E+03  0.00000000000E+00 0.  1.
         22    1    3    3    0    0  0.12231441570E+03 -0.69943370634E+02 -0.14009951177E+01  0.14090725379E+03  0.00000000000E+00 0.  1.
</event>
<event>
 7    1  0.6188600E-006  0.2310307E+03  0.7818608E-02  0.1329348E+00
          2   -1    0    0  502    0  0.00000000000E+00  0.00000000000E+00  0.83301360006E+03  0.83301360006E+03  0.00000000000E+00 0. -1.
          1   -1    0    0  501    0 -0.00000000000E+00 -0.00000000000E+00 -0.55179008883E+03  0.55179008883E+03  0.00000000000E+00 0. -1.
         25    2    1    2    0    0  0.20187954517E+03 -0.43800119696E+02 -0.46370216612E+02  0.24586581036E+03  0.12500399384E+03 0.  0.
          2    1    1    2  501    0  0.26601060003E+02 -0.74685384343E+01 -0.38647189721E+03  0.38745828523E+03  0.00000000000E+00 0. -1.
          1    1    1    2  502    0 -0.22848060517E+03  0.51268658130E+02  0.71406562506E+03  0.75147959330E+03  0.00000000000E+00 0. -1.
         22    1    3    3    0    0  0.54787836718E+02 -0.69982994731E+02  0.17758186515E+01  0.88895894932E+02  0.00000000000E+00 0. -1.
         22    1    3    3    0    0  0.14709170845E+03  0.26182875035E+02 -0.48146035263E+02  0.15696991543E+03  0.00000000000E+00 0. -1.
</event>
<event>
 7    1  0.6188600E-006  0.5988238E+02  0.7818608E-02  0.1435389E+00
          2   -1    0    0  502    0  0.00000000000E+00  0.00000000000E+00  0.11226404102E+04  0.11226404102E+04  0.00000000000E+00 0. -1.
          1   -1    0    0  501    0 -0.00000000000E+00 -0.00000000000E+00 -0.17412509752E+03  0.17412509752E+03  0.00000000000E+00 0. -1.
         25    2    1    2    0    0  0.32942655543E+02 -0.32927929852E+01  0.24223749883E+01  0.12933266453E+03  0.12500003670E+03 0.  0.
          2    1    1    2  501    0  0.35445467075E+01 -0.44830305300E+02 -0.10519895269E+03  0.11440777828E+03  0.00000000000E+00 0. -1.
          1    1    1    2  502    0 -0.36487202250E+02  0.48123098285E+02  0.10512918904E+04  0.10530250649E+04  0.00000000000E+00 0. -1.
         22    1    3    3    0    0 -0.22129241118E+02  0.31586195550E+02 -0.36756678651E+02  0.53277054041E+02  0.00000000000E+00 0. -1.
         22    1    3    3    0    0  0.55071896661E+02 -0.34878988535E+02  0.39179053639E+02  0.76055610491E+02  0.00000000000E+00 0. -1.
</event>
<event>
 7    1  0.6188600E-006  0.1055249E+03  0.7818608E-02  0.1285592E+00
          2   -1    0    0  502    0  0.00000000000E+00  0.00000000000E+00  0.31936605495E+03  0.31936605495E+03  0.00000000000E+00 0. -1.
          1   -1    0    0  501    0 -0.00000000000E+00 -0.00000000000E+00 -0.12015543108E+04  0.12015543108E+04  0.00000000000E+00 0. -1.
         25    2    1    2    0    0  0.10226639116E+03  0.49246376496E+02 -0.38708758583E+03  0.42230933593E+03  0.12499902300E+03 0.  0.
          2    1    1    2  501    0 -0.73006977435E+02  0.52849518879E+02 -0.78485124192E+03  0.79000921662E+03  0.00000000000E+00 0. -1.
          1    1    1    2  502    0 -0.29259413726E+02 -0.10209589537E+03  0.28975057194E+03  0.30860181315E+03  0.00000000000E+00 0. -1.
         22    1    3    3    0    0  0.55040186825E+01  0.58489206970E+02 -0.23163239545E+03  0.23896620718E+03  0.00000000000E+00 0.  1.
         22    1    3    3    0    0  0.96762372478E+02 -0.92428304737E+01 -0.15545519038E+03  0.18334312875E+03  0.00000000000E+00 0.  1.
</event>
<event>
 7    1  0.6188600E-006  0.7768854E+02  0.7818608E-02  0.1362319E+00
          2   -1    0    0  502    0  0.00000000000E+00  0.00000000000E+00  0.18716042219E+04  0.18716042219E+04  0.00000000000E+00 0. -1.
          1   -1    0    0  501    0 -0.00000000000E+00 -0.00000000000E+00 -0.87014730769E+03  0.87014730769E+03  0.00000000000E+00 0. -1.
         25    2    1    2    0    0  0.67951046141E+02  0.11566498143E+03  0.27654314768E+02  0.18544217440E+03  0.12501322458E+03 0.  0.
          2    1    1    2  501    0 -0.22821469142E+02 -0.73290006058E+02 -0.78884704042E+03  0.79257296044E+03  0.00000000000E+00 0. -1.
          1    1    1    2  502    0 -0.45129577000E+02 -0.42374975376E+02  0.17626496399E+04  0.17637363947E+04  0.00000000000E+00 0. -1.
         22    1    3    3    0    0  0.15101133056E+02  0.74209902684E+02  0.72370454199E+02  0.10475035330E+03  0.00000000000E+00 0. -1.
         22    1    3    3    0    0  0.52849913085E+02  0.41455078750E+02 -0.44716139431E+02  0.80691821102E+02  0.00000000000E+00 0. -1.
</event>
<event>
 7    1  0.6188600E-006  0.6186748E+02  0.7818608E-02  0.1422023E+00
          2   -1    0    0  502    0  0.00000000000E+00  0.00000000000E+00  0.65358779375E+03  0.65358779375E+03  0.00000000000E+00 0. -1.
          1   -1    0    0  501    0 -0.00000000000E+00 -0.00000000000E+00 -0.46762382977E+03  0.46762382977E+03  0.00000000000E+00 0. -1.
         25    2    1    2    0    0  0.18697921088E+02 -0.26899570945E+02  0.72586374229E+01  0.12943044454E+03  0.12500541182E+03 0.  0.
          2    1    1    2  501    0 -0.33914266208E+02 -0.34218722575E+02 -0.40340583253E+03  0.40627252448E+03  0.00000000000E+00 0. -1.
          1    1    1    2  502    0  0.15216345120E+02  0.61118293521E+02  0.58211115909E+03  0.58550865450E+03  0.00000000000E+00 0. -1.
         22    1    3    3    0    0 -0.41793385707E+02 -0.23985626007E+02  0.38135755128E+02  0.61451876806E+02  0.00000000000E+00 0.  1.
         22    1    3    3    0    0  0.60491306795E+02 -0.29139449385E+01 -0.30877117705E+02  0.67978567730E+02  0.00000000000E+00 0.  1.
</event>
<event>
 7    1  0.6188600E-006  0.6500857E+02  0.7818608E-02  0.1519886E+00
          2   -1    0    0  502    0  0.00000000000E+00  0.00000000000E+00  0.16906520040E+04  0.16906520040E+04  0.00000000000E+00 0. -1.
          1   -1    0    0  501    0 -0.00000000000E+00 -0.00000000000E+00 -0.10831556323E+04  0.10831556323E+04  0.00000000000E+00 0. -1.
         25    2    1    2    0    0  0.70290026818E+02  0.32437705002E+02 -0.20956360644E+03  0.25599761534E+03  0.12499992535E+03 0.  0.
          2    1    1    2  501    0 -0.63596942162E+02 -0.10695036565E+02 -0.84907457489E+03  0.85152016334E+03  0.00000000000E+00 0. -1.
          1    1    1    2  502    0 -0.66930846563E+01 -0.21742668437E+02  0.16661345530E+04  0.16662898577E+04  0.00000000000E+00 0. -1.
         22    1    3    3    0    0  0.63899205242E+02 -0.26637298460E+02 -0.17273187455E+03  0.18608856651E+03  0.00000000000E+00 0.  1.
         22    1    3    3    0    0  0.63908215755E+01  0.59075003462E+02 -0.36831731895E+02  0.69909048834E+02  0.00000000000E+00 0.  1.
</event>
<event>
 7    1  0.1329459E-005  0.7573488E+02  0.7818608E-02  0.1345389E+00
          2   -1    0    0  502    0  0.00000000000E+00  0.00000000000E+00  0.12937995240E+04  0.12937995240E+04  0.00000000000E+00 0. -1.
          1   -1    0    0  501    0 -0.00000000000E+00 -0.00000000000E+00 -0.10153049592E+04  0.10153049592E+04  0.00000000000E+00 0. -1.
         25    2    1    2    0    0 -0.83424252475E+02 -0.14042311786E+02 -0.16748634865E+03  0.22546232851E+03  0.12499916868E+03 0.  0.
          2    1    1    2  501    0  0.34828911427E+02  0.68930216087E+02 -0.81594344715E+03  0.81959022488E+03  0.00000000000E+00 0. -1.
          1    1    1    2  502    0  0.48595341049E+02 -0.54887904301E+02  0.12619243607E+04  0.12640519298E+04  0.00000000000E+00 0. -1.
         22    1    3    3    0    0 -0.11177407554E+03 -0.31281523606E+02 -0.11517198307E+03  0.16351319019E+03  0.00000000000E+00 0.  1.
         22    1    3    3    0    0  0.28349823066E+02  0.17239211820E+02 -0.52314365580E+02  0.61949138315E+02  0.00000000000E+00 0.  1.
</event>
<event>
 7    1  0.6188600E-006  0.7721424E+02  0.7818608E-02  0.1447687E+00
          2   -1    0    0  502    0  0.00000000000E+00  0.00000000000E+00  0.90788997773E+03  0.90788997773E+03  0.00000000000E+00 0. -1.
          1   -1    0    0  501    0 -0.00000000000E+00 -0.00000000000E+00 -0.19941430222E+03  0.19941430222E+03  0.00000000000E+00 0. -1.
         25    2    1    2    0    0 -0.33765189015E+02 -0.35314819324E+02  0.59330376351E+02  0.14674386611E+03  0.12500577678E+03 0.  0.
          2    1    1    2  501    0  0.60769694483E+02  0.52145437499E+02 -0.14507275912E+03  0.16570518356E+03  0.00000000000E+00 0. -1.
          1    1    1    2  502    0 -0.27004505468E+02 -0.16830618174E+02  0.79421805827E+03  0.79485523028E+03  0.00000000000E+00 0. -1.
         22    1    3    3    0    0  0.39026808460E+02 -0.46145307965E+02  0.22918768029E+02  0.64635525477E+02  0.00000000000E+00 0.  1.
         22    1    3    3    0    0 -0.72791997475E+02  0.10830488641E+02  0.36411608322E+02  0.82108340631E+02  0.00000000000E+00 0.  1.
</event>
<event>
 7    1  0.6188600E-006  0.8319689E+02  0.7818608E-02  0.1473742E+00
          2   -1    0    0  502    0  0.00000000000E+00  0.00000000000E+00  0.39768621123E+02  0.39768621123E+02  0.00000000000E+00 0. -1.
          1   -1    0    0  501    0 -0.00000000000E+00 -0.00000000000E+00 -0.12688829224E+04  0.12688829224E+04  0.00000000000E+00 0. -1.
         25    2    1    2    0    0  0.84717129989E+02  0.34527401931E+02 -0.30046203377E+03  0.33804176210E+03  0.12500266232E+03 0.  0.
          2    1    1    2  501    0 -0.65816257339E+02 -0.50028044364E+02 -0.94002237010E+03  0.94365069874E+03  0.00000000000E+00 0. -1.
          1    1    1    2  502    0 -0.18900872649E+02  0.15500642433E+02  0.11370102637E+02  0.26959082639E+02  0.00000000000E+00 0. -1.
         22    1    3    3    0    0  0.70980669314E+02  0.37213981436E+02 -0.67848206572E+02  0.10500721387E+03  0.00000000000E+00 0. -1.
         22    1    3    3    0    0  0.13736460675E+02 -0.26865795055E+01 -0.23261382720E+03  0.23303454823E+03  0.00000000000E+00 0. -1.
</event>
<event>
 7    1  0.6188600E-006  0.7048972E+02  0.7818608E-02  0.1426851E+00
          2   -1    0    0  502    0  0.00000000000E+00  0.00000000000E+00  0.30579548583E+04  0.30579548583E+04  0.00000000000E+00 0. -1.
          1   -1    0    0  501    0 -0.00000000000E+00 -0.00000000000E+00 -0.10888861882E+03  0.10888861882E+03  0.00000000000E+00 0. -1.
         25    2    1    2    0    0 -0.44051939905E+01 -0.53173746811E+02  0.14349800340E+04  0.14414020112E+04  0.12500082703E+03 0.  0.
          2    1    1    2  501    0 -0.35567113062E+02  0.61113471473E+02 -0.93562296933E+02  0.11727650802E+03  0.00000000000E+00 0. -1.
          1    1    1    2  502    0  0.39972307052E+02 -0.79397246625E+01  0.16076485024E+04  0.16081649579E+04  0.00000000000E+00 0. -1.
         22    1    3    3    0    0  0.32145472181E+02  0.20887372394E+02  0.19856888213E+03  0.20223554252E+03  0.00000000000E+00 0. -1.
         22    1    3    3    0    0 -0.36550666172E+02 -0.74061119205E+02  0.12364111519E+04  0.12391664687E+04  0.00000000000E+00 0. -1.
</event>
<event>
 7    1  0.6188600E-006  0.7234481E+02  0.7818608E-02  0.1365740E+00
          2   -1    0    0  502    0  0.00000000000E+00  0.00000000000E+00  0.10057332257E+04  0.10057332257E+04  0.00000000000E+00 0. -1.
          1   -1    0    0  501    0 -0.00000000000E+00 -0.00000000000E+00 -0.22766598400E+03  0.22766598400E+03  0.00000000000E+00 0. -1.
         25    2    1    2    0    0  0.59724596935E+01 -0.26235264885E+02  0.58248501038E+03  0.59635391588E+03  0.12500098507E+03 0.  0.
          2    1    1    2  501    0 -0.19331992440E+02 -0.69714026921E+02 -0.20892687928E+03  0.22109774392E+03  0.00000000000E+00 0. -1.
          1    1    1    2  502    0  0.13359532746E+02  0.95949291806E+02  0.40450911058E+03  0.41594754988E+03  0.00000000000E+00 0. -1.
         22    1    3    3    0    0 -0.35548507358E+02 -0.55738008175E+02  0.44207382034E+03  0.44698957993E+03  0.00000000000E+00 0. -1.
         22    1    3    3    0    0  0.41520967052E+02  0.29502743290E+02  0.14041119004E+03  0.14936433595E+03  0.00000000000E+00 0. -1.
</event>
<event>
 7    1  0.6188600E-006  0.7458197E+02  0.7818608E-02  0.1448995E+00
          2   -1    0    0  502    0  0.00000000000E+00  0.00000000000E+00  0.77204127282E+03  0.77204127282E+03  0.00000000000E+00 0. -1.
          1   -1    0    0  501    0 -0.00000000000E+00 -0.00000000000E+00 -0.48167576435E+03  0.48167576435E+03  0.00000000000E+00 0. -1.
         25    2    1    2    0    0  0.75338959448E+02  0.65251849869E+02 -0.35784496781E+02  0.16382773435E+03  0.12500093443E+03 0.  0.
          2    1    1    2  501    0 -0.64769379372E+02 -0.34384948036E+02 -0.37796797669E+03  0.38501582897E+03  0.00000000000E+00 0. -1.
          1    1    1    2  502    0 -0.10569580076E+02 -0.30866901833E+02  0.70411798194E+03  0.70487347386E+03  0.00000000000E+00 0. -1.
         22    1    3    3    0    0  0.37077095239E+02  0.98382662126E+02 -0.41210016680E+02  0.11292530573E+03  0.00000000000E+00 0. -1.
         22    1    3    3    0    0  0.38261864209E+02 -0.33130812257E+02  0.54255198990E+01  0.50902428623E+02  0.00000000000E+00 0. -1.
</event>
<event>
 7    1  0.6188600E-006  0.1408852E+03  0.7818608E-02  0.1249059E+00
          2   -1    0    0  502    0  0.00000000000E+00  0.00000000000E+00  0.91490868689E+03  0.91490868689E+03  0.00000000000E+00 0. -1.
          1   -1    0    0  501    0 -0.00000000000E+00 -0.00000000000E+00 -0.23573563712E+04  0.23573563712E+04  0.00000000000E+00 0. -1.
         25    2    1    2    0    0  0.12366547575E+03  0.14476226109E+03  0.22305401223E+03  0.31879174052E+03  0.12500327727E+03 0.  0.
          2    1    1    2  501    0 -0.13192776392E+03 -0.48853204627E+02 -0.23037322621E+04  0.23080238096E+04  0.00000000000E+00 0. -1.
          1    1    1    2  502    0  0.82622881677E+01 -0.95909056459E+02  0.63823056554E+03  0.64544950794E+03  0.00000000000E+00 0. -1.
         22    1    3    3    0    0  0.35319347254E+02  0.38133238444E+02  0.15698235145E+03  0.16536341443E+03  0.00000000000E+00 0. -1.
         22    1    3    3    0    0  0.88346128500E+02  0.10662902264E+03  0.66071660774E+02  0.15342832609E+03  0.00000000000E+00 0. -1.
</event>
<event>
 7    1  0.6188600E-006  0.3801256E+02  0.7818608E-02  0.1564189E+00
          2   -1    0    0  502    0  0.00000000000E+00  0.00000000000E+00  0.45433923210E+03  0.45433923210E+03  0.00000000000E+00 0. -1.
          1   -1    0    0  501    0 -0.00000000000E+00 -0.00000000000E+00 -0.60375191990E+03  0.60375191990E+03  0.00000000000E+00 0. -1.
         25    2    1    2    0    0 -0.10722727256E+02  0.19367300566E+01 -0.15752228788E+03  0.20138775812E+03  0.12500012055E+03 0.  0.
          2    1    1    2  501    0  0.38561830220E+02  0.68089247195E+01 -0.42289902832E+03  0.42470809312E+03  0.00000000000E+00 0. -1.
          1    1    1    2  502    0 -0.27839102964E+02 -0.87456547761E+01  0.43100862840E+03  0.43199530077E+03  0.00000000000E+00 0. -1.
         22    1    3    3    0    0 -0.29440098311E+02  0.29328555878E+02 -0.11887582538E+01  0.41572788271E+02  0.00000000000E+00 0.  1.
         22    1    3    3    0    0  0.18717371055E+02 -0.27391825822E+02 -0.15633352963E+03  0.15981496984E+03  0.00000000000E+00 0.  1.
</event>
<event>
 7    1  0.6188600E-006  0.5572825E+02  0.7818608E-02  0.1461733E+00
          2   -1    0    0  502    0  0.00000000000E+00  0.00000000000E+00  0.70466073716E+03  0.70466073716E+03  0.00000000000E+00 0. -1.
          1   -1    0    0  501    0 -0.00000000000E+00 -0.00000000000E+00 -0.19567068512E+03  0.19567068512E+03  0.00000000000E+00 0. -1.
         25    2    1    2    0    0  0.57700759819E+02 -0.14981862349E+02  0.49305084962E+03  0.51213201402E+03  0.12500490226E+03 0.  0.
          2    1    1    2  501    0 -0.32247259260E+02  0.45554215212E+02 -0.17990087743E+03  0.18835975672E+03  0.00000000000E+00 0. -1.
          1    1    1    2  502    0 -0.25453500559E+02 -0.30572352864E+02  0.19584007985E+03  0.19983965154E+03  0.00000000000E+00 0. -1.
         22    1    3    3    0    0 -0.12289274026E+02 -0.53374135241E+02  0.14388250895E+03  0.15395454183E+03  0.00000000000E+00 0. -1.
         22    1    3    3    0    0  0.69990033845E+02  0.38392272893E+02  0.34916834067E+03  0.35817747219E+03  0.00000000000E+00 0. -1.
</event>
<event>
 7    1  0.6188600E-006  0.4130387E+02  0.7818608E-02  0.1549773E+00
          2   -1    0    0  502    0  0.00000000000E+00  0.00000000000E+00  0.25272048522E+04  0.25272048522E+04  0.00000000000E+00 0. -1.
          1   -1    0    0  501    0 -0.00000000000E+00 -0.00000000000E+00 -0.10165267363E+03  0.10165267363E+03  0.00000000000E+00 0. -1.
         25    2    1    2    0    0  0.47785124650E+02 -0.44400925971E+02  0.90190151192E+03  0.91285617004E+03  0.12500075843E+03 0.  0.
          2    1    1    2  501    0 -0.19484440157E+02  0.36306361929E+02 -0.91621809945E+02  0.10046069571E+03  0.00000000000E+00 0. -1.
          1    1    1    2  502    0 -0.28300684493E+02  0.80945640418E+01  0.16152724766E+04  0.16155406601E+04  0.00000000000E+00 0. -1.
         22    1    3    3    0    0  0.46266885374E+02 -0.73332232281E+02  0.84052698690E+03  0.84498748907E+03  0.00000000000E+00 0.  1.
         22    1    3    3    0    0  0.15182392759E+01  0.28931306310E+02  0.61374525018E+02  0.67868680969E+02  0.00000000000E+00 0.  1.
</event>
<event>
 7    1  0.6188600E-006  0.6496996E+02  0.7818608E-02  0.1412443E+00
          2   -1    0    0  502    0  0.00000000000E+00  0.00000000000E+00  0.43015466173E+03  0.43015466173E+03  0.00000000000E+00 0. -1.
          1   -1    0    0  501    0 -0.00000000000E+00 -0.00000000000E+00 -0.89018708862E+02  0.89018708862E+02  0.00000000000E+00 0. -1.
         25    2    1    2    0    0  0.18203205462E+02 -0.26909627459E+02  0.18641842197E+03  0.22678778113E+03  0.12500153950E+03 0.  0.
          2    1    1    2  501    0 -0.66470613628E+02  0.16394914937E+02 -0.48079479691E+02  0.83658664102E+02  0.00000000000E+00 0. -1.
          1    1    1    2  502    0  0.48267408167E+02  0.10514712522E+02  0.20279701058E+03  0.20872692536E+03  0.00000000000E+00 0. -1.
         22    1    3    3    0    0 -0.51887937510E+02 -0.28156417938E+02  0.87062647807E+02  0.10519052511E+03  0.00000000000E+00 0.  1.
         22    1    3    3    0    0  0.70091142972E+02  0.12467904786E+01  0.99355774168E+02  0.12159725601E+03  0.00000000000E+00 0.  1.
</event>
<event>
 7    1  0.6188600E-006  0.9090392E+02  0.7818608E-02  0.1346633E+00
          2   -1    0    0  502    0  0.00000000000E+00  0.00000000000E+00  0.63059321452E+02  0.63059321452E+02  0.00000000000E+00 0. -1.
          1   -1    0    0  501    0 -0.00000000000E+00 -0.00000000000E+00 -0.67666923289E+03  0.67666923289E+03  0.00000000000E+00 0. -1.
         25    2    1    2    0    0 -0.44277412475E+02 -0.23329559968E+02 -0.23549591743E+03  0.27126797593E+03  0.12499291986E+03 0.  0.
          2    1    1    2  501    0 -0.16728801884E+02 -0.58065344638E+02 -0.36012870973E+03  0.36516314797E+03  0.00000000000E+00 0. -1.
          1    1    1    2  502    0  0.61006214359E+02  0.81394904606E+02 -0.17985284279E+02  0.10329743045E+03  0.00000000000E+00 0. -1.
         22    1    3    3    0    0  0.32745570749E+02 -0.38943804059E+02 -0.13087177620E+03  0.14041479296E+03  0.00000000000E+00 0. -1.
         22    1    3    3    0    0 -0.77022983224E+02  0.15614244091E+02 -0.10462414123E+03  0.13085318296E+03  0.00000000000E+00 0. -1.
</event>
<event>
 7    1  0.6188600E-006  0.7686359E+02  0.7818608E-02  0.1361506E+00
          2   -1    0    0  502    0  0.00000000000E+00  0.00000000000E+00  0.45548787169E+03  0.45548787169E+03  0.00000000000E+00 0. -1.
          1   -1    0    0  501    0 -0.00000000000E+00 -0.00000000000E+00 -0.29304177281E+03  0.29304177281E+03  0.00000000000E+00 0. -1.
         25    2    1    2    0    0 -0.22900115542E+02 -0.68336897871E+02  0.10077481883E+03  0.17599236793E+03  0.12499361007E+03 0.  0.
          2    1    1    2  501    0  0.72405344968E+02  0.29376124108E+02 -0.24619206866E+03  0.25829445468E+03  0.00000000000E+00 0. -1.
          1    1    1    2  502    0 -0.49505229427E+02  0.38960773763E+02  0.30786334871E+03  0.31424282189E+03  0.00000000000E+00 0. -1.
         22    1    3    3    0    0 -0.59482156459E+02 -0.73081826195E+02  0.34884623208E+02  0.10047893905E+03  0.00000000000E+00 0.  1.
         22    1    3    3    0    0  0.36582040917E+02  0.47449283234E+01  0.65890195619E+02  0.75513428880E+02  0.00000000000E+00 0.  1.
</event>
<event>
 7    1  0.6188600E-006  0.1481032E+03  0.7818608E-02  0.1325183E+00
          2   -1    0    0  502    0  0.00000000000E+00  0.00000000000E+00  0.95295307862E+03  0.95295307862E+03  0.00000000000E+00 0. -1.
          1   -1    0    0  501    0 -0.00000000000E+00 -0.00000000000E+00 -0.38574836987E+03  0.38574836987E+03  0.00000000000E+00 0. -1.
         25    2    1    2    0    0  0.17278435446E+02 -0.15569316166E+03 -0.10730253313E+02  0.20069567270E+03  0.12499883913E+03 0.  0.
          2    1    1    2  501    0 -0.43562257118E+02  0.10090110119E+02 -0.27181633106E+03  0.27546977765E+03  0.00000000000E+00 0. -1.
          1    1    1    2  502    0  0.26283821673E+02  0.14560305154E+03  0.84975129313E+03  0.86253599814E+03  0.00000000000E+00 0. -1.
         22    1    3    3    0    0  0.43184891280E+01 -0.17421550374E+03 -0.21617066119E+02  0.17560463730E+03  0.00000000000E+00 0.  1.
         22    1    3    3    0    0  0.12959946318E+02  0.18522342077E+02  0.10886812806E+02  0.25091035404E+02  0.00000000000E+00 0.  1.
</event>
<event>
 7    1  0.6188600E-006  0.3628861E+02  0.7818608E-02  0.1583763E+00
          2   -1    0    0  502    0  0.00000000000E+00  0.00000000000E+00  0.54449423172E+03  0.54449423172E+03  0.00000000000E+00 0. -1.
          1   -1    0    0  501    0 -0.00000000000E+00 -0.00000000000E+00 -0.14565772811E+03  0.14565772811E+03  0.00000000000E+00 0. -1.
         25    2    1    2    0    0  0.16295150041E+02  0.52665488174E+01  0.21439081802E+03  0.24876215942E+03  0.12500368259E+03 0.  0.
          2    1    1    2  501    0 -0.32775285560E+02  0.16197654830E+02 -0.12526914566E+03  0.13049498925E+03  0.00000000000E+00 0. -1.
          1    1    1    2  502    0  0.16480135519E+02 -0.21464203647E+02  0.30971483125E+03  0.31089481115E+03  0.00000000000E+00 0. -1.
         22    1    3    3    0    0 -0.46068818996E+02 -0.29413965021E+02  0.99129872795E+02  0.11320004020E+03  0.00000000000E+00 0.  1.
         22    1    3    3    0    0  0.62363969037E+02  0.34680513839E+02  0.11526094522E+03  0.13556211922E+03  0.00000000000E+00 0.  1.
</event>
<event>
 7    1  0.6188600E-006  0.6847392E+02  0.7818608E-02  0.1375277E+00
          2   -1    0    0  502    0  0.00000000000E+00  0.00000000000E+00  0.87690741084E+02  0.87690741084E+02  0.00000000000E+00 0. -1.
          1   -1    0    0  501    0 -0.00000000000E+00 -0.00000000000E+00 -0.80223015938E+03  0.80223015938E+03  0.00000000000E+00 0. -1.
         25    2    1    2    0    0 -0.20568407304E+02  0.20023946325E+02 -0.67298566477E+02  0.14484043551E+03  0.12500254759E+03 0.  0.
          2    1    1    2  501    0 -0.53587253481E+02 -0.42627263508E+02 -0.66253346998E+03  0.66606251671E+03  0.00000000000E+00 0. -1.
          1    1    1    2  502    0  0.74155660785E+02  0.22603317184E+02  0.15292618156E+02  0.79017948241E+02  0.00000000000E+00 0. -1.
         22    1    3    3    0    0  0.16405278833E+02  0.62409751842E+02 -0.11376032569E+02  0.65524990771E+02  0.00000000000E+00 0. -1.
         22    1    3    3    0    0 -0.36973686136E+02 -0.42385805517E+02 -0.55922533908E+02  0.79315444742E+02  0.00000000000E+00 0. -1.
</event>
<event>
 7    1  0.6188600E-006  0.4154200E+02  0.7818608E-02  0.1578655E+00
          2   -1    0    0  502    0  0.00000000000E+00  0.00000000000E+00  0.55560699884E+02  0.55560699884E+02  0.00000000000E+00 0. -1.
          1   -1    0    0  501    0 -0.00000000000E+00 -0.00000000000E+00 -0.11511078042E+04  0.11511078042E+04  0.00000000000E+00 0. -1.
         25    2    1    2    0    0  0.35264406076E+02 -0.98613149650E+01 -0.13882454445E+03  0.19036220882E+03  0.12499877014E+03 0.  0.
          2    1    1    2  501    0  0.49246890048E+01  0.23892950941E+02 -0.97107673378E+03  0.97138311111E+03  0.00000000000E+00 0. -1.
          1    1    1    2  502    0 -0.40189095081E+02 -0.14031635976E+02  0.14354173862E+02  0.44923184202E+02  0.00000000000E+00 0. -1.
         22    1    3    3    0    0  0.46860417175E+02  0.48032332652E+02 -0.49914327599E+02  0.83632791281E+02  0.00000000000E+00 0. -1.
         22    1    3    3    0    0 -0.11596011099E+02 -0.57893647617E+02 -0.88910216846E+02  0.10672941754E+03  0.00000000000E+00 0. -1.
</event>
<event>
 7    1  0.6188600E-006  0.7972373E+02  0.7818608E-02  0.1462125E+00
          2   -1    0    0  502    0  0.00000000000E+00  0.00000000000E+00  0.11687422892E+03  0.11687422892E+03  0.00000000000E+00 0. -1.
          1   -1    0    0  501    0 -0.00000000000E+00 -0.00000000000E+00 -0.26642332450E+03  0.26642332450E+03  0.00000000000E+00 0. -1.
         25    2    1    2    0    0  0.29351403022E+02 -0.65995140021E+02  0.38791963783E+02  0.14948737494E+03  0.12499918179E+03 0.  0.
          2    1    1    2  501    0  0.24612624315E+02 -0.12771885227E+02 -0.99852265982E+02  0.10363096714E+03  0.00000000000E+00 0. -1.
          1    1    1    2  502    0 -0.53964027337E+02  0.78767025248E+02 -0.88488793379E+02  0.13017921135E+03  0.00000000000E+00 0. -1.
         22    1    3    3    0    0  0.87827950901E+01 -0.69085260998E+02  0.78330274707E+02  0.10481193974E+03  0.00000000000E+00 0. -1.
         22    1    3    3    0    0  0.20568607932E+02  0.30901209768E+01 -0.39538310924E+02  0.44675435203E+02  0.00000000000E+00 0. -1.
</event>
<event>
 7    1  0.6188600E-006  0.3429485E+02  0.7818608E-02  0.1565486E+00
          2   -1    0    0  502    0  0.00000000000E+00  0.00000000000E+00  0.14522161354E+04  0.14522161354E+04  0.00000000000E+00 0. -1.
          1   -1    0    0  501    0 -0.00000000000E+00 -0.00000000000E+00 -0.35235968721E+03  0.35235968721E+03  0.00000000000E+00 0. -1.
         25    2    1    2    0    0  0.51859910664E+02  0.72147684776E+01 -0.12717238249E+03  0.18584698684E+03  0.12499913773E+03 0.  0.
          2    1    1    2  501    0 -0.29804274786E+02  0.16081476489E+02 -0.19420362303E+03  0.19713435997E+03  0.00000000000E+00 0. -1.
          1    1    1    2  502    0 -0.22055635877E+02 -0.23296244967E+02  0.14212324537E+04  0.14215944758E+04  0.00000000000E+00 0. -1.
         22    1    3    3    0    0  0.16997739028E+02  0.52668835835E+02 -0.11450633160E+03  0.12717951634E+03  0.00000000000E+00 0. -1.
         22    1    3    3    0    0  0.34862171636E+02 -0.45454067357E+02 -0.12666050894E+02  0.58667470507E+02  0.00000000000E+00 0. -1.
</event>
<event>
 7    1  0.6188600E-006  0.7301703E+02  0.7818608E-02  0.1451961E+00
          2   -1    0    0  502    0  0.00000000000E+00  0.00000000000E+00  0.57141809303E+03  0.57141809303E+03  0.00000000000E+00 0. -1.
          1   -1    0    0  501    0 -0.00000000000E+00 -0.00000000000E+00 -0.11688844326E+04  0.11688844326E+04  0.00000000000E+00 0. -1.
         25    2    1    2    0    0  0.55108857505E+02  0.24569516354E+02 -0.14122037683E+02  0.13951860062E+03  0.12500144263E+03 0.  0.
          2    1    1    2  501    0 -0.75863575181E+01  0.31710996971E+02 -0.10891524191E+04  0.10896403683E+04  0.00000000000E+00 0. -1.
          1    1    1    2  502    0 -0.47522499987E+02 -0.56280513325E+02  0.50580811720E+03  0.51114355676E+03  0.00000000000E+00 0. -1.
         22    1    3    3    0    0 -0.10374100906E+02  0.17850576853E+02  0.45966699248E+02  0.50390500130E+02  0.00000000000E+00 0. -1.
         22    1    3    3    0    0  0.65482958412E+02  0.67189395010E+01 -0.60088736931E+02  0.89128100486E+02  0.00000000000E+00 0. -1.
</event>
<event>
 7    1  0.6188600E-006  0.1089717E+03  0.7818608E-02  0.1307523E+00
          2   -1    0    0  502    0  0.00000000000E+00  0.00000000000E+00  0.10643435415E+04  0.10643435415E+04  0.00000000000E+00 0. -1.
          1   -1    0    0  501    0 -0.00000000000E+00 -0.00000000000E+00 -0.53577255311E+03  0.53577255311E+03  0.00000000000E+00 0. -1.
         25    2    1    2    0    0  0.11324423909E+03  0.10935425352E+03 -0.13549418927E+03  0.24241844171E+03  0.12500166041E+03 0.  0.
          2    1    1    2  501    0 -0.12160688744E+02 -0.70177855907E+02 -0.34021133429E+03  0.34758677447E+03  0.00000000000E+00 0. -1.
          1    1    1    2  502    0 -0.10108355035E+03 -0.39176397609E+02  0.10042765119E+04  0.10101108784E+04  0.00000000000E+00 0. -1.
         22    1    3    3    0    0 -0.60888048522E+01  0.44725742532E+02 -0.87527078768E+02  0.98480734701E+02  0.00000000000E+00 0. -1.
         22    1    3    3    0    0  0.11933304394E+03  0.64628510985E+02 -0.47967110503E+02  0.14393770701E+03  0.00000000000E+00 0. -1.
</event>
<event>
 7    1  0.6188600E-006  0.2595010E+03  0.7818608E-02  0.1283158E+00
          2   -1    0    0  502    0  0.00000000000E+00  0.00000000000E+00  0.19532498891E+04  0.19532498891E+04  0.00000000000E+00 0. -1.
          1   -1    0    0  501    0 -0.00000000000E+00 -0.00000000000E+00 -0.13464100185E+04  0.13464100185E+04  0.00000000000E+00 0. -1.
         25    2    1    2    0    0 -0.10776417005E+03  0.26398234355E+03 -0.46536368221E+03  0.55989858861E+03  0.12499311480E+03 0.  0.
          2    1    1    2  501    0 -0.13456388003E+02 -0.35005664121E+02 -0.82454621539E+03  0.82539865048E+03  0.00000000000E+00 0. -1.
          1    1    1    2  502    0  0.12122055805E+03 -0.22897667943E+03  0.18967497682E+04  0.19143626685E+04  0.00000000000E+00 0. -1.
         22    1    3    3    0    0 -0.11461620798E+03  0.14294651220E+03 -0.22066735287E+03  0.28681816732E+03  0.00000000000E+00 0. -1.
         22    1    3    3    0    0  0.68520379385E+01  0.12103583135E+03 -0.24469632935E+03  0.27308042129E+03  0.00000000000E+00 0. -1.
</event>
<event>
 7    1  0.6188600E-006  0.2633864E+03  0.7818608E-02  0.1278012E+00
          2   -1    0    0  502    0  0.00000000000E+00  0.00000000000E+00  0.10929165532E+04  0.10929165532E+04  0.00000000000E+00 0. -1.
          1   -1    0    0  501    0 -0.00000000000E+00 -0.00000000000E+00 -0.62624618544E+03  0.62624618544E+03  0.00000000000E+00 0. -1.
         25    2    1    2    0    0 -0.22472010636E+03  0.16770182574E+03 -0.36554453802E+03  0.47735756561E+03  0.12499763043E+03 0.  0.
          2    1    1    2  501    0  0.19244693153E+03 -0.14615977648E+03 -0.13298043149E+03  0.27583019573E+03  0.00000000000E+00 0. -1.
          1    1    1    2  502    0  0.32273174829E+02 -0.21542049254E+02  0.96519533724E+03  0.96597497728E+03  0.00000000000E+00 0. -1.
         22    1    3    3    0    0 -0.79441769422E+02  0.22592079798E+02 -0.38331525828E+02  0.91053295771E+02  0.00000000000E+00 0. -1.
         22    1    3    3    0    0 -0.14527833694E+03  0.14510974594E+03 -0.32721301219E+03  0.38630426984E+03  0.00000000000E+00 0. -1.
</event>
<event>
 7    1  0.6188600E-006  0.1508131E+03  0.7818608E-02  0.1318188E+00
          2   -1    0    0  502    0  0.00000000000E+00  0.00000000000E+00  0.18816512149E+04  0.18816512149E+04  0.00000000000E+00 0. -1.
          1   -1    0    0  501    0 -0.00000000000E+00 -0.00000000000E+00 -0.12303939114E+03  0.12303939114E+03  0.00000000000E+00 0. -1.
         25    2    1    2    0    0  0.12365545177E+03  0.10834052482E+03  0.99258488672E+03  0.10138434956E+04  0.12500214469E+03 0.  0.
          2    1    1    2  501    0 -0.80771662485E+02 -0.12692234138E+03 -0.61116732446E+02  0.16238410386E+03  0.00000000000E+00 0. -1.
          1    1    1    2  502    0 -0.42883789289E+02  0.18581816564E+02  0.82714366944E+03  0.82846300652E+03  0.00000000000E+00 0. -1.
         22    1    3    3    0    0  0.11276615687E+03  0.45763169274E+02  0.40648487224E+03  0.42431170754E+03  0.00000000000E+00 0.  1.
         22    1    3    3    0    0  0.10889294903E+02  0.62577355545E+02  0.58610001448E+03  0.58953178807E+03  0.00000000000E+00 0.  1.
</event>
<event>
 7    1  0.6188600E-006  0.5998172E+02  0.7818608E-02  0.1398387E+00
          2   -1    0    0  502    0  0.00000000000E+00  0.00000000000E+00  0.41647976586E+04  0.41647976586E+04  0.00000000000E+00 0. -1.
          1   -1    0    0  501    0 -0.00000000000E+00 -0.00000000000E+00 -0.31367595244E+02  0.31367595244E+02  0.00000000000E+00 0. -1.
         25    2    1    2    0    0  0.27096463653E+02  0.20601634100E+02  0.26426749214E+03  0.29430987131E+03  0.12498938868E+03 0.  0.
          2    1    1    2  501    0 -0.47085566149E+02  0.36789892903E+02  0.39319591446E+02  0.71530252557E+02  0.00000000000E+00 0. -1.
          1    1    1    2  502    0  0.19989102496E+02 -0.57391527003E+02  0.38298429797E+04  0.38303251299E+04  0.00000000000E+00 0. -1.
         22    1    3    3    0    0 -0.48732574449E+02 -0.47332337726E+01  0.86602989209E+02  0.99485401212E+02  0.00000000000E+00 0. -1.
         22    1    3    3    0    0  0.75829038102E+02  0.25334867872E+02  0.17766450293E+03  0.19482447010E+03  0.00000000000E+00 0. -1.
</event>
<event>
 7    1  0.6188600E-006  0.1940192E+03  0.7818608E-02  0.1225070E+00
          2   -1    0    0  502    0  0.00000000000E+00  0.00000000000E+00  0.99105150375E+02  0.99105150375E+02  0.00000000000E+00 0. -1.
          1   -1    0    0  501    0 -0.00000000000E+00 -0.00000000000E+00 -0.14453344140E+04  0.14453344140E+04  0.00000000000E+00 0. -1.
         25    2    1    2    0    0 -0.35784101122E+02 -0.23519424009E+03 -0.10151544604E+04  0.10501234994E+04  0.12499581189E+03 0.  0.
          2    1    1    2  501    0 -0.47779573449E+01  0.15564821778E+03 -0.36653439743E+03  0.39824196298E+03  0.00000000000E+00 0. -1.
          1    1    1    2  502    0  0.40562058467E+02  0.79546022307E+02  0.35459594236E+02  0.96074102001E+02  0.00000000000E+00 0. -1.
         22    1    3    3    0    0 -0.45975688154E+02 -0.18723066521E+03 -0.55840881761E+03  0.59075332710E+03  0.00000000000E+00 0.  1.
         22    1    3    3    0    0  0.10191587031E+02 -0.47963574877E+02 -0.45674564278E+03  0.45937017226E+03  0.00000000000E+00 0.  1.
</event>
<event>
 7    1  0.6188600E-006  0.1514132E+03  0.7818608E-02  0.1292684E+00
          2   -1    0    0  502    0  0.00000000000E+00  0.00000000000E+00  0.19198760812E+04  0.19198760812E+04  0.00000000000E+00 0. -1.
          1   -1    0    0  501    0 -0.00000000000E+00 -0.00000000000E+00 -0.48514430433E+03  0.48514430433E+03  0.00000000000E+00 0. -1.
         25    2    1    2    0    0 -0.11842021530E+03 -0.15144315268E+03  0.55207437204E+02  0.23584786048E+03  0.12497190197E+03 0.  0.
          2    1    1    2  501    0  0.11525978544E+03  0.92756381029E+02 -0.38045664725E+03  0.40821051530E+03  0.00000000000E+00 0. -1.
          1    1    1    2  502    0  0.31604298568E+01  0.58686771656E+02  0.17599809869E+04  0.17609620098E+04  0.00000000000E+00 0. -1.
         22    1    3    3    0    0 -0.27512366711E+02 -0.69571551368E+01 -0.33144116819E+02  0.43633299318E+02  0.00000000000E+00 0. -1.
         22    1    3    3    0    0 -0.90907848591E+02 -0.14448599755E+03  0.88351554023E+02  0.19221456116E+03  0.00000000000E+00 0. -1.
</event>
<event>
 7    1  0.6188600E-006  0.4170830E+02  0.7818608E-02  0.1560127E+00
          2   -1    0    0  502    0  0.00000000000E+00  0.00000000000E+00  0.19407393972E+04  0.19407393972E+04  0.00000000000E+00 0. -1.
          1   -1    0    0  501    0 -0.00000000000E+00 -0.00000000000E+00 -0.97938658813E+03  0.97938658813E+03  0.00000000000E+00 0. -1.
         25    2    1    2    0    0 -0.62594099152E+01  0.21943720489E+02 -0.55802974192E+03  0.57231218478E+03  0.12499334745E+03 0.  0.
          2    1    1    2  501    0  0.31206701212E+02 -0.32997106996E+02 -0.41287408540E+03  0.41536451180E+03  0.00000000000E+00 0. -1.
          1    1    1    2  502    0 -0.24947291297E+02  0.11053386507E+02  0.19322566364E+04  0.19324492888E+04  0.00000000000E+00 0. -1.
         22    1    3    3    0    0  0.25285867835E+02  0.67115000974E+02 -0.29790994651E+03  0.30642149843E+03  0.00000000000E+00 0. -1.
         22    1    3    3    0    0 -0.31545277751E+02 -0.45171280485E+02 -0.26011979540E+03  0.26589068635E+03  0.00000000000E+00 0. -1.
</event>
<event>
 7    1  0.6188600E-006  0.8709203E+02  0.7818608E-02  0.1419569E+00
          2   -1    0    0  502    0  0.00000000000E+00  0.00000000000E+00  0.17253489822E+04  0.17253489822E+04  0.00000000000E+00 0. -1.
          1   -1    0    0  501    0 -0.00000000000E+00 -0.00000000000E+00 -0.57161610767E+03  0.57161610767E+03  0.00000000000E+00 0. -1.
         25    2    1    2    0    0 -0.74696357517E+01 -0.54261420092E+02  0.25670834845E+03  0.29073028040E+03  0.12499929044E+03 0.  0.
          2    1    1    2  501    0 -0.32450831945E+01  0.87449923991E+02 -0.55094185202E+03  0.55784849563E+03  0.00000000000E+00 0. -1.
          1    1    1    2  502    0  0.10714718946E+02 -0.33188503899E+02  0.14479663781E+04  0.14483863138E+04  0.00000000000E+00 0. -1.
         22    1    3    3    0    0 -0.20602008602E+02  0.22742898339E+02  0.17507106233E+03  0.17774014473E+03  0.00000000000E+00 0. -1.
         22    1    3    3    0    0  0.13132372851E+02 -0.77004318432E+02  0.81637286115E+02  0.11299013567E+03  0.00000000000E+00 0. -1.
</event>
<event>
 7    1  0.6188600E-006  0.8363094E+02  0.7818608E-02  0.1446333E+00
          2   -1    0    0  502    0  0.00000000000E+00  0.00000000000E+00  0.76215561853E+02  0.76215561853E+02  0.00000000000E+00 0. -1.
          1   -1    0    0  501    0 -0.00000000000E+00 -0.00000000000E+00 -0.34075207782E+03  0.34075207782E+03  0.00000000000E+00 0. -1.
         25    2    1    2    0    0  0.61226725313E+02  0.22700918826E+01 -0.10851847412E+03  0.17650881791E+03  0.12500095346E+03 0.  0.
          2    1    1    2  501    0 -0.90722332377E+02  0.98328621524E+00 -0.18048013329E+03  0.20200145286E+03  0.00000000000E+00 0. -1.
          1    1    1    2  502    0  0.29495607064E+02 -0.32533780979E+01  0.24462091443E+02  0.38457368902E+02  0.00000000000E+00 0. -1.
         22    1    3    3    0    0  0.81638140127E+02  0.43998248025E+02 -0.71019353239E+02  0.11680916183E+03  0.00000000000E+00 0. -1.
         22    1    3    3    0    0 -0.20411414814E+02 -0.41728156143E+02 -0.37499120879E+02  0.59699656083E+02  0.00000000000E+00 0. -1.
</event>
<event>
 7    1  0.6188600E-006  0.8110241E+02  0.7818608E-02  0.1452086E+00
          2   -1    0    0  502    0  0.00000000000E+00  0.00000000000E+00  0.14968104109E+04  0.14968104109E+04  0.00000000000E+00 0. -1.
          1   -1    0    0  501    0 -0.00000000000E+00 -0.00000000000E+00 -0.97032627489E+03  0.97032627489E+03  0.00000000000E+00 0. -1.
         25    2    1    2    0    0 -0.63403581612E+02  0.17702375709E+02  0.77807545748E+03  0.79079672474E+03  0.12499861625E+03 0.  0.
          2    1    1    2  501    0 -0.13276709975E+02  0.26151240800E+02 -0.96100268707E+03  0.96145011466E+03  0.00000000000E+00 0. -1.
          1    1    1    2  502    0  0.76680291587E+02 -0.43853616509E+02  0.70941136562E+03  0.71488984639E+03  0.00000000000E+00 0. -1.
         22    1    3    3    0    0  0.28334636457E+02  0.12349222254E+02  0.41936777386E+03  0.42050527306E+03  0.00000000000E+00 0.  1.
         22    1    3    3    0    0 -0.91738218069E+02  0.53531534560E+01  0.35870768361E+03  0.37029145168E+03  0.00000000000E+00 0.  1.
</event>
<event>
 7    1  0.6188600E-006  0.4688730E+02  0.7818608E-02  0.1564720E+00
          2   -1    0    0  502    0  0.00000000000E+00  0.00000000000E+00  0.14709217873E+04  0.14709217873E+04  0.00000000000E+00 0. -1.
          1   -1    0    0  501    0 -0.00000000000E+00 -0.00000000000E+00 -0.85264777986E+03  0.85264777986E+03  0.00000000000E+00 0. -1.
         25    2    1    2    0    0  0.34358314921E+02  0.17878902997E+01  0.46194699468E+03  0.47979561011E+03  0.12500044491E+03 0.  0.
          2    1    1    2  501    0 -0.39873676637E+02 -0.24711996257E+02 -0.84293224951E+03  0.84423656051E+03  0.00000000000E+00 0. -1.
          1    1    1    2  502    0  0.55153617152E+01  0.22924105957E+02  0.99925926229E+03  0.99953739656E+03  0.00000000000E+00 0. -1.
         22    1    3    3    0    0 -0.46327278711E+02 -0.50610543559E+01  0.21188537065E+03  0.21694985900E+03  0.00000000000E+00 0. -1.
         22    1    3    3    0    0  0.80685593632E+02  0.68489446556E+01  0.25006162403E+03  0.26284575111E+03  0.00000000000E+00 0. -1.
</event>
<event>
 7    1  0.6188600E-006  0.4648746E+02  0.7818608E-02  0.1536266E+00
          2   -1    0    0  502    0  0.00000000000E+00  0.00000000000E+00  0.45866541908E+02  0.45866541908E+02  0.00000000000E+00 0. -1.
          1   -1    0    0  501    0 -0.00000000000E+00 -0.00000000000E+00 -0.34092315001E+03  0.34092315001E+03  0.00000000000E+00 0. -1.
         25    2    1    2    0    0 -0.21891175485E+02  0.49580237119E+02 -0.26470093168E+03  0.29770713462E+03  0.12500212516E+03 0.  0.
          2    1    1    2  501    0  0.31190874180E+02 -0.22590887080E+02  0.98697663045E+01  0.39757151534E+02  0.00000000000E+00 0. -1.
          1    1    1    2  502    0 -0.92996986948E+01 -0.26989350039E+02 -0.40225442719E+02  0.49325405759E+02  0.00000000000E+00 0. -1.
         22    1    3    3    0    0 -0.14890898391E+02  0.31178412455E+01  0.10524738043E+02  0.18499456744E+02  0.00000000000E+00 0. -1.
         22    1    3    3    0    0 -0.70002770939E+01  0.46462395874E+02 -0.27522566973E+03  0.27920767788E+03  0.00000000000E+00 0. -1.
</event>
<event>
 7    1  0.6188600E-006  0.9536331E+02  0.7818608E-02  0.1301682E+00
          2   -1    0    0  502    0  0.00000000000E+00  0.00000000000E+00  0.50871829201E+03  0.50871829201E+03  0.00000000000E+00 0. -1.
          1   -1    0    0  501    0 -0.00000000000E+00 -0.00000000000E+00 -0.31967185998E+03  0.31967185998E+03  0.00000000000E+00 0. -1.
         25    2    1    2    0    0 -0.42873396627E+02  0.89902086785E+01  0.54069330384E+02  0.14306303218E+03  0.12499834678E+03 0.  0.
          2    1    1    2  501    0 -0.38488239782E+02 -0.76745726438E+02 -0.26135505905E+03  0.27509583424E+03  0.00000000000E+00 0. -1.
          1    1    1    2  502    0  0.81361636408E+02  0.67755517759E+02  0.39633216069E+03  0.41023128557E+03  0.00000000000E+00 0. -1.
         22    1    3    3    0    0  0.11273848888E+02 -0.40767859331E+02 -0.12251516704E+02  0.44036549419E+02  0.00000000000E+00 0. -1.
         22    1    3    3    0    0 -0.54147245515E+02  0.49758068010E+02  0.66320847087E+02  0.99026482758E+02  0.00000000000E+00 0. -1.
</event>
<event>
 7    1  0.6188600E-006  0.6153704E+02  0.7818608E-02  0.1396553E+00
          2   -1    0    0  502    0  0.00000000000E+00  0.00000000000E+00  0.18330590139E+03  0.18330590139E+03  0.00000000000E+00 0. -1.
          1   -1    0    0  501    0 -0.00000000000E+00 -0.00000000000E+00 -0.41807916874E+03  0.41807916874E+03  0.00000000000E+00 0. -1.
         25    2    1    2    0    0 -0.25832606434E+02 -0.25994872447E+02 -0.74082809417E+01  0.13047278909E+03  0.12500083647E+03 0.  0.
          2    1    1    2  501    0 -0.33735151205E+02  0.51465975017E+02 -0.33753881015E+03  0.34310239779E+03  0.00000000000E+00 0. -1.
          1    1    1    2  502    0  0.59567757639E+02 -0.25471102569E+02  0.11017382374E+03  0.12780988324E+03  0.00000000000E+00 0. -1.
         22    1    3    3    0    0 -0.65386724592E+02 -0.48553461493E+02 -0.18693852508E+02  0.83560292588E+02  0.00000000000E+00 0. -1.
         22    1    3    3    0    0  0.39554118158E+02  0.22558589045E+02  0.11285571566E+02  0.46912496507E+02  0.00000000000E+00 0. -1.
</event>
<event>
 7    1  0.6188600E-006  0.1630545E+03  0.7818608E-02  0.1220520E+00
          2   -1    0    0  502    0  0.00000000000E+00  0.00000000000E+00  0.17283106067E+04  0.17283106067E+04  0.00000000000E+00 0. -1.
          1   -1    0    0  501    0 -0.00000000000E+00 -0.00000000000E+00 -0.14086029337E+03  0.14086029337E+03  0.00000000000E+00 0. -1.
         25    2    1    2    0    0 -0.65129107949E+02  0.26617770317E+02  0.31747395181E+03  0.34836810805E+03  0.12498128750E+03 0.  0.
          2    1    1    2  501    0  0.16999111627E+03 -0.64282383298E+02 -0.55985919181E+02  0.19016736723E+03  0.00000000000E+00 0. -1.
          1    1    1    2  502    0 -0.10486200832E+03  0.37664612981E+02  0.13259622807E+04  0.13306354248E+04  0.00000000000E+00 0. -1.
         22    1    3    3    0    0 -0.41978122449E+02  0.40479080186E+02  0.31600930370E+03  0.32134498397E+03  0.00000000000E+00 0. -1.
         22    1    3    3    0    0 -0.23150985500E+02 -0.13861309869E+02  0.14646481132E+01  0.27023124079E+02  0.00000000000E+00 0. -1.
</event>
<event>
 7    1  0.6188600E-006  0.1835875E+03  0.7818608E-02  0.1325484E+00
          2   -1    0    0  502    0  0.00000000000E+00  0.00000000000E+00  0.94074028697E+03  0.94074028697E+03  0.00000000000E+00 0. -1.
          1   -1    0    0  501    0 -0.00000000000E+00 -0.00000000000E+00 -0.34261668454E+03  0.34261668454E+03  0.00000000000E+00 0. -1.
         25    2    1    2    0    0 -0.10251412557E+03 -0.12650939510E+03  0.42701116941E+02  0.20967409772E+03  0.12500427543E+03 0.  0.
          2    1    1    2  501    0  0.98214593065E+02  0.16222841511E+03 -0.22396258253E+03  0.29346789149E+03  0.00000000000E+00 0. -1.
          1    1    1    2  502    0  0.42995325059E+01 -0.35719020010E+02  0.77938506802E+03  0.78021498231E+03  0.00000000000E+00 0. -1.
         22    1    3    3    0    0 -0.95444806338E+02 -0.47901395723E+02  0.68225719397E+02  0.12672412381E+03  0.00000000000E+00 0. -1.
         22    1    3    3    0    0 -0.70693192321E+01 -0.78607999378E+02 -0.25524602456E+02  0.82949973907E+02  0.00000000000E+00 0. -1.
</event>
<event>
 7    1  0.6188600E-006  0.7067077E+02  0.7818608E-02  0.1464895E+00
          2   -1    0    0  502    0  0.00000000000E+00  0.00000000000E+00  0.79988140834E+03  0.79988140834E+03  0.00000000000E+00 0. -1.
          1   -1    0    0  501    0 -0.00000000000E+00 -0.00000000000E+00 -0.17152521302E+03  0.17152521302E+03  0.00000000000E+00 0. -1.
         25    2    1    2    0    0  0.42204846186E+02  0.22614014612E+01  0.10219314449E+03  0.16690990695E+03  0.12501646003E+03 0.  0.
          2    1    1    2  501    0  0.29354436410E+02  0.88556347160E+01 -0.13547804374E+03  0.13890430353E+03  0.00000000000E+00 0. -1.
          1    1    1    2  502    0 -0.71559282595E+02 -0.11117036177E+02  0.66164109457E+03  0.66559241090E+03  0.00000000000E+00 0. -1.
         22    1    3    3    0    0  0.82221586298E+02 -0.14012256240E+02  0.43605538311E+02  0.94117881137E+02  0.00000000000E+00 0. -1.
         22    1    3    3    0    0 -0.40016740112E+02  0.16273657701E+02  0.58587606175E+02  0.72792025810E+02  0.00000000000E+00 0. -1.
</event>
<event>
 7    1  0.6188600E-006  0.1542216E+03  0.7818608E-02  0.1346493E+00
          2   -1    0    0  502    0  0.00000000000E+00  0.00000000000E+00  0.12092280325E+03  0.12092280325E+03  0.00000000000E+00 0. -1.
          1   -1    0    0  501    0 -0.00000000000E+00 -0.00000000000E+00 -0.17248213150E+04  0.17248213150E+04  0.00000000000E+00 0. -1.
         25    2    1    2    0    0 -0.13068074999E+03  0.32206669339E+01 -0.64023601348E+03  0.66529314412E+03  0.12499993417E+03 0.  0.
          2    1    1    2  501    0  0.16633994117E+03 -0.28950900695E+01 -0.10624643518E+04  0.10754105525E+04  0.00000000000E+00 0. -1.
          1    1    1    2  502    0 -0.35659191181E+02 -0.32557686443E+00  0.98801853532E+02  0.10504042163E+03  0.00000000000E+00 0. -1.
         22    1    3    3    0    0 -0.16400553554E+01  0.76124188920E+01 -0.31879421688E+03  0.31888930904E+03  0.00000000000E+00 0. -1.
         22    1    3    3    0    0 -0.12904069464E+03 -0.43917519581E+01 -0.32144179659E+03  0.34640383508E+03  0.00000000000E+00 0. -1.
</event>
<event>
 7    1  0.6188600E-006  0.2358417E+02  0.7818608E-02  0.1702369E+00
          2   -1    0    0  502    0  0.00000000000E+00  0.00000000000E+00  0.86871884963E+03  0.86871884963E+03  0.00000000000E+00 0. -1.
          1   -1    0    0  501    0 -0.00000000000E+00 -0.00000000000E+00 -0.24188457890E+02  0.24188457890E+02  0.00000000000E+00 0. -1.
         25    2    1    2    0    0 -0.26982268616E+02 -0.34962082233E+02  0.45179912771E+03  0.47084893061E+03  0.12500349455E+03 0.  0.
          2    1    1    2  501    0  0.15669908361E+02  0.17068942476E+02 -0.50494234067E+01  0.23714795003E+02  0.00000000000E+00 0. -1.
          1    1    1    2  502    0  0.11312360255E+02  0.17893139757E+02  0.39778068744E+03  0.39834358191E+03  0.00000000000E+00 0. -1.
         22    1    3    3    0    0 -0.64366378214E+02 -0.19229490031E+02  0.12835552110E+03  0.14487216340E+03  0.00000000000E+00 0.  1.
         22    1    3    3    0    0  0.37384109598E+02 -0.15732592202E+02  0.32344360661E+03  0.32597676722E+03  0.00000000000E+00 0.  1.
</event>
<event>
 7    1  0.6188600E-006  0.3465476E+02  0.7818608E-02  0.1622867E+00
          2   -1    0    0  502    0  0.00000000000E+00  0.00000000000E+00  0.20589022485E+04  0.20589022485E+04  0.00000000000E+00 0. -1.
          1   -1    0    0  501    0 -0.00000000000E+00 -0.00000000000E+00 -0.21229278382E+03  0.21229278382E+03  0.00000000000E+00 0. -1.
         25    2    1    2    0    0  0.46738264461E+02  0.14326415229E+02  0.18398972521E+04  0.18447861865E+04  0.12499785628E+03 0.  0.
          2    1    1    2  501    0 -0.22330592746E+02  0.19777441925E+01 -0.20824936552E+03  0.20945253659E+03  0.00000000000E+00 0. -1.
          1    1    1    2  502    0 -0.24407671715E+02 -0.16304159421E+02  0.21496157809E+03  0.21695630922E+03  0.00000000000E+00 0. -1.
         22    1    3    3    0    0  0.76482656698E+02  0.21140452415E+02  0.70043115690E+03  0.70491156967E+03  0.00000000000E+00 0. -1.
         22    1    3    3    0    0 -0.29744392237E+02 -0.68140371860E+01  0.11394660952E+04  0.11398746168E+04  0.00000000000E+00 0. -1.
</event>
<event>
 7    1  0.6188600E-006  0.3369080E+02  0.7818608E-02  0.1634049E+00
          2   -1    0    0  502    0  0.00000000000E+00  0.00000000000E+00  0.16346077527E+04  0.16346077527E+04  0.00000000000E+00 0. -1.
          1   -1    0    0  501    0 -0.00000000000E+00 -0.00000000000E+00 -0.13484739763E+02  0.13484739763E+02  0.00000000000E+00 0. -1.
         25    2    1    2    0    0  0.35007279522E+02 -0.38331748929E+02  0.12567096892E+04  0.12639765047E+04  0.12499011506E+03 0.  0.
          2    1    1    2  501    0 -0.15227575882E+02  0.29625422997E+02  0.19645630493E+02  0.38671637572E+02  0.00000000000E+00 0. -1.
          1    1    1    2  502    0 -0.19779703641E+02  0.87063259318E+01  0.34476769318E+03  0.34544435015E+03  0.00000000000E+00 0. -1.
         22    1    3    3    0    0 -0.17506483730E+02 -0.45280933312E+01  0.25925009143E+02  0.31608332776E+02  0.00000000000E+00 0. -1.
         22    1    3    3    0    0  0.52513763253E+02 -0.33803655598E+02  0.12307846801E+04  0.12323681719E+04  0.00000000000E+00 0. -1.
</event>
<event>
 7    1  0.6188600E-006  0.1101718E+03  0.7818608E-02  0.1326155E+00
          2   -1    0    0  502    0  0.00000000000E+00  0.00000000000E+00  0.40357763791E+04  0.40357763791E+04  0.00000000000E+00 0. -1.
          1   -1    0    0  501    0 -0.00000000000E+00 -0.00000000000E+00 -0.99350500335E+02  0.99350500335E+02  0.00000000000E+00 0. -1.
         25    2    1    2    0    0 -0.66845388266E+00  0.14913718138E+03  0.53014080426E+03  0.56472722011E+03  0.12500086035E+03 0.  0.
          2    1    1    2  501    0  0.36755033031E+02 -0.10170946914E+03 -0.46055221918E+02  0.11754502129E+03  0.00000000000E+00 0. -1.
          1    1    1    2  502    0 -0.36086579149E+02 -0.47427712244E+02  0.34523402965E+04  0.34528546381E+04  0.00000000000E+00 0. -1.
         22    1    3    3    0    0  0.24869546333E+02 -0.94954448191E+01  0.33781779951E+02  0.43010073980E+02  0.00000000000E+00 0.  1.
         22    1    3    3    0    0 -0.25538000216E+02  0.15863262620E+03  0.49635902431E+03  0.52171714613E+03  0.00000000000E+00 0.  1.
</event>
<event>
 7    1  0.6188600E-006  0.1910859E+03  0.7818608E-02  0.1280734E+00
          2   -1    0    0  502    0  0.00000000000E+00  0.00000000000E+00  0.13727216997E+04  0.13727216997E+04  0.00000000000E+00 0. -1.
          1   -1    0    0  501    0 -0.00000000000E+00 -0.00000000000E+00 -0.10771208777E+03  0.10771208777E+03  0.00000000000E+00 0. -1.
         25    2    1    2    0    0  0.19007317789E+03 -0.91149867571E-01  0.65262064930E+03  0.69113422993E+03  0.12499996253E+03 0.  0.
          2    1    1    2  501    0 -0.24112246070E+01  0.52058932582E+02 -0.65668798532E+02  0.83835180959E+02  0.00000000000E+00 0. -1.
          1    1    1    2  502    0 -0.18766195328E+03 -0.51967782715E+02  0.67805776118E+03  0.70546437660E+03  0.00000000000E+00 0. -1.
         22    1    3    3    0    0  0.91368377269E+02  0.32449448639E+02  0.47956414475E+03  0.48926773449E+03  0.00000000000E+00 0.  1.
         22    1    3    3    0    0  0.98704800616E+02 -0.32540598507E+02  0.17305650455E+03  0.20186649545E+03  0.00000000000E+00 0.  1.
</event>
<event>
 7    1  0.6188600E-006  0.1060889E+03  0.7818608E-02  0.1407586E+00
          2   -1    0    0  502    0  0.00000000000E+00  0.00000000000E+00  0.14670556832E+04  0.14670556832E+04  0.00000000000E+00 0. -1.
          1   -1    0    0  501    0 -0.00000000000E+00 -0.00000000000E+00 -0.67834539773E+03  0.67834539773E+03  0.00000000000E+00 0. -1.
         25    2    1    2    0    0 -0.94527539369E+01  0.80483053912E+02 -0.93375004329E+01  0.14926329945E+03  0.12500186849E+03 0.  0.
          2    1    1    2  501    0  0.30985026850E+02 -0.10336661261E+03 -0.59400656729E+03  0.60372885509E+03  0.00000000000E+00 0. -1.
          1    1    1    2  502    0 -0.21532272913E+02  0.22883558700E+02  0.13920543532E+04  0.13924089264E+04  0.00000000000E+00 0. -1.
         22    1    3    3    0    0 -0.59816509778E+02  0.21202484409E+02 -0.27849245481E+02  0.69304694365E+02  0.00000000000E+00 0.  1.
         22    1    3    3    0    0  0.50363755841E+02  0.59280569503E+02  0.18511745048E+02  0.79958605089E+02  0.00000000000E+00 0.  1.
</event>
<event>
 7    1  0.6188600E-006  0.4736170E+02  0.7818608E-02  0.1539130E+00
          2   -1    0    0  502    0  0.00000000000E+00  0.00000000000E+00  0.70671355352E+03  0.70671355352E+03  0.00000000000E+00 0. -1.
          1   -1    0    0  501    0 -0.00000000000E+00 -0.00000000000E+00 -0.40942561333E+02  0.40942561333E+02  0.00000000000E+00 0. -1.
         25    2    1    2    0    0 -0.60718497146E+02  0.41213885866E+02  0.22395418348E+03  0.26676867123E+03  0.12499890946E+03 0.  0.
          2    1    1    2  501    0  0.21936615447E+02 -0.16585137418E+02 -0.80706358870E+01  0.28660374109E+02  0.00000000000E+00 0. -1.
          1    1    1    2  502    0  0.38781881699E+02 -0.24628748448E+02  0.44988744460E+03  0.45222706952E+03  0.00000000000E+00 0. -1.
         22    1    3    3    0    0  0.26653507630E+02  0.45024566174E+02  0.51547289433E+02  0.73448921545E+02  0.00000000000E+00 0. -1.
         22    1    3    3    0    0 -0.87372004776E+02 -0.38106803079E+01  0.17240689404E+03  0.19331974968E+03  0.00000000000E+00 0. -1.
</event>
<event>
 7    1  0.6188600E-006  0.6196280E+02  0.7818608E-02  0.1534445E+00
          2   -1    0    0  502    0  0.00000000000E+00  0.00000000000E+00  0.26281898385E+03  0.26281898385E+03  0.00000000000E+00 0. -1.
          1   -1    0    0  501    0 -0.00000000000E+00 -0.00000000000E+00 -0.16193260282E+03  0.16193260282E+03  0.00000000000E+00 0. -1.
         25    2    1    2    0    0  0.53196528548E+02  0.57839768070E+02 -0.33237700723E+02  0.15134598096E+03  0.12500220711E+03 0.  0.
          2    1    1    2  501    0 -0.34079907503E+02 -0.47626105513E+02 -0.56605450996E+02  0.81448530399E+02  0.00000000000E+00 0. -1.
          1    1    1    2  502    0 -0.19116621045E+02 -0.10213662557E+02  0.19072953275E+03  0.19195707532E+03  0.00000000000E+00 0. -1.
         22    1    3    3    0    0  0.75347820118E+02  0.84348035557E+02 -0.24945263727E+02  0.11581947712E+03  0.00000000000E+00 0. -1.
         22    1    3    3    0    0 -0.22151291569E+02 -0.26508267487E+02 -0.82924369962E+01  0.35526503834E+02  0.00000000000E+00 0. -1.
</event>
<event>
 7    1  0.6188600E-006  0.1150900E+03  0.7818608E-02  0.1310845E+00
          2   -1    0    0  502    0  0.00000000000E+00  0.00000000000E+00  0.23835117726E+04  0.23835117726E+04  0.00000000000E+00 0. -1.
          1   -1    0    0  501    0 -0.00000000000E+00 -0.00000000000E+00 -0.40140992675E+02  0.40140992675E+02  0.00000000000E+00 0. -1.
         25    2    1    2    0    0 -0.12468326219E+03  0.48314193012E+02  0.83900022267E+03  0.85873530072E+03  0.12499906383E+03 0.  0.
          2    1    1    2  501    0  0.52090396736E+02  0.39596970479E+02  0.99851268711E+01  0.66189366683E+02  0.00000000000E+00 0. -1.
          1    1    1    2  502    0  0.72592865455E+02 -0.87911163491E+02  0.14943854304E+04  0.14987280979E+04  0.00000000000E+00 0. -1.
         22    1    3    3    0    0 -0.10513229156E+03  0.75816933852E+01  0.76355315100E+03  0.77079419770E+03  0.00000000000E+00 0.  1.
         22    1    3    3    0    0 -0.19550970630E+02  0.40732499627E+02  0.75447071667E+02  0.87941103027E+02  0.00000000000E+00 0.  1.
</event>
<event>
 7    1  0.6188600E-006  0.1188118E+03  0.7818608E-02  0.1373651E+00
          2   -1    0    0  502    0  0.00000000000E+00  0.00000000000E+00  0.80939065366E+02  0.80939065366E+02  0.00000000000E+00 0. -1.
          1   -1    0    0  501    0 -0.00000000000E+00 -0.00000000000E+00 -0.19013239750E+04  0.19013239750E+04  0.00000000000E+00 0. -1.
         25    2    1    2    0    0  0.94779028513E+01  0.13446752676E+03 -0.26036326701E+03  0.31872320836E+03  0.12499642532E+03 0.  0.
          2    1    1    2  501    0  0.27488082089E+02 -0.24533106512E+02 -0.15463102793E+04  0.15467491548E+04  0.00000000000E+00 0. -1.
          1    1    1    2  502    0 -0.36965984941E+02 -0.10993442025E+03 -0.13711363311E+02  0.11679067721E+03  0.00000000000E+00 0. -1.
         22    1    3    3    0    0  0.32337394861E+02  0.74941099304E+02 -0.23725223573E+03  0.25089937989E+03  0.00000000000E+00 0. -1.
         22    1    3    3    0    0 -0.22859492010E+02  0.59526427458E+02 -0.23111031278E+02  0.67823828465E+02  0.00000000000E+00 0. -1.
</event>
<event>
 7    1  0.6188600E-006  0.1461203E+03  0.7818608E-02  0.1302767E+00
          2   -1    0    0  502    0  0.00000000000E+00  0.00000000000E+00  0.73154464918E+02  0.73154464918E+02  0.00000000000E+00 0. -1.
          1   -1    0    0  501    0 -0.00000000000E+00 -0.00000000000E+00 -0.94405938752E+03  0.94405938752E+03  0.00000000000E+00 0. -1.
         25    2    1    2    0    0  0.12120295693E+03  0.46434912088E+02 -0.17736045286E+03  0.25284016626E+03  0.12500024642E+03 0.  0.
          2    1    1    2  501    0 -0.11238186559E+03 -0.10120604162E+03 -0.69256775422E+03  0.70888817225E+03  0.00000000000E+00 0. -1.
          1    1    1    2  502    0 -0.88210913403E+01  0.54771129531E+02 -0.97671552195E+00  0.55485513927E+02  0.00000000000E+00 0. -1.
         22    1    3    3    0    0 -0.36819551371E+01 -0.31882560981E+02 -0.23635362795E+02  0.39858309834E+02  0.00000000000E+00 0.  1.
         22    1    3    3    0    0  0.12488491207E+03  0.78317473070E+02 -0.15372509007E+03  0.21298185643E+03  0.00000000000E+00 0.  1.
</event>
<event>
 7    1  0.6188600E-006  0.7298361E+02  0.7818608E-02  0.1373315E+00
          2   -1    0    0  502    0  0.00000000000E+00  0.00000000000E+00  0.10694262397E+04  0.10694262397E+04  0.00000000000E+00 0. -1.
          1   -1    0    0  501    0 -0.00000000000E+00 -0.00000000000E+00 -0.39365344032E+03  0.39365344032E+03  0.00000000000E+00 0. -1.
         25    2    1    2    0    0 -0.35042671842E+02  0.66193935661E+02  0.62910259317E+03  0.64575920967E+03  0.12500103272E+03 0.  0.
          2    1    1    2  501    0  0.59405723213E+02  0.94036873980E+01 -0.37928457121E+03  0.38402376911E+03  0.00000000000E+00 0. -1.
          1    1    1    2  502    0 -0.24363051371E+02 -0.75597623059E+02  0.42595477739E+03  0.43329670120E+03  0.00000000000E+00 0. -1.
         22    1    3    3    0    0 -0.77179510037E+02  0.68235639988E+02  0.42069491102E+03  0.43312467892E+03  0.00000000000E+00 0.  1.
         22    1    3    3    0    0  0.42136838195E+02 -0.20417043270E+01  0.20840768215E+03  0.21263453075E+03  0.00000000000E+00 0.  1.
</event>
<event>
 7    1  0.6188600E-006  0.5989747E+02  0.7818608E-02  0.1432252E+00
          2   -1    0    0  502    0  0.00000000000E+00  0.00000000000E+00  0.12632172552E+03  0.12632172552E+03  0.00000000000E+00 0. -1.
          1   -1    0    0  501    0 -0.00000000000E+00 -0.00000000000E+00 -0.11666304986E+04  0.11666304986E+04  0.00000000000E+00 0. -1.
         25    2    1    2    0    0 -0.48588270773E+02 -0.83408816270E+02 -0.66558165823E+03  0.68405647481E+03  0.12496586041E+03 0.  0.
          2    1    1    2  501    0  0.22683894919E+01  0.45978839116E+02 -0.48307313480E+03  0.48526163335E+03  0.00000000000E+00 0. -1.
          1    1    1    2  502    0  0.46319881281E+02  0.37429977154E+02  0.10834601994E+03  0.12363411596E+03  0.00000000000E+00 0. -1.
         22    1    3    3    0    0 -0.88651430214E+02 -0.73398871543E+02 -0.52865438582E+03  0.54103782683E+03  0.00000000000E+00 0.  1.
         22    1    3    3    0    0  0.40063159441E+02 -0.10009944727E+02 -0.13692727242E+03  0.14301864798E+03  0.00000000000E+00 0.  1.
</event>
<event>
 7    1  0.7863856E-006  0.1153313E+03  0.7818608E-02  0.1270697E+00
          2   -1    0    0  502    0  0.00000000000E+00  0.00000000000E+00  0.17037823886E+04  0.17037823886E+04  0.00000000000E+00 0. -1.
          1   -1    0    0  501    0 -0.00000000000E+00 -0.00000000000E+00 -0.49020560917E+03  0.49020560917E+03  0.00000000000E+00 0. -1.
         25    2    1    2    0    0 -0.12954383805E+02  0.82227700375E+01 -0.85963745177E+02  0.15248001314E+03  0.12499983566E+03 0.  0.
          2    1    1    2  501    0 -0.11467200177E+02 -0.12093876774E+03 -0.35898221406E+03  0.37898009477E+03  0.00000000000E+00 0. -1.
          1    1    1    2  502    0  0.24421583982E+02  0.11271599770E+03  0.16585227387E+04  0.16625278899E+04  0.00000000000E+00 0. -1.
         22    1    3    3    0    0 -0.28075509847E+02 -0.46243515389E+02 -0.78683035879E+02  0.95486737842E+02  0.00000000000E+00 0. -1.
         22    1    3    3    0    0  0.15121126042E+02  0.54466285426E+02 -0.72807092985E+01  0.56993275295E+02  0.00000000000E+00 0. -1.
</event>
<event>
 7    1  0.6188600E-006  0.9143111E+02  0.7818608E-02  0.1360434E+00
          2   -1    0    0  502    0  0.00000000000E+00  0.00000000000E+00  0.40224002427E+04  0.40224002427E+04  0.00000000000E+00 0. -1.
          1   -1    0    0  501    0 -0.00000000000E+00 -0.00000000000E+00 -0.74053504802E+03  0.74053504802E+03  0.00000000000E+00 0. -1.
         25    2    1    2    0    0 -0.48270603114E+02  0.85886630152E+01  0.15832291986E+03  0.20757430234E+03  0.12496850715E+03 0.  0.
          2    1    1    2  501    0 -0.25839954381E+02  0.46776296596E+02 -0.71435397945E+03  0.71635000742E+03  0.00000000000E+00 0. -1.
          1    1    1    2  502    0  0.74110557495E+02 -0.55364959611E+02  0.38378962543E+04  0.38390109810E+04  0.00000000000E+00 0. -1.
         22    1    3    3    0    0 -0.76627532539E+01 -0.26261466113E+02 -0.11383918545E+02  0.29630659650E+02  0.00000000000E+00 0.  1.
         22    1    3    3    0    0 -0.40607849860E+02  0.34850129128E+02  0.16970683841E+03  0.17794364269E+03  0.00000000000E+00 0.  1.
</event>
<event>
 7    1  0.6188600E-006  0.1552661E+03  0.7818608E-02  0.1295707E+00
          2   -1    0    0  502    0  0.00000000000E+00  0.00000000000E+00  0.73944236406E+03  0.73944236406E+03  0.00000000000E+00 0. -1.
          1   -1    0    0  501    0 -0.00000000000E+00 -0.00000000000E+00 -0.20396324441E+04  0.20396324441E+04  0.00000000000E+00 0. -1.
         25    2    1    2    0    0 -0.10988729506E+03  0.45138233088E+02 -0.94001565732E+02  0.19640203508E+03  0.12499914928E+03 0.  0.
          2    1    1    2  501    0 -0.47188729457E+02 -0.29638038561E+02 -0.18849639270E+04  0.18857874206E+04  0.00000000000E+00 0. -1.
          1    1    1    2  502    0  0.15707602452E+03 -0.15500194527E+02  0.67877541274E+03  0.69688535244E+03  0.00000000000E+00 0. -1.
         22    1    3    3    0    0 -0.82179587866E+02 -0.28121139092E+02 -0.21062493264E+02  0.89375118172E+02  0.00000000000E+00 0. -1.
         22    1    3    3    0    0 -0.27707707194E+02  0.73259372180E+02 -0.72939072468E+02  0.10702691691E+03  0.00000000000E+00 0. -1.
</event>
<event>
 7    1  0.6188600E-006  0.6636868E+02  0.7818608E-02  0.1401601E+00
          2   -1    0    0  502    0  0.00000000000E+00  0.00000000000E+00  0.13198456730E+03  0.13198456730E+03  0.00000000000E+00 0. -1.
          1   -1    0    0  501    0 -0.00000000000E+00 -0.00000000000E+00 -0.16858268967E+04  0.16858268967E+04  0.00000000000E+00 0. -1.
         25    2    1    2    0    0 -0.28902261737E+02  0.44080600958E+02 -0.16374349411E+03  0.21263909473E+03  0.12500005052E+03 0.  0.
          2    1    1    2  501    0  0.48126765672E+02  0.21342834078E+02 -0.14863126825E+04  0.14872447991E+04  0.00000000000E+00 0. -1.
          1    1    1    2  502    0 -0.19224503935E+02 -0.65423435036E+02  0.96213847252E+02  0.11792757017E+03  0.00000000000E+00 0. -1.
         22    1    3    3    0    0 -0.50075623448E+02 -0.24439248674E+02 -0.36607584521E+02  0.66670534601E+02  0.00000000000E+00 0.  1.
         22    1    3    3    0    0  0.21173361711E+02  0.68519849632E+02 -0.12713590959E+03  0.14596856013E+03  0.00000000000E+00 0.  1.
</event>
<event>
 7    1  0.6188600E-006  0.6262109E+02  0.7818608E-02  0.1408014E+00
          2   -1    0    0  502    0  0.00000000000E+00  0.00000000000E+00  0.25012228192E+03  0.25012228192E+03  0.00000000000E+00 0. -1.
          1   -1    0    0  501    0 -0.00000000000E+00 -0.00000000000E+00 -0.47862190760E+03  0.47862190760E+03  0.00000000000E+00 0. -1.
         25    2    1    2    0    0 -0.34173581845E+02  0.70063113885E+02 -0.39947324890E+03  0.42577022160E+03  0.12499892555E+03 0.  0.
          2    1    1    2  501    0 -0.16467430648E+02 -0.54245583987E+02 -0.50080337686E+02  0.75642579788E+02  0.00000000000E+00 0. -1.
          1    1    1    2  502    0  0.50641012493E+02 -0.15817529899E+02  0.22105396091E+03  0.22733138814E+03  0.00000000000E+00 0. -1.
         22    1    3    3    0    0  0.70444482713E+01  0.63087422230E+02 -0.36802067213E+03  0.37345530149E+03  0.00000000000E+00 0.  1.
         22    1    3    3    0    0 -0.41218030116E+02  0.69756916556E+01 -0.31452576775E+02  0.52314920114E+02  0.00000000000E+00 0.  1.
</event>
<event>
 7    1  0.6188600E-006  0.3391467E+02  0.7818608E-02  0.1592613E+00
          2   -1    0    0  502    0  0.00000000000E+00  0.00000000000E+00  0.13642026417E+03  0.13642026417E+03  0.00000000000E+00 0. -1.
          1   -1    0    0  501    0 -0.00000000000E+00 -0.00000000000E+00 -0.40947486403E+03  0.40947486403E+03  0.00000000000E+00 0. -1.
         25    2    1    2    0    0 -0.30497893097E+02  0.46302874006E+02 -0.13907310729E+03  0.19504016125E+03  0.12500103081E+03 0.  0.
          2    1    1    2  501    0  0.27445473683E+01 -0.27293747975E+02 -0.23900581438E+03  0.24057485431E+03  0.00000000000E+00 0. -1.
          1    1    1    2  502    0  0.27753345729E+02 -0.19009126031E+02  0.10502432181E+03  0.11028011264E+03  0.00000000000E+00 0. -1.
         22    1    3    3    0    0  0.38645403831E+01  0.43233148804E+02  0.78598269623E+01  0.44111412443E+02  0.00000000000E+00 0. -1.
         22    1    3    3    0    0 -0.34362433480E+02  0.30697252022E+01 -0.14693293426E+03  0.15092874881E+03  0.00000000000E+00 0. -1.
</event>
<event>
 7    1  0.6188600E-006  0.1366063E+03  0.7818608E-02  0.1321461E+00
          2   -1    0    0  502    0  0.00000000000E+00  0.00000000000E+00  0.41176035572E+03  0.41176035572E+03  0.00000000000E+00 0. -1.
          1   -1    0    0  501    0 -0.00000000000E+00 -0.00000000000E+00 -0.21508719216E+04  0.21508719216E+04  0.00000000000E+00 0. -1.
         25    2    1    2    0    0  0.18048405512E+02  0.11318888527E+03  0.10500042729E+03  0.19946428729E+03  0.12499377377E+03 0.  0.
          2    1    1    2  501    0  0.27413203997E+02 -0.13426539684E+03 -0.20989659148E+04  0.21034344753E+04  0.00000000000E+00 0. -1.
          1    1    1    2  502    0 -0.45461609509E+02  0.21076511571E+02  0.25485392163E+03  0.25973351468E+03  0.00000000000E+00 0. -1.
         22    1    3    3    0    0 -0.95078473374E+01  0.19099914227E+02 -0.27393163734E+02  0.34721625881E+02  0.00000000000E+00 0. -1.
         22    1    3    3    0    0  0.27556252849E+02  0.94088971046E+02  0.13239359103E+03  0.16474266141E+03  0.00000000000E+00 0. -1.
</event>
<event>
 7    1  0.6188600E-006  0.7858276E+02  0.7818608E-02  0.1486042E+00
          2   -1    0    0  502    0  0.00000000000E+00  0.00000000000E+00  0.98782083856E+03  0.98782083856E+03  0.00000000000E+00 0. -1.
          1   -1    0    0  501    0 -0.00000000000E+00 -0.00000000000E+00 -0.16786438643E+04  0.16786438643E+04  0.00000000000E+00 0. -1.
         25    2    1    2    0    0 -0.68040811389E+01  0.57650251112E+02 -0.43087597561E+03  0.45238125518E+03  0.12499938680E+03 0.  0.
          2    1    1    2  501    0  0.31042904742E+01 -0.81085386952E+02 -0.12355401524E+04  0.12382018999E+04  0.00000000000E+00 0. -1.
          1    1    1    2  502    0  0.36997906647E+01  0.23435135840E+02  0.97559310232E+03  0.97588154780E+03  0.00000000000E+00 0. -1.
         22    1    3    3    0    0 -0.51611694880E+02  0.29083613145E+02 -0.35402548402E+03  0.35894800032E+03  0.00000000000E+00 0. -1.
         22    1    3    3    0    0  0.44807613741E+02  0.28566637967E+02 -0.76850491596E+02  0.93433254853E+02  0.00000000000E+00 0. -1.
</event>
<event>
 7    1  0.6188600E-006  0.4794935E+02  0.7818608E-02  0.1535128E+00
          2   -1    0    0  502    0  0.00000000000E+00  0.00000000000E+00  0.22765947585E+04  0.22765947585E+04  0.00000000000E+00 0. -1.
          1   -1    0    0  501    0 -0.00000000000E+00 -0.00000000000E+00 -0.19375338126E+02  0.19375338126E+02  0.00000000000E+00 0. -1.
         25    2    1    2    0    0  0.26982114689E+02 -0.72069478970E+01  0.13232579254E+04  0.13294412671E+04  0.12499028383E+03 0.  0.
          2    1    1    2  501    0  0.26059635836E+02  0.99182045283E+01 -0.30172684294E+01  0.28046021282E+02  0.00000000000E+00 0. -1.
          1    1    1    2  502    0 -0.53041750525E+02 -0.27112566312E+01  0.93697876346E+03  0.93848280826E+03  0.00000000000E+00 0. -1.
         22    1    3    3    0    0 -0.42036412374E+02  0.15576170464E+02  0.27160698866E+03  0.27528173448E+03  0.00000000000E+00 0. -1.
         22    1    3    3    0    0  0.69018527063E+02 -0.22783118361E+02  0.10516509367E+04  0.10541595327E+04  0.00000000000E+00 0. -1.
</event>
<event>
 7    1  0.6188600E-006  0.7088632E+02  0.7818608E-02  0.1517932E+00
          2   -1    0    0  502    0  0.00000000000E+00  0.00000000000E+00  0.22446331887E+04  0.22446331887E+04  0.00000000000E+00 0. -1.
          1   -1    0    0  501    0 -0.00000000000E+00 -0.00000000000E+00 -0.83702431893E+02  0.83702431893E+02  0.00000000000E+00 0. -1.
         25    2    1    2    0    0 -0.75473255665E+02 -0.31531097479E+01  0.82921339030E+03  0.84197737652E+03  0.12499960597E+03 0.  0.
          2    1    1    2  501    0  0.67156602114E+02  0.22586194825E+02 -0.60991759367E+02  0.93488716511E+02  0.00000000000E+00 0. -1.
          1    1    1    2  502    0  0.83166535509E+01 -0.19433085078E+02  0.13927091259E+04  0.13928695276E+04  0.00000000000E+00 0. -1.
         22    1    3    3    0    0 -0.44492313049E+02  0.59111955219E+02  0.34916260108E+03  0.35691499150E+03  0.00000000000E+00 0.  1.
         22    1    3    3    0    0 -0.30980942616E+02 -0.62265064966E+02  0.48005078922E+03  0.48506238501E+03  0.00000000000E+00 0.  1.
</event>
<event>
 7    1  0.6188600E-006  0.7687350E+02  0.7818608E-02  0.1455363E+00
          2   -1    0    0  502    0  0.00000000000E+00  0.00000000000E+00  0.23076125411E+04  0.23076125411E+04  0.00000000000E+00 0. -1.
          1   -1    0    0  501    0 -0.00000000000E+00 -0.00000000000E+00 -0.32395515740E+02  0.32395515740E+02  0.00000000000E+00 0. -1.
         25    2    1    2    0    0  0.52481802193E+02 -0.17600949900E+02  0.22545181872E+03  0.26366494918E+03  0.12500619931E+03 0.  0.
          2    1    1    2  501    0  0.25316187987E+02  0.16479851740E+02  0.56300440644E+01  0.30727711983E+02  0.00000000000E+00 0. -1.
          1    1    1    2  502    0 -0.77797990180E+02  0.11210981608E+01  0.20441351625E+04  0.20456153956E+04  0.00000000000E+00 0. -1.
         22    1    3    3    0    0  0.82018475634E+02  0.17899817337E+02  0.18121162949E+03  0.19971251455E+03  0.00000000000E+00 0. -1.
         22    1    3    3    0    0 -0.29536673441E+02 -0.35500767237E+02  0.44240189233E+02  0.63952434635E+02  0.00000000000E+00 0. -1.
</event>
<event>
 7    1  0.6188600E-006  0.1344368E+03  0.7818608E-02  0.1294359E+00
          2   -1    0    0  502    0  0.00000000000E+00  0.00000000000E+00  0.11724566846E+04  0.11724566846E+04  0.00000000000E+00 0. -1.
          1   -1    0    0  501    0 -0.00000000000E+00 -0.00000000000E+00 -0.52109934519E+03  0.52109934519E+03  0.00000000000E+00 0. -1.
         25    2    1    2    0    0 -0.10353879883E+03 -0.16208840387E+03  0.96825869599E+02  0.24898294468E+03  0.12499729671E+03 0.  0.
          2    1    1    2  501    0  0.49376847034E+02  0.42531761519E+02 -0.43829240121E+03  0.44311088084E+03  0.00000000000E+00 0. -1.
          1    1    1    2  502    0  0.54161951798E+02  0.11955664235E+03  0.99282387103E+03  0.10014622043E+04  0.00000000000E+00 0. -1.
         22    1    3    3    0    0 -0.67651196007E+01  0.18643642254E+02 -0.44430066544E+01  0.20324678296E+02  0.00000000000E+00 0.  1.
         22    1    3    3    0    0 -0.96773679232E+02 -0.18073204612E+03  0.10126887625E+03  0.22865826638E+03  0.00000000000E+00 0.  1.
</event>
<event>
 7    1  0.6188600E-006  0.5893852E+02  0.7818608E-02  0.1494700E+00
          2   -1    0    0  502    0  0.00000000000E+00  0.00000000000E+00  0.10238558260E+04  0.10238558260E+04  0.00000000000E+00 0. -1.
          1   -1    0    0  501    0 -0.00000000000E+00 -0.00000000000E+00 -0.12095387575E+03  0.12095387575E+03  0.00000000000E+00 0. -1.
         25    2    1    2    0    0 -0.72099062074E+02 -0.31667162532E+02  0.77614014159E+03  0.79007530282E+03  0.12499752316E+03 0.  0.
          2    1    1    2  501    0  0.22021189279E+02  0.20051514838E+02 -0.10922529922E+03  0.11321290569E+03  0.00000000000E+00 0. -1.
          1    1    1    2  502    0  0.50077872795E+02  0.11615647694E+02  0.23598710789E+03  0.24152149325E+03  0.00000000000E+00 0. -1.
         22    1    3    3    0    0 -0.25080119374E+02 -0.65150466118E+02  0.61420962370E+03  0.61816426415E+03  0.00000000000E+00 0. -1.
         22    1    3    3    0    0 -0.47018942699E+02  0.33483303586E+02  0.16193051789E+03  0.17191103867E+03  0.00000000000E+00 0. -1.
</event>
<event>
 7    1  0.6188600E-006  0.7167782E+02  0.7818608E-02  0.1364092E+00
          2   -1    0    0  502    0  0.00000000000E+00  0.00000000000E+00  0.25889472742E+04  0.25889472742E+04  0.00000000000E+00 0. -1.
          1   -1    0    0  501    0 -0.00000000000E+00 -0.00000000000E+00 -0.53173054950E+03  0.53173054950E+03  0.00000000000E+00 0. -1.
         25    2    1    2    0    0 -0.57048117483E+02 -0.40032265314E+02  0.13583739347E+04  0.13658926418E+04  0.12500357067E+03 0.  0.
          2    1    1    2  501    0 -0.95100624826E+01  0.71044127772E+02 -0.52443243922E+03  0.52930812641E+03  0.00000000000E+00 0. -1.
          1    1    1    2  502    0  0.66558179966E+02 -0.31011862457E+02  0.12232752293E+04  0.12254770555E+04  0.00000000000E+00 0. -1.
         22    1    3    3    0    0 -0.91566100813E+01  0.43915215184E+02  0.34091968846E+03  0.34385843542E+03  0.00000000000E+00 0. -1.
         22    1    3    3    0    0 -0.47891507402E+02 -0.83947480498E+02  0.10174542462E+04  0.10220342064E+04  0.00000000000E+00 0. -1.
</event>
<event>
 7    1  0.6188600E-006  0.8212861E+02  0.7818608E-02  0.1426836E+00
          2   -1    0    0  502    0  0.00000000000E+00  0.00000000000E+00  0.18122785122E+04  0.18122785122E+04  0.00000000000E+00 0. -1.
          1   -1    0    0  501    0 -0.00000000000E+00 -0.00000000000E+00 -0.13280789782E+04  0.13280789782E+04  0.00000000000E+00 0. -1.
         25    2    1    2    0    0  0.92122015482E+02  0.49659891263E+02 -0.10565739914E+03  0.19427205999E+03  0.12500230704E+03 0.  0.
          2    1    1    2  501    0 -0.79762871978E+02 -0.16934052095E+02 -0.11765299462E+04  0.11793521917E+04  0.00000000000E+00 0. -1.
          1    1    1    2  502    0 -0.12359143504E+02 -0.32725839168E+02  0.17663868794E+04  0.17667332387E+04  0.00000000000E+00 0. -1.
         22    1    3    3    0    0 -0.11582187555E+02  0.26205982190E+02  0.15907168517E+02  0.32771002141E+02  0.00000000000E+00 0.  1.
         22    1    3    3    0    0  0.10370420304E+03  0.23453909073E+02 -0.12156456765E+03  0.16150105785E+03  0.00000000000E+00 0.  1.
</event>
<event>
 7    1  0.6188600E-006  0.1620331E+03  0.7818608E-02  0.1200329E+00
          2   -1    0    0  502    0  0.00000000000E+00  0.00000000000E+00  0.24567589722E+04  0.24567589722E+04  0.00000000000E+00 0. -1.
          1   -1    0    0  501    0 -0.00000000000E+00 -0.00000000000E+00 -0.11130231218E+04  0.11130231218E+04  0.00000000000E+00 0. -1.
         25    2    1    2    0    0 -0.41482658204E+02 -0.11457238512E+03 -0.11664603157E+02  0.17495285970E+03  0.12499919115E+03 0.  0.
          2    1    1    2  501    0 -0.11815321421E+03  0.73363573498E+02 -0.10120920681E+04  0.10216030297E+04  0.00000000000E+00 0. -1.
          1    1    1    2  502    0  0.15963587241E+03  0.41208811622E+02  0.23674925216E+04  0.23732262045E+04  0.00000000000E+00 0. -1.
         22    1    3    3    0    0  0.37916665847E+02 -0.18482824218E+02  0.19493783030E+02  0.46468224808E+02  0.00000000000E+00 0. -1.
         22    1    3    3    0    0 -0.79399324051E+02 -0.96089560902E+02 -0.31158386187E+02  0.12848463489E+03  0.00000000000E+00 0. -1.
</event>
<event>
 7    1  0.6188600E-006  0.1640046E+03  0.7818608E-02  0.1273109E+00
          2   -1    0    0  502    0  0.00000000000E+00  0.00000000000E+00  0.14505430812E+04  0.14505430812E+04  0.00000000000E+00 0. -1.
          1   -1    0    0  501    0 -0.00000000000E+00 -0.00000000000E+00 -0.37109358653E+03  0.37109358653E+03  0.00000000000E+00 0. -1.
         25    2    1    2    0    0  0.15500013650E+03  0.20008574878E+02  0.95849927187E+02  0.22189500803E+03  0.12499920265E+03 0.  0.
          2    1    1    2  501    0 -0.12320021448E+02  0.64141075310E+02 -0.29922316590E+03  0.30626845003E+03  0.00000000000E+00 0. -1.
          1    1    1    2  502    0 -0.14268011505E+03 -0.84149650188E+02  0.12828227334E+04  0.12934732097E+04  0.00000000000E+00 0. -1.
         22    1    3    3    0    0  0.78431640718E+01  0.17887971890E+02  0.69741417247E+02  0.72424857892E+02  0.00000000000E+00 0.  1.
         22    1    3    3    0    0  0.14715697243E+03  0.21206029874E+01  0.26108509939E+02  0.14947015014E+03  0.00000000000E+00 0.  1.
</event>
<event>
 7    1  0.6188600E-006  0.8720618E+02  0.7818608E-02  0.1370631E+00
          2   -1    0    0  502    0  0.00000000000E+00  0.00000000000E+00  0.22091016383E+04  0.22091016383E+04  0.00000000000E+00 0. -1.
          1   -1    0    0  501    0 -0.00000000000E+00 -0.00000000000E+00 -0.34605162034E+03  0.34605162034E+03  0.00000000000E+00 0. -1.
         25    2    1    2    0    0  0.11112115660E+03 -0.56520709437E+02 -0.14193459628E+03  0.22651853141E+03  0.12499085331E+03 0.  0.
          2    1    1    2  501    0 -0.51051692473E+02 -0.64980330336E+01 -0.15683498593E+03  0.16506275337E+03  0.00000000000E+00 0. -1.
          1    1    1    2  502    0 -0.60069464125E+02  0.63018742471E+02  0.21618196002E+04  0.21635719739E+04  0.00000000000E+00 0. -1.
         22    1    3    3    0    0  0.11491323173E+02  0.36128439041E+02 -0.48107073170E+02  0.61250347793E+02  0.00000000000E+00 0.  1.
         22    1    3    3    0    0  0.99629833425E+02 -0.92649148478E+02 -0.93827523113E+02  0.16526818362E+03  0.00000000000E+00 0.  1.
</event>
<event>
 7    1  0.6188600E-006  0.1353292E+03  0.7818608E-02  0.1362692E+00
          2   -1    0    0  502    0  0.00000000000E+00  0.00000000000E+00  0.26193694017E+04  0.26193694017E+04  0.00000000000E+00 0. -1.
          1   -1    0    0  501    0 -0.00000000000E+00 -0.00000000000E+00 -0.83406864132E+02  0.83406864132E+02  0.00000000000E+00 0. -1.
         25    2    1    2    0    0 -0.10129218775E+03 -0.44178580846E+02  0.49282128961E+03  0.52029815221E+03  0.12500195756E+03 0.  0.
          2    1    1    2  501    0 -0.34094364273E+02  0.96267608425E+01 -0.62694561109E+02  0.72011861468E+02  0.00000000000E+00 0. -1.
          1    1    1    2  502    0  0.13538655202E+03  0.34551820004E+02  0.21058358091E+04  0.21104662521E+04  0.00000000000E+00 0. -1.
         22    1    3    3    0    0  0.12439101645E+02  0.13857235745E+02  0.10531919986E+02  0.21393353426E+02  0.00000000000E+00 0. -1.
         22    1    3    3    0    0 -0.11373128940E+03 -0.58035816591E+02  0.48228936962E+03  0.49890479878E+03  0.00000000000E+00 0. -1.
</event>
<event>
 7    1  0.6188600E-006  0.1274485E+03  0.7818608E-02  0.1294015E+00
          2   -1    0    0  502    0  0.00000000000E+00  0.00000000000E+00  0.11379659595E+04  0.11379659595E+04  0.00000000000E+00 0. -1.
          1   -1    0    0  501    0 -0.00000000000E+00 -0.00000000000E+00 -0.25442752080E+03  0.25442752080E+03  0.00000000000E+00 0. -1.
         25    2    1    2    0    0 -0.11273225044E+03  0.10924779889E+03  0.17599182665E+02  0.20144333290E+03  0.12500417308E+03 0.  0.
          2    1    1    2  501    0  0.68303012759E+02  0.95153732098E+01 -0.15107015225E+03  0.16606635656E+03  0.00000000000E+00 0. -1.
          1    1    1    2  502    0  0.44429237681E+02 -0.11876317210E+03  0.10170094082E+04  0.10248837908E+04  0.00000000000E+00 0. -1.
         22    1    3    3    0    0 -0.45732783031E+02  0.74118925371E+02  0.68039595437E+02  0.11051917973E+03  0.00000000000E+00 0. -1.
         22    1    3    3    0    0 -0.66999467410E+02  0.35128873517E+02 -0.50440412772E+02  0.90924153163E+02  0.00000000000E+00 0. -1.
</event>
<event>
 7    1  0.6188600E-006  0.1189218E+03  0.7818608E-02  0.1315463E+00
          2   -1    0    0  502    0  0.00000000000E+00  0.00000000000E+00  0.11594556092E+04  0.11594556092E+04  0.00000000000E+00 0. -1.
          1   -1    0    0  501    0 -0.00000000000E+00 -0.00000000000E+00 -0.25238117823E+03  0.25238117823E+03  0.00000000000E+00 0. -1.
         25    2    1    2    0    0 -0.83272755913E+02 -0.14902946822E+03  0.23696554041E+02  0.21291091361E+03  0.12500158474E+03 0.  0.
          2    1    1    2  501    0  0.59060458974E+02  0.93326480122E+02 -0.13743188299E+03  0.17631078290E+03  0.00000000000E+00 0. -1.
          1    1    1    2  502    0  0.24212296939E+02  0.55702988093E+02  0.10208097599E+04  0.10226150909E+04  0.00000000000E+00 0. -1.
         22    1    3    3    0    0 -0.58441812968E+02 -0.16224120531E+03  0.44299663516E+02  0.17804525939E+03  0.00000000000E+00 0.  1.
         22    1    3    3    0    0 -0.24830942945E+02  0.13211737092E+02 -0.20603109475E+02  0.34865654225E+02  0.00000000000E+00 0.  1.
</event>
<event>
 7    1  0.6188600E-006  0.8753036E+02  0.7818608E-02  0.1363949E+00
          2   -1    0    0  502    0  0.00000000000E+00  0.00000000000E+00  0.70139421596E+03  0.70139421596E+03  0.00000000000E+00 0. -1.
          1   -1    0    0  501    0 -0.00000000000E+00 -0.00000000000E+00 -0.33142445448E+04  0.33142445448E+04  0.00000000000E+00 0. -1.
         25    2    1    2    0    0 -0.13770586174E+03 -0.24149046856E+02 -0.56298917431E+03  0.59340371275E+03  0.12500030041E+03 0.  0.
          2    1    1    2  501    0  0.50541384459E+02  0.19579089054E+02 -0.27330026331E+04  0.27335400426E+04  0.00000000000E+00 0. -1.
          1    1    1    2  502    0  0.87164477277E+02  0.45699578022E+01  0.68314147858E+03  0.68869500533E+03  0.00000000000E+00 0. -1.
         22    1    3    3    0    0 -0.16015948452E+03 -0.11854887744E+02 -0.45807051591E+03  0.48540724798E+03  0.00000000000E+00 0.  1.
         22    1    3    3    0    0  0.22453622781E+02 -0.12294159112E+02 -0.10491865840E+03  0.10799646478E+03  0.00000000000E+00 0.  1.
</event>
<event>
 7    1  0.6188600E-006  0.1370199E+03  0.7818608E-02  0.1370716E+00
          2   -1    0    0  502    0  0.00000000000E+00  0.00000000000E+00  0.48669914317E+03  0.48669914317E+03  0.00000000000E+00 0. -1.
          1   -1    0    0  501    0 -0.00000000000E+00 -0.00000000000E+00 -0.15837256735E+03  0.15837256735E+03  0.00000000000E+00 0. -1.
         25    2    1    2    0    0 -0.33777113393E+02 -0.14854102546E+03  0.24871119646E+03  0.31731397767E+03  0.12500228616E+03 0.  0.
          2    1    1    2  501    0  0.25711059932E+02  0.20254704288E+02 -0.10094412387E+03  0.10611798996E+03  0.00000000000E+00 0. -1.
          1    1    1    2  502    0  0.80660534610E+01  0.12828632117E+03  0.18055950324E+03  0.22163974289E+03  0.00000000000E+00 0. -1.
         22    1    3    3    0    0 -0.28795434008E+02 -0.49351158232E+02  0.19744825780E+03  0.20554933312E+03  0.00000000000E+00 0. -1.
         22    1    3    3    0    0 -0.49816793846E+01 -0.99189867229E+02  0.51262938657E+02  0.11176464454E+03  0.00000000000E+00 0. -1.
</event>
<event>
 7    1  0.6188600E-006  0.9392853E+02  0.7818608E-02  0.1412945E+00
          2   -1    0    0  502    0  0.00000000000E+00  0.00000000000E+00  0.46347546518E+03  0.46347546518E+03  0.00000000000E+00 0. -1.
          1   -1    0    0  501    0 -0.00000000000E+00 -0.00000000000E+00 -0.23848383148E+03  0.23848383148E+03  0.00000000000E+00 0. -1.
         25    2    1    2    0    0 -0.63250810594E+02 -0.44766218306E+02  0.16707825644E+03  0.22258693854E+03  0.12500048836E+03 0.  0.
          2    1    1    2  501    0  0.54754581256E+02  0.77725010148E+02 -0.19882513011E+03  0.22038755349E+03  0.00000000000E+00 0. -1.
          1    1    1    2  502    0  0.84962293375E+01 -0.32958791842E+02  0.25673850735E+03  0.25898480463E+03  0.00000000000E+00 0. -1.
         22    1    3    3    0    0 -0.42007566156E+02  0.39379199101E+02  0.88082572215E+02  0.10523258271E+03  0.00000000000E+00 0.  1.
         22    1    3    3    0    0 -0.21243244438E+02 -0.84145417407E+02  0.78995684229E+02  0.11735435583E+03  0.00000000000E+00 0.  1.
</event>
<event>
 7    1  0.6188600E-006  0.6342733E+03  0.7818608E-02  0.1157089E+00
          2   -1    0    0  502    0  0.00000000000E+00  0.00000000000E+00  0.78830669822E+03  0.78830669822E+03  0.00000000000E+00 0. -1.
          1   -1    0    0  501    0 -0.00000000000E+00 -0.00000000000E+00 -0.22440985860E+04  0.22440985860E+04  0.00000000000E+00 0. -1.
         25    2    1    2    0    0  0.43807248037E+03  0.41382864738E+03 -0.57948373167E+03  0.84533353150E+03  0.12500294699E+03 0.  0.
          2    1    1    2  501    0  0.57476598429E+02 -0.64330254980E+01 -0.13739508683E+04  0.13751676013E+04  0.00000000000E+00 0. -1.
          1    1    1    2  502    0 -0.49554907880E+03 -0.40739562188E+03  0.49764271214E+03  0.81190415147E+03  0.00000000000E+00 0. -1.
         22    1    3    3    0    0  0.26829545067E+02  0.59287929862E+02 -0.26269423646E+02  0.70178100106E+02  0.00000000000E+00 0.  1.
         22    1    3    3    0    0  0.41124293530E+03  0.35454071752E+03 -0.55321430803E+03  0.77515543139E+03  0.00000000000E+00 0.  1.
</event>
<event>
 7    1  0.6188600E-006  0.1458185E+03  0.7818608E-02  0.1307958E+00
          2   -1    0    0  502    0  0.00000000000E+00  0.00000000000E+00  0.20709761467E+04  0.20709761467E+04  0.00000000000E+00 0. -1.
          1   -1    0    0  501    0 -0.00000000000E+00 -0.00000000000E+00 -0.17223045834E+04  0.17223045834E+04  0.00000000000E+00 0. -1.
         25    2    1    2    0    0  0.14727052539E+03  0.10990840130E+03  0.48722825254E+02  0.22752361915E+03  0.12499847697E+03 0.  0.
          2    1    1    2  501    0 -0.15074537258E+02 -0.50827017295E+02 -0.16297607096E+04  0.16306227638E+04  0.00000000000E+00 0. -1.
          1    1    1    2  502    0 -0.13219598814E+03 -0.59081384004E+02  0.19297094476E+04  0.19351343472E+04  0.00000000000E+00 0. -1.
         22    1    3    3    0    0  0.22663364837E+02  0.85589281120E+02 -0.71242812866E+01  0.88825157091E+02  0.00000000000E+00 0.  1.
         22    1    3    3    0    0  0.12460716056E+03  0.24319120179E+02  0.55847106540E+02  0.13869846206E+03  0.00000000000E+00 0.  1.
</event>
<event>
 7    1  0.6188600E-006  0.3177345E+02  0.7818608E-02  0.1601969E+00
          2   -1    0    0  502    0  0.00000000000E+00  0.00000000000E+00  0.11201644606E+04  0.11201644606E+04  0.00000000000E+00 0. -1.
          1   -1    0    0  501    0 -0.00000000000E+00 -0.00000000000E+00 -0.12534634881E+04  0.12534634881E+04  0.00000000000E+00 0. -1.
         25    2    1    2    0    0  0.14871216908E+01  0.14211565469E+02 -0.54429302698E+03  0.55864428112E+03  0.12499741393E+03 0.  0.
          2    1    1    2  501    0 -0.27339295610E+02  0.42779911440E+01 -0.70149507821E+03  0.70204065626E+03  0.00000000000E+00 0. -1.
          1    1    1    2  502    0  0.25852173919E+02 -0.18489556613E+02  0.11124890776E+04  0.11129430113E+04  0.00000000000E+00 0. -1.
         22    1    3    3    0    0  0.52306145192E+02 -0.79354801171E+01 -0.12545778825E+03  0.13615638546E+03  0.00000000000E+00 0.  1.
         22    1    3    3    0    0 -0.50819023501E+02  0.22147045586E+02 -0.41883523873E+03  0.42248789566E+03  0.00000000000E+00 0.  1.
</event>
<event>
 7    1  0.6188600E-006  0.1634012E+03  0.7818608E-02  0.1333016E+00
          2   -1    0    0  502    0  0.00000000000E+00  0.00000000000E+00  0.64666705924E+03  0.64666705924E+03  0.00000000000E+00 0. -1.
          1   -1    0    0  501    0 -0.00000000000E+00 -0.00000000000E+00 -0.12361175937E+04  0.12361175937E+04  0.00000000000E+00 0. -1.
         25    2    1    2    0    0  0.11255645086E+02  0.19516767792E+03 -0.54465784728E+02  0.23834890520E+03  0.12500626725E+03 0.  0.
          2    1    1    2  501    0  0.55315780875E+01 -0.16126980939E+03 -0.10830810586E+04  0.10950356748E+04  0.00000000000E+00 0. -1.
          1    1    1    2  502    0 -0.16787223174E+02 -0.33897868529E+02  0.54809630882E+03  0.54940007290E+03  0.00000000000E+00 0. -1.
         22    1    3    3    0    0 -0.49810795832E+02  0.37493197240E+02 -0.22412018937E+02  0.66250689155E+02  0.00000000000E+00 0. -1.
         22    1    3    3    0    0  0.61066440918E+02  0.15767448068E+03 -0.32053765790E+02  0.17209821604E+03  0.00000000000E+00 0. -1.
</event>
<event>
 7    1  0.6188600E-006  0.3409870E+02  0.7818608E-02  0.1566640E+00
          2   -1    0    0  502    0  0.00000000000E+00  0.00000000000E+00  0.48933779599E+02  0.48933779599E+02  0.00000000000E+00 0. -1.
          1   -1    0    0  501    0 -0.00000000000E+00 -0.00000000000E+00 -0.26631693363E+04  0.26631693363E+04  0.00000000000E+00 0. -1.
         25    2    1    2    0    0 -0.13546536180E+02 -0.23124317782E+02 -0.18337479469E+04  0.18381987920E+04  0.12500009378E+03 0.  0.
          2    1    1    2  501    0 -0.20596803697E+02  0.24531894216E+02 -0.82059118458E+03  0.82121613133E+03  0.00000000000E+00 0. -1.
          1    1    1    2  502    0  0.34143339877E+02 -0.14075764334E+01  0.40103574757E+02  0.52688192583E+02  0.00000000000E+00 0. -1.
         22    1    3    3    0    0 -0.46800546209E+02 -0.50827297160E+02 -0.65038710119E+03  0.65404670067E+03  0.00000000000E+00 0. -1.
         22    1    3    3    0    0  0.33254010030E+02  0.27702979378E+02 -0.11833608457E+04  0.11841520913E+04  0.00000000000E+00 0. -1.
</event>
<event>
 7    1  0.6188600E-006  0.2111615E+03  0.7818608E-02  0.1235798E+00
          2   -1    0    0  502    0  0.00000000000E+00  0.00000000000E+00  0.34093773157E+04  0.34093773157E+04  0.00000000000E+00 0. -1.
          1   -1    0    0  501    0 -0.00000000000E+00 -0.00000000000E+00 -0.15073725512E+03  0.15073725512E+03  0.00000000000E+00 0. -1.
         25    2    1    2    0    0  0.13317184779E+03 -0.10989851409E+03  0.15664796768E+03  0.26452630392E+03  0.12499262077E+03 0.  0.
          2    1    1    2  501    0 -0.18461298232E+02 -0.71088012838E+02 -0.78722552469E+02  0.10766413223E+03  0.00000000000E+00 0. -1.
          1    1    1    2  502    0 -0.11471054956E+03  0.18098652692E+03  0.31807146454E+04  0.31879241347E+04  0.00000000000E+00 0. -1.
         22    1    3    3    0    0  0.63040217213E+02 -0.31327500951E+02  0.14160777225E+03  0.15813994582E+03  0.00000000000E+00 0.  1.
         22    1    3    3    0    0  0.70131630577E+02 -0.78571013135E+02  0.15040195435E+02  0.10638635811E+03  0.00000000000E+00 0.  1.
</event>
<event>
 7    1  0.6188600E-006  0.9222721E+02  0.7818608E-02  0.1309844E+00
          2   -1    0    0  502    0  0.00000000000E+00  0.00000000000E+00  0.19469085871E+03  0.19469085871E+03  0.00000000000E+00 0. -1.
          1   -1    0    0  501    0 -0.00000000000E+00 -0.00000000000E+00 -0.31777456860E+03  0.31777456860E+03  0.00000000000E+00 0. -1.
         25    2    1    2    0    0 -0.55446915346E+01  0.13478520598E+02 -0.48033790424E+02  0.13470439358E+03  0.12500245800E+03 0.  0.
          2    1    1    2  501    0  0.90880121685E+02 -0.48460271798E+02 -0.19852105840E+03  0.22364750186E+03  0.00000000000E+00 0. -1.
          1    1    1    2  502    0 -0.85335430150E+02  0.34981751199E+02  0.12347113893E+03  0.15411353187E+03  0.00000000000E+00 0. -1.
         22    1    3    3    0    0  0.30580859933E+02 -0.46604454860E+02 -0.21354290608E+02  0.59692293761E+02  0.00000000000E+00 0. -1.
         22    1    3    3    0    0 -0.36125551468E+02  0.60082975458E+02 -0.26679499816E+02  0.75012099819E+02  0.00000000000E+00 0. -1.
</event>
<event>
 7    1  0.6188600E-006  0.5889872E+02  0.7818608E-02  0.1516473E+00
          2   -1    0    0  502    0  0.00000000000E+00  0.00000000000E+00  0.14511081604E+04  0.14511081604E+04  0.00000000000E+00 0. -1.
          1   -1    0    0  501    0 -0.00000000000E+00 -0.00000000000E+00 -0.40445132718E+03  0.40445132718E+03  0.00000000000E+00 0. -1.
         25    2    1    2    0    0  0.23093095206E+02 -0.69495336976E+02  0.73217139430E+03  0.74636665537E+03  0.12500136282E+03 0.  0.
          2    1    1    2  501    0 -0.22476444622E+02  0.12442325836E+02 -0.39579326465E+03  0.39662615948E+03  0.00000000000E+00 0. -1.
          1    1    1    2  502    0 -0.61665058465E+00  0.57053011140E+02  0.71027870354E+03  0.71256667270E+03  0.00000000000E+00 0. -1.
         22    1    3    3    0    0 -0.10902543377E+02  0.33179919983E+02  0.13284656170E+03  0.13736077132E+03  0.00000000000E+00 0. -1.
         22    1    3    3    0    0  0.33995638583E+02 -0.10267525696E+03  0.59932483260E+03  0.60900588405E+03  0.00000000000E+00 0. -1.
</event>
<event>
 7    1  0.6188600E-006  0.1243346E+03  0.7818608E-02  0.1333137E+00
          2   -1    0    0  502    0  0.00000000000E+00  0.00000000000E+00  0.15148365432E+03  0.15148365432E+03  0.00000000000E+00 0. -1.
          1   -1    0    0  501    0 -0.00000000000E+00 -0.00000000000E+00 -0.14390984721E+04  0.14390984721E+04  0.00000000000E+00 0. -1.
         25    2    1    2    0    0 -0.18580071587E+02  0.12026735223E+03 -0.10309595989E+03  0.20264043414E+03  0.12499965413E+03 0.  0.
          2    1    1    2  501    0  0.66182275942E+02 -0.10612011312E+03 -0.12769259833E+04  0.12830360630E+04  0.00000000000E+00 0. -1.
          1    1    1    2  502    0 -0.47602204354E+02 -0.14147239112E+02  0.92407125409E+02  0.10490562931E+03  0.00000000000E+00 0. -1.
         22    1    3    3    0    0  0.66943138006E+01  0.12262480335E+03 -0.12035040596E+03  0.17194730719E+03  0.00000000000E+00 0. -1.
         22    1    3    3    0    0 -0.25274385388E+02 -0.23574511242E+01  0.17254446077E+02  0.30693126950E+02  0.00000000000E+00 0. -1.
</event>
<event>
 7    1  0.6188600E-006  0.1904467E+03  0.7818608E-02  0.1206058E+00
          2   -1    0    0  502    0  0.00000000000E+00  0.00000000000E+00  0.15750875794E+04  0.15750875794E+04  0.00000000000E+00 0. -1.
          1   -1    0    0  501    0 -0.00000000000E+00 -0.00000000000E+00 -0.38428437464E+03  0.38428437464E+03  0.00000000000E+00 0. -1.
         25    2    1    2    0    0  0.25236036866E+02  0.11645665051E+03 -0.47697661986E+02  0.17916089924E+03  0.12499820740E+03 0.  0.
          2    1    1    2  501    0 -0.87444500806E+02  0.68739688890E+02 -0.25278972326E+03  0.27617807613E+03  0.00000000000E+00 0. -1.
          1    1    1    2  502    0  0.62208463940E+02 -0.18519633940E+03  0.14912905900E+04  0.15040329787E+04  0.00000000000E+00 0. -1.
         22    1    3    3    0    0  0.34023841118E+02  0.30676193790E+01 -0.55492766847E+02  0.65165015349E+02  0.00000000000E+00 0.  1.
         22    1    3    3    0    0 -0.87878042527E+01  0.11338903114E+03  0.77951048607E+01  0.11399588390E+03  0.00000000000E+00 0.  1.
</event>
<event>
 7    1  0.6188600E-006  0.1128574E+03  0.7818608E-02  0.1297884E+00
          2   -1    0    0  502    0  0.00000000000E+00  0.00000000000E+00  0.17701854955E+04  0.17701854955E+04  0.00000000000E+00 0. -1.
          1   -1    0    0  501    0 -0.00000000000E+00 -0.00000000000E+00 -0.23594368190E+03  0.23594368190E+03  0.00000000000E+00 0. -1.
         25    2    1    2    0    0  0.11939900971E+03  0.68342746974E+02 -0.62293468902E+02  0.19602299025E+03  0.12497072398E+03 0.  0.
          2    1    1    2  501    0 -0.49794375102E+02 -0.96629075745E+02 -0.78058713523E+02  0.13382757873E+03  0.00000000000E+00 0. -1.
          1    1    1    2  502    0 -0.69604634611E+02  0.28286328772E+02  0.16745939960E+04  0.16762786084E+04  0.00000000000E+00 0. -1.
         22    1    3    3    0    0  0.94497556135E+02  0.38326246706E+02 -0.99245406346E+02  0.14229666188E+03  0.00000000000E+00 0. -1.
         22    1    3    3    0    0  0.24901453577E+02  0.30016500267E+02  0.36951937444E+02  0.53726328364E+02  0.00000000000E+00 0. -1.
</event>
<event>
 7    1  0.6188600E-006  0.2165066E+03  0.7818608E-02  0.1274202E+00
          2   -1    0    0  502    0  0.00000000000E+00  0.00000000000E+00  0.19000593868E+04  0.19000593868E+04  0.00000000000E+00 0. -1.
          1   -1    0    0  501    0 -0.00000000000E+00 -0.00000000000E+00 -0.10444169637E+04  0.10444169637E+04  0.00000000000E+00 0. -1.
         25    2    1    2    0    0 -0.25082044712E+03 -0.82755758543E+02  0.38995718471E+03  0.48728952600E+03  0.12500025588E+03 0.  0.
          2    1    1    2  501    0  0.20359136802E+03  0.69860350112E+02 -0.98370074616E+03  0.10069742160E+04  0.00000000000E+00 0. -1.
          1    1    1    2  502    0  0.47229079100E+02  0.12895408431E+02  0.14493859846E+04  0.14502126085E+04  0.00000000000E+00 0. -1.
         22    1    3    3    0    0 -0.92806300758E+01 -0.22774933935E+02 -0.10493666553E+00  0.24593469094E+02  0.00000000000E+00 0. -1.
         22    1    3    3    0    0 -0.24153981705E+03 -0.59980824607E+02  0.39006212138E+03  0.46269605690E+03  0.00000000000E+00 0. -1.
</event>
<event>
 7    1  0.6188600E-006  0.6250113E+02  0.7818608E-02  0.1475117E+00
          2   -1    0    0  502    0  0.00000000000E+00  0.00000000000E+00  0.25963868975E+02  0.25963868975E+02  0.00000000000E+00 0. -1.
          1   -1    0    0  501    0 -0.00000000000E+00 -0.00000000000E+00 -0.12991287032E+04  0.12991287032E+04  0.00000000000E+00 0. -1.
         25    2    1    2    0    0  0.82308123423E+02  0.30219641526E+02 -0.58322596002E+03  0.60288118029E+03  0.12500137278E+03 0.  0.
          2    1    1    2  501    0 -0.58882872133E+02 -0.80958175675E+01 -0.68731867451E+03  0.68988382734E+03  0.00000000000E+00 0. -1.
          1    1    1    2  502    0 -0.23425251289E+02 -0.22123823959E+02 -0.26201997253E+01  0.32327564572E+02  0.00000000000E+00 0. -1.
         22    1    3    3    0    0  0.73260917249E+02 -0.30384571213E+02 -0.44010769483E+03  0.44719701163E+03  0.00000000000E+00 0.  1.
         22    1    3    3    0    0  0.90472061739E+01  0.60604212740E+02 -0.14311826519E+03  0.15568416866E+03  0.00000000000E+00 0.  1.
</event>
<event>
 7    1  0.6188600E-006  0.4259105E+02  0.7818608E-02  0.1595280E+00
          2   -1    0    0  502    0  0.00000000000E+00  0.00000000000E+00  0.71040432749E+03  0.71040432749E+03  0.00000000000E+00 0. -1.
          1   -1    0    0  501    0 -0.00000000000E+00 -0.00000000000E+00 -0.71657816469E+02  0.71657816469E+02  0.00000000000E+00 0. -1.
         25    2    1    2    0    0 -0.48251207021E+02 -0.19394737915E+02  0.13600178961E+03  0.19189092776E+03  0.12498522530E+03 0.  0.
          2    1    1    2  501    0  0.42236752243E+02 -0.12394087776E+01 -0.33235989726E+02  0.53759746904E+02  0.00000000000E+00 0. -1.
          1    1    1    2  502    0  0.60144547781E+01  0.20634146693E+02  0.53598071114E+03  0.53641146929E+03  0.00000000000E+00 0. -1.
         22    1    3    3    0    0 -0.73696500941E+02 -0.11876811525E+02  0.14564491015E+03  0.16366023571E+03  0.00000000000E+00 0.  1.
         22    1    3    3    0    0  0.25445293919E+02 -0.75179263903E+01 -0.96431205359E+01  0.28230692048E+02  0.00000000000E+00 0.  1.
</event>
<event>
 7    1  0.6188600E-006  0.9853303E+02  0.7818608E-02  0.1283456E+00
          2   -1    0    0  502    0  0.00000000000E+00  0.00000000000E+00  0.65910526836E+03  0.65910526836E+03  0.00000000000E+00 0. -1.
          1   -1    0    0  501    0 -0.00000000000E+00 -0.00000000000E+00 -0.10109108529E+04  0.10109108529E+04  0.00000000000E+00 0. -1.
         25    2    1    2    0    0 -0.28703433759E+02 -0.32861358925E+02 -0.84229451385E+02  0.15691779958E+03  0.12499935729E+03 0.  0.
          2    1    1    2  501    0 -0.63373271640E+02  0.75449227007E+02 -0.88344852600E+03  0.88892634988E+03  0.00000000000E+00 0. -1.
          1    1    1    2  502    0  0.92076705399E+02 -0.42587868082E+02  0.61587239282E+03  0.62417197184E+03  0.00000000000E+00 0. -1.
         22    1    3    3    0    0 -0.19701812661E+00 -0.47294413370E+02  0.17392177985E+02  0.50391350520E+02  0.00000000000E+00 0.  1.
         22    1    3    3    0    0 -0.28506415632E+02  0.14433054445E+02 -0.10162162937E+03  0.10652644906E+03  0.00000000000E+00 0.  1.
</event>
<event>
 7    1  0.6188600E-006  0.1751130E+03  0.7818608E-02  0.1267853E+00
          2   -1    0    0  502    0  0.00000000000E+00  0.00000000000E+00  0.14934645718E+04  0.14934645718E+04  0.00000000000E+00 0. -1.
          1   -1    0    0  501    0 -0.00000000000E+00 -0.00000000000E+00 -0.63699433337E+02  0.63699433337E+02  0.00000000000E+00 0. -1.
         25    2    1    2    0    0 -0.17644689955E+03  0.87804101651E+02  0.34425100930E+03  0.41590394459E+03  0.12499706034E+03 0.  0.
          2    1    1    2  501    0  0.16205921095E+03 -0.25076456581E+02  0.22540277380E+03  0.27874437567E+03  0.00000000000E+00 0. -1.
          1    1    1    2  502    0  0.14387688601E+02 -0.62727645069E+02  0.86011135533E+03  0.86251568485E+03  0.00000000000E+00 0. -1.
         22    1    3    3    0    0 -0.78503895750E+02  0.14109869819E+02  0.42872497611E+02  0.90553857597E+02  0.00000000000E+00 0. -1.
         22    1    3    3    0    0 -0.97943003804E+02  0.73694231831E+02  0.30137851169E+03  0.32535008700E+03  0.00000000000E+00 0. -1.
</event>
<event>
 7    1  0.6188600E-006  0.6262415E+02  0.7818608E-02  0.1453057E+00
          2   -1    0    0  502    0  0.00000000000E+00  0.00000000000E+00  0.37097424692E+03  0.37097424692E+03  0.00000000000E+00 0. -1.
          1   -1    0    0  501    0 -0.00000000000E+00 -0.00000000000E+00 -0.19758955799E+03  0.19758955799E+03  0.00000000000E+00 0. -1.
         25    2    1    2    0    0 -0.20816235342E+01  0.71229865260E+02  0.18750243840E+03  0.23634643807E+03  0.12499779006E+03 0.  0.
          2    1    1    2  501    0  0.34653364090E+02 -0.52221874464E+02 -0.16510048326E+03  0.17659600615E+03  0.00000000000E+00 0. -1.
          1    1    1    2  502    0 -0.32571740556E+02 -0.19007990796E+02  0.15098273379E+03  0.15562136068E+03  0.00000000000E+00 0. -1.
         22    1    3    3    0    0 -0.49378278799E+02  0.81145390674E+02  0.13397884499E+03  0.16423495289E+03  0.00000000000E+00 0.  1.
         22    1    3    3    0    0  0.47296655265E+02 -0.99155254138E+01  0.53523593413E+02  0.72111485183E+02  0.00000000000E+00 0.  1.
</event>
<event>
 7    1  0.6188600E-006  0.1089798E+03  0.7818608E-02  0.1316885E+00
          2   -1    0    0  502    0  0.00000000000E+00  0.00000000000E+00  0.10050767524E+03  0.10050767524E+03  0.00000000000E+00 0. -1.
          1   -1    0    0  501    0 -0.00000000000E+00 -0.00000000000E+00 -0.87984375020E+03  0.87984375020E+03  0.00000000000E+00 0. -1.
         25    2    1    2    0    0 -0.59755689890E+02  0.55094605176E+02 -0.44594963280E+03  0.47021463135E+03  0.12499826617E+03 0.  0.
          2    1    1    2  501    0  0.35934644303E+02  0.54687508838E+02 -0.38212159656E+03  0.38768406833E+03  0.00000000000E+00 0. -1.
          1    1    1    2  502    0  0.23821045587E+02 -0.10978211401E+03  0.48735154403E+02  0.12245272576E+03  0.00000000000E+00 0. -1.
         22    1    3    3    0    0 -0.27213809121E+02  0.68719492808E+02 -0.11065732902E+03  0.13307142655E+03  0.00000000000E+00 0.  1.
         22    1    3    3    0    0 -0.32541880769E+02 -0.13624887632E+02 -0.33529230377E+03  0.33714320479E+03  0.00000000000E+00 0.  1.
</event>
<event>
 7    1  0.6188600E-006  0.9266064E+02  0.7818608E-02  0.1406630E+00
          2   -1    0    0  502    0  0.00000000000E+00  0.00000000000E+00  0.10029948123E+04  0.10029948123E+04  0.00000000000E+00 0. -1.
          1   -1    0    0  501    0 -0.00000000000E+00 -0.00000000000E+00 -0.21608455664E+03  0.21608455664E+03  0.00000000000E+00 0. -1.
         25    2    1    2    0    0  0.11362954255E+02 -0.70182100249E+02 -0.40711834825E+02  0.14946930732E+03  0.12501590463E+03 0.  0.
          2    1    1    2  501    0 -0.38552156486E+02  0.94150106572E+02 -0.99190543423E+02  0.14208896946E+03  0.00000000000E+00 0. -1.
          1    1    1    2  502    0  0.27189202231E+02 -0.23968006323E+02  0.92681263395E+03  0.92752109221E+03  0.00000000000E+00 0. -1.
         22    1    3    3    0    0  0.54886680502E+02 -0.81267835733E+02 -0.20348284826E+02  0.10015518717E+03  0.00000000000E+00 0. -1.
         22    1    3    3    0    0 -0.43523726248E+02  0.11085735484E+02 -0.20363549999E+02  0.49314120151E+02  0.00000000000E+00 0. -1.
</event>
<event>
 7    1  0.6188600E-006  0.1195690E+03  0.7818608E-02  0.1343669E+00
          2   -1    0    0  502    0  0.00000000000E+00  0.00000000000E+00  0.58507271772E+03  0.58507271772E+03  0.00000000000E+00 0. -1.
          1   -1    0    0  501    0 -0.00000000000E+00 -0.00000000000E+00 -0.17120404834E+04  0.17120404834E+04  0.00000000000E+00 0. -1.
         25    2    1    2    0    0  0.15567141493E+03 -0.50329646451E+02 -0.45948886935E+01  0.20594347431E+03  0.12499975548E+03 0.  0.
          2    1    1    2  501    0 -0.11598034163E+03  0.24923881121E+02 -0.16034287584E+04  0.16078110657E+04  0.00000000000E+00 0. -1.
          1    1    1    2  502    0 -0.39691073306E+02  0.25405765330E+02  0.48105588146E+03  0.48335866114E+03  0.00000000000E+00 0. -1.
         22    1    3    3    0    0  0.11951686477E+03 -0.39578399065E+02  0.53404202881E+02  0.13675795963E+03  0.00000000000E+00 0.  1.
         22    1    3    3    0    0  0.36154550165E+02 -0.10751247387E+02 -0.57999091574E+02  0.69185514679E+02  0.00000000000E+00 0.  1.
</event>
<event>
 7    1  0.6188600E-006  0.7526460E+02  0.7818608E-02  0.1465213E+00
          2   -1    0    0  502    0  0.00000000000E+00  0.00000000000E+00  0.10286840681E+04  0.10286840681E+04  0.00000000000E+00 0. -1.
          1   -1    0    0  501    0 -0.00000000000E+00 -0.00000000000E+00 -0.64952375475E+03  0.64952375475E+03  0.00000000000E+00 0. -1.
         25    2    1    2    0    0 -0.75781952608E+02 -0.44068518506E+02 -0.12306310164E+03  0.19608939586E+03  0.12498634134E+03 0.  0.
          2    1    1    2  501    0  0.72989361395E+02  0.15480889316E+02 -0.48689714524E+03  0.49258089168E+03  0.00000000000E+00 0. -1.
          1    1    1    2  502    0  0.27925912133E+01  0.28587629189E+02  0.98912056022E+03  0.98953753529E+03  0.00000000000E+00 0. -1.
         22    1    3    3    0    0  0.32737359076E+02 -0.18343031378E+02 -0.13867570707E+02  0.40006386949E+02  0.00000000000E+00 0. -1.
         22    1    3    3    0    0 -0.10851931168E+03 -0.25725487128E+02 -0.10919553093E+03  0.15608300891E+03  0.00000000000E+00 0. -1.
</event>
<event>
 7    1  0.6188600E-006  0.5706108E+02  0.7818608E-02  0.1463442E+00
          2   -1    0    0  502    0  0.00000000000E+00  0.00000000000E+00  0.35323783230E+04  0.35323783230E+04  0.00000000000E+00 0. -1.
          1   -1    0    0  501    0 -0.00000000000E+00 -0.00000000000E+00 -0.63272611174E+02  0.63272611174E+02  0.00000000000E+00 0. -1.
         25    2    1    2    0    0  0.17784741797E+02 -0.91435854360E+01  0.13487670186E+03  0.18497707906E+03  0.12499957151E+03 0.  0.
          2    1    1    2  501    0  0.25204779200E+02 -0.28936573736E+02 -0.28283212818E+02  0.47671231591E+02  0.00000000000E+00 0. -1.
          1    1    1    2  502    0 -0.42989520997E+02  0.38080159172E+02  0.33625122228E+04  0.33630026236E+04  0.00000000000E+00 0. -1.
         22    1    3    3    0    0 -0.14474762756E+02 -0.61289145648E+02  0.85840614762E+02  0.10646355843E+03  0.00000000000E+00 0.  1.
         22    1    3    3    0    0  0.32259504553E+02  0.52145560212E+02  0.49036087096E+02  0.78513520629E+02  0.00000000000E+00 0.  1.
</event>
<event>
 7    1  0.6188600E-006  0.1834473E+03  0.7818608E-02  0.1345064E+00
          2   -1    0    0  502    0  0.00000000000E+00  0.00000000000E+00  0.67656619934E+03  0.67656619934E+03  0.00000000000E+00 0. -1.
          1   -1    0    0  501    0 -0.00000000000E+00 -0.00000000000E+00 -0.60027460626E+03  0.60027460626E+03  0.00000000000E+00 0. -1.
         25    2    1    2    0    0 -0.20476525302E+02 -0.15535881712E+03 -0.36585238382E+02  0.20378647488E+03  0.12503918398E+03 0.  0.
          2    1    1    2  501    0 -0.87071721359E+01 -0.29073669515E+02 -0.46488138563E+03  0.46587100770E+03  0.00000000000E+00 0. -1.
          1    1    1    2  502    0  0.29183697438E+02  0.18443248664E+03  0.57775821710E+03  0.60718332301E+03  0.00000000000E+00 0. -1.
         22    1    3    3    0    0 -0.68341984933E+02 -0.64704374867E+02 -0.37389631870E+02  0.10126829515E+03  0.00000000000E+00 0.  1.
         22    1    3    3    0    0  0.47865459631E+02 -0.90654442257E+02  0.80439348817E+00  0.10251817973E+03  0.00000000000E+00 0.  1.
</event>
<event>
 7    1  0.6188600E-006  0.2409679E+03  0.7818608E-02  0.1184108E+00
          2   -1    0    0  502    0  0.00000000000E+00  0.00000000000E+00  0.21665824325E+04  0.21665824325E+04  0.00000000000E+00 0. -1.
          1   -1    0    0  501    0 -0.00000000000E+00 -0.00000000000E+00 -0.73498940249E+03  0.73498940249E+03  0.00000000000E+00 0. -1.
         25    2    1    2    0    0  0.26008584658E+03 -0.16908222225E+03  0.75641512166E+03  0.82705595537E+03  0.12499708621E+03 0.  0.
          2    1    1    2  501    0 -0.23167862667E+03  0.60953212550E+02 -0.67678761325E+03  0.71793575871E+03  0.00000000000E+00 0. -1.
          1    1    1    2  502    0 -0.28407219914E+02  0.10812900970E+03  0.13519655216E+04  0.13565801209E+04  0.00000000000E+00 0. -1.
         22    1    3    3    0    0  0.19031645357E+03 -0.12514393657E+03  0.39147332448E+03  0.45291579917E+03  0.00000000000E+00 0.  1.
         22    1    3    3    0    0  0.69769393012E+02 -0.43938285679E+02  0.36494179718E+03  0.37414015620E+03  0.00000000000E+00 0.  1.
</event>
<event>
 7    1  0.6188600E-006  0.4026248E+02  0.7818608E-02  0.1566111E+00
          2   -1    0    0  502    0  0.00000000000E+00  0.00000000000E+00  0.98479871290E+03  0.98479871290E+03  0.00000000000E+00 0. -1.
          1   -1    0    0  501    0 -0.00000000000E+00 -0.00000000000E+00 -0.80365568744E+03  0.80365568744E+03  0.00000000000E+00 0. -1.
         25    2    1    2    0    0  0.18931271855E+02 -0.64283723425E+00 -0.15344691584E+03  0.19882019929E+03  0.12499883749E+03 0.  0.
          2    1    1    2  501    0 -0.34993115228E+02 -0.21331189428E+02 -0.62666017171E+03  0.62799881255E+03  0.00000000000E+00 0. -1.
          1    1    1    2  502    0  0.16061843373E+02  0.21974026663E+02  0.96125011301E+03  0.96163538850E+03  0.00000000000E+00 0. -1.
         22    1    3    3    0    0 -0.12853467318E+01  0.12028646278E+01  0.22066519830E+02  0.22136627949E+02  0.00000000000E+00 0.  1.
         22    1    3    3    0    0  0.20216618587E+02 -0.18457018621E+01 -0.17551343567E+03  0.17668357135E+03  0.00000000000E+00 0.  1.
</event>
<event>
 7    1  0.6188600E-006  0.9893747E+02  0.7818608E-02  0.1336287E+00
          2   -1    0    0  502    0  0.00000000000E+00  0.00000000000E+00  0.17043036228E+04  0.17043036228E+04  0.00000000000E+00 0. -1.
          1   -1    0    0  501    0 -0.00000000000E+00 -0.00000000000E+00 -0.36637744975E+02  0.36637744975E+02  0.00000000000E+00 0. -1.
         25    2    1    2    0    0  0.71853503353E+02 -0.35851737149E+02  0.10459243692E+04  0.10564238746E+04  0.12500137479E+03 0.  0.
          2    1    1    2  501    0  0.54116820661E+02  0.27524700085E+02  0.12057538245E+02  0.61900110030E+02  0.00000000000E+00 0. -1.
          1    1    1    2  502    0 -0.12597032401E+03  0.83270370641E+01  0.60968397042E+03  0.62261738320E+03  0.00000000000E+00 0. -1.
         22    1    3    3    0    0  0.17209985892E+01  0.20970439893E+02  0.30838300627E+02  0.37332585914E+02  0.00000000000E+00 0. -1.
         22    1    3    3    0    0  0.70132504764E+02 -0.56822177043E+02  0.10150860686E+04  0.10190912887E+04  0.00000000000E+00 0. -1.
</event>
<event>
 7    1  0.6188600E-006  0.5862505E+02  0.7818608E-02  0.1414422E+00
          2   -1    0    0  502    0  0.00000000000E+00  0.00000000000E+00  0.21333039130E+04  0.21333039130E+04  0.00000000000E+00 0. -1.
          1   -1    0    0  501    0 -0.00000000000E+00 -0.00000000000E+00 -0.98221370018E+02  0.98221370018E+02  0.00000000000E+00 0. -1.
         25    2    1    2    0    0  0.16994631169E+01 -0.76280282133E+02  0.38861329804E+03  0.41529014748E+03  0.12499616618E+03 0.  0.
          2    1    1    2  501    0 -0.42127324260E+02  0.33640741372E+02 -0.75771039165E+02  0.92992802439E+02  0.00000000000E+00 0. -1.
          1    1    1    2  502    0  0.40427861143E+02  0.42639540761E+02  0.17222402841E+04  0.17232423331E+04  0.00000000000E+00 0. -1.
         22    1    3    3    0    0  0.15715348648E+02  0.28881507304E+02  0.15882982271E+03  0.16219749144E+03  0.00000000000E+00 0.  1.
         22    1    3    3    0    0 -0.14015885532E+02 -0.10516178944E+03  0.22978347534E+03  0.25309265604E+03  0.00000000000E+00 0.  1.
</event>
<event>
 7    1  0.6188600E-006  0.1360332E+03  0.7818608E-02  0.1389623E+00
          2   -1    0    0  502    0  0.00000000000E+00  0.00000000000E+00  0.58316845994E+03  0.58316845994E+03  0.00000000000E+00 0. -1.
          1   -1    0    0  501    0 -0.00000000000E+00 -0.00000000000E+00 -0.25774408367E+04  0.25774408367E+04  0.00000000000E+00 0. -1.
         25    2    1    2    0    0  0.15716781090E+03 -0.46580037062E+02 -0.12424349787E+04  0.12594209629E+04  0.12500025872E+03 0.  0.
          2    1    1    2  501    0 -0.27785363311E+02  0.51482322412E+01 -0.13183302802E+04  0.13186331023E+04  0.00000000000E+00 0. -1.
          1    1    1    2  502    0 -0.12938244759E+03  0.41431804821E+02  0.56649288217E+03  0.58255523150E+03  0.00000000000E+00 0. -1.
         22    1    3    3    0    0  0.61518618963E+02 -0.53325142316E+02 -0.90417923646E+03  0.90783710154E+03  0.00000000000E+00 0.  1.
         22    1    3    3    0    0  0.95649191940E+02  0.67451052545E+01 -0.33825574227E+03  0.35158386133E+03  0.00000000000E+00 0.  1.
</event>
<event>
 7    1  0.6188600E-006  0.9516633E+02  0.7818608E-02  0.1396185E+00
          2   -1    0    0  502    0  0.00000000000E+00  0.00000000000E+00  0.55469839965E+03  0.55469839965E+03  0.00000000000E+00 0. -1.
          1   -1    0    0  501    0 -0.00000000000E+00 -0.00000000000E+00 -0.25578203288E+03  0.25578203288E+03  0.00000000000E+00 0. -1.
         25    2    1    2    0    0 -0.95853745311E+02 -0.61029706922E+02 -0.36866826683E+01  0.16896634608E+03  0.12499387530E+03 0.  0.
          2    1    1    2  501    0  0.36304732972E+02 -0.12285212740E+02 -0.16247885536E+03  0.16693812784E+03  0.00000000000E+00 0. -1.
          1    1    1    2  502    0  0.59549012338E+02  0.73314919662E+02  0.46508190480E+03  0.47457595860E+03  0.00000000000E+00 0. -1.
         22    1    3    3    0    0 -0.25864588120E+02 -0.56255023277E+02 -0.54387230727E+02  0.82411015214E+02  0.00000000000E+00 0.  1.
         22    1    3    3    0    0 -0.69989157191E+02 -0.47746836457E+01  0.50700548059E+02  0.86555330868E+02  0.00000000000E+00 0.  1.
</event>
<event>
 7    1  0.6188600E-006  0.4290370E+02  0.7818608E-02  0.1533977E+00
          2   -1    0    0  502    0  0.00000000000E+00  0.00000000000E+00  0.13231180842E+04  0.13231180842E+04  0.00000000000E+00 0. -1.
          1   -1    0    0  501    0 -0.00000000000E+00 -0.00000000000E+00 -0.33026335131E+03  0.33026335131E+03  0.00000000000E+00 0. -1.
         25    2    1    2    0    0  0.63088239817E+02 -0.12006144295E+02  0.43571656734E+03  0.45780557906E+03  0.12495098102E+03 0.  0.
          2    1    1    2  501    0 -0.41478612694E+02 -0.10773121782E+02 -0.31749756668E+03  0.32037671624E+03  0.00000000000E+00 0. -1.
          1    1    1    2  502    0 -0.21609627123E+02  0.22779266077E+02  0.87463573225E+03  0.87519914024E+03  0.00000000000E+00 0. -1.
         22    1    3    3    0    0 -0.36675257733E+02  0.39440821297E+01  0.15899433810E+03  0.16321712490E+03  0.00000000000E+00 0. -1.
         22    1    3    3    0    0  0.99763497549E+02 -0.15950226425E+02  0.27672222924E+03  0.29458845416E+03  0.00000000000E+00 0. -1.
</event>
<event>
 7    1  0.6188600E-006  0.1216869E+03  0.7818608E-02  0.1409975E+00
          2   -1    0    0  502    0  0.00000000000E+00  0.00000000000E+00  0.78242975798E+03  0.78242975798E+03  0.00000000000E+00 0. -1.
          1   -1    0    0  501    0 -0.00000000000E+00 -0.00000000000E+00 -0.71975844943E+03  0.71975844943E+03  0.00000000000E+00 0. -1.
         25    2    1    2    0    0 -0.13329512651E+03 -0.50963662590E+02  0.20465205501E+01  0.18972062697E+03  0.12499936958E+03 0.  0.
          2    1    1    2  501    0  0.26444764547E+02 -0.48554438830E+01 -0.62033596646E+03  0.62091836194E+03  0.00000000000E+00 0. -1.
          1    1    1    2  502    0  0.10685036196E+03  0.55819106473E+02  0.68096075446E+03  0.69154921851E+03  0.00000000000E+00 0. -1.
         22    1    3    3    0    0 -0.89133918487E+02 -0.57070425113E+02  0.55992362760E+02  0.11973735230E+03  0.00000000000E+00 0. -1.
         22    1    3    3    0    0 -0.44161208019E+02  0.61067625230E+01 -0.53945842209E+02  0.69983274672E+02  0.00000000000E+00 0. -1.
</event>
<event>
 7    1  0.6188600E-006  0.2001570E+03  0.7818608E-02  0.1269786E+00
          2   -1    0    0  502    0  0.00000000000E+00  0.00000000000E+00  0.16898396430E+04  0.16898396430E+04  0.00000000000E+00 0. -1.
          1   -1    0    0  501    0 -0.00000000000E+00 -0.00000000000E+00 -0.28484543376E+03  0.28484543376E+03  0.00000000000E+00 0. -1.
         25    2    1    2    0    0  0.24631205106E+02  0.22762009966E+03  0.49651587847E+03  0.56086588066E+03  0.12499964994E+03 0.  0.
          2    1    1    2  501    0  0.21517975457E+02 -0.19722401780E+03 -0.21294059622E+03  0.29103957460E+03  0.00000000000E+00 0. -1.
          1    1    1    2  502    0 -0.46149180562E+02 -0.30396081854E+02  0.11214189270E+04  0.11227796215E+04  0.00000000000E+00 0. -1.
         22    1    3    3    0    0  0.51280369725E+02  0.17731192587E+03  0.45315087205E+03  0.48930042736E+03  0.00000000000E+00 0. -1.
         22    1    3    3    0    0 -0.26649164620E+02  0.50308173783E+02  0.43365006419E+02  0.71565453300E+02  0.00000000000E+00 0. -1.
</event>
<event>
 7    1  0.6188600E-006  0.3279837E+03  0.7818608E-02  0.1261707E+00
          2   -1    0    0  502    0  0.00000000000E+00  0.00000000000E+00  0.97255067734E+03  0.97255067734E+03  0.00000000000E+00 0. -1.
          1   -1    0    0  501    0 -0.00000000000E+00 -0.00000000000E+00 -0.46679137443E+03  0.46679137443E+03  0.00000000000E+00 0. -1.
         25    2    1    2    0    0  0.30386791823E+03 -0.17695873784E+03  0.68689276806E+02  0.37946496917E+03  0.12500135779E+03 0.  0.
          2    1    1    2  501    0 -0.28390889613E+03  0.14641975384E+03 -0.22885081209E+03  0.39295763107E+03  0.00000000000E+00 0. -1.
          1    1    1    2  502    0 -0.19959022103E+02  0.30538983992E+02  0.66592083819E+03  0.66691945154E+03  0.00000000000E+00 0. -1.
         22    1    3    3    0    0  0.81668654902E+02 -0.25055811535E+02 -0.33221261425E+02  0.91658142551E+02  0.00000000000E+00 0.  1.
         22    1    3    3    0    0  0.22219926333E+03 -0.15190292630E+03  0.10191053823E+03  0.28780682661E+03  0.00000000000E+00 0.  1.
</event>
<event>
 7    1  0.6188600E-006  0.2631711E+02  0.7818608E-02  0.1658557E+00
          2   -1    0    0  502    0  0.00000000000E+00  0.00000000000E+00  0.15290474108E+04  0.15290474108E+04  0.00000000000E+00 0. -1.
          1   -1    0    0  501    0 -0.00000000000E+00 -0.00000000000E+00 -0.43129570005E+02  0.43129570005E+02  0.00000000000E+00 0. -1.
         25    2    1    2    0    0  0.84311139965E+01  0.58494130044E+00  0.43418586976E+03  0.45190014046E+03  0.12499976644E+03 0.  0.
          2    1    1    2  501    0  0.21173489393E+01  0.23981644337E+02 -0.29858860966E+02  0.38355625530E+02  0.00000000000E+00 0. -1.
          1    1    1    2  502    0 -0.10548462936E+02 -0.24566585637E+02  0.10815908320E+04  0.10819212148E+04  0.00000000000E+00 0. -1.
         22    1    3    3    0    0 -0.16428751589E+02 -0.26864050975E+02  0.22864170891E+02  0.38914668495E+02  0.00000000000E+00 0.  1.
         22    1    3    3    0    0  0.24859865585E+02  0.27448992275E+02  0.41132169887E+03  0.41298547197E+03  0.00000000000E+00 0.  1.
</event>
<event>
 7    1  0.6188600E-006  0.8900697E+02  0.7818608E-02  0.1428096E+00
          2   -1    0    0  502    0  0.00000000000E+00  0.00000000000E+00  0.21973007737E+03  0.21973007737E+03  0.00000000000E+00 0. -1.
          1   -1    0    0  501    0 -0.00000000000E+00 -0.00000000000E+00 -0.73150368310E+03  0.73150368310E+03  0.00000000000E+00 0. -1.
         25    2    1    2    0    0  0.13891607944E+02  0.56684488823E+02 -0.56104462308E+03  0.57775649743E+03  0.12500157277E+03 0.  0.
          2    1    1    2  501    0  0.15887014800E+02  0.27743762513E+02 -0.15087281728E+03  0.15422295741E+03  0.00000000000E+00 0. -1.
          1    1    1    2  502    0 -0.29778622744E+02 -0.84428251337E+02  0.20014383463E+03  0.21925430563E+03  0.00000000000E+00 0. -1.
         22    1    3    3    0    0 -0.52664276957E+01 -0.27671055252E+02 -0.36387661481E+02  0.46016132687E+02  0.00000000000E+00 0.  1.
         22    1    3    3    0    0  0.19158035639E+02  0.84355544076E+02 -0.52465696160E+03  0.53174036475E+03  0.00000000000E+00 0.  1.
</event>
<event>
 7    1  0.6188600E-006  0.1401054E+03  0.7818608E-02  0.1242901E+00
          2   -1    0    0  502    0  0.00000000000E+00  0.00000000000E+00  0.68308688071E+03  0.68308688071E+03  0.00000000000E+00 0. -1.
          1   -1    0    0  501    0 -0.00000000000E+00 -0.00000000000E+00 -0.14003687294E+04  0.14003687294E+04  0.00000000000E+00 0. -1.
         25    2    1    2    0    0 -0.70614538357E+02  0.10430036947E+02 -0.13837976488E+02  0.14459089350E+03  0.12497935107E+03 0.  0.
          2    1    1    2  501    0 -0.59749053402E+02 -0.83879184852E+02 -0.13100422893E+04  0.13140838888E+04  0.00000000000E+00 0. -1.
          1    1    1    2  502    0  0.13036359176E+03  0.73449147905E+02  0.60659841701E+03  0.62478082790E+03  0.00000000000E+00 0. -1.
         22    1    3    3    0    0 -0.19972663843E+02 -0.10591480665E+01  0.54907439730E+02  0.58436769531E+02  0.00000000000E+00 0. -1.
         22    1    3    3    0    0 -0.50641874514E+02  0.11489185014E+02 -0.68745416218E+02  0.86154123973E+02  0.00000000000E+00 0. -1.
</event>
<event>
 7    1  0.6188600E-006  0.1492324E+03  0.7818608E-02  0.1285974E+00
          2   -1    0    0  502    0  0.00000000000E+00  0.00000000000E+00  0.21166783415E+04  0.21166783415E+04  0.00000000000E+00 0. -1.
          1   -1    0    0  501    0 -0.00000000000E+00 -0.00000000000E+00 -0.59797726241E+03  0.59797726241E+03  0.00000000000E+00 0. -1.
         25    2    1    2    0    0  0.71142737847E+02  0.10106211833E+03  0.92227458147E+03  0.93887653385E+03  0.12499560506E+03 0.  0.
          2    1    1    2  501    0 -0.17387286705E+02  0.61075445086E+02 -0.58178961059E+03  0.58524497326E+03  0.00000000000E+00 0. -1.
          1    1    1    2  502    0 -0.53755451142E+02 -0.16213756342E+03  0.11782161082E+04  0.11905340968E+04  0.00000000000E+00 0. -1.
         22    1    3    3    0    0  0.26428932563E+02  0.32474132431E+02  0.62597904651E+02  0.75309729918E+02  0.00000000000E+00 0. -1.
         22    1    3    3    0    0  0.44713805285E+02  0.68587985902E+02  0.85967667682E+03  0.86356680394E+03  0.00000000000E+00 0. -1.
</event>
<event>
 7    1  0.6188600E-006  0.7459379E+02  0.7818608E-02  0.1427973E+00
          2   -1    0    0  502    0  0.00000000000E+00  0.00000000000E+00  0.12238874288E+04  0.12238874288E+04  0.00000000000E+00 0. -1.
          1   -1    0    0  501    0 -0.00000000000E+00 -0.00000000000E+00 -0.63429692602E+02  0.63429692602E+02  0.00000000000E+00 0. -1.
         25    2    1    2    0    0 -0.63631577591E+02  0.29482377295E+02  0.18721918864E+03  0.23578545808E+03  0.12500227761E+03 0.  0.
          2    1    1    2  501    0  0.76559095340E+02  0.64461856017E+01 -0.71162174649E+00  0.76833292222E+02  0.00000000000E+00 0. -1.
          1    1    1    2  502    0 -0.12927517750E+02 -0.35928562897E+02  0.97395016929E+03  0.97469837109E+03  0.00000000000E+00 0. -1.
         22    1    3    3    0    0 -0.98273893203E+02  0.41418079336E+02  0.14188781127E+03  0.17749751088E+03  0.00000000000E+00 0. -1.
         22    1    3    3    0    0  0.34642315612E+02 -0.11935702040E+02  0.45331377367E+02  0.58287947195E+02  0.00000000000E+00 0. -1.
</event>
<event>
 7    1  0.6188600E-006  0.9776339E+02  0.7818608E-02  0.1409084E+00
          2   -1    0    0  502    0  0.00000000000E+00  0.00000000000E+00  0.21075651081E+03  0.21075651081E+03  0.00000000000E+00 0. -1.
          1   -1    0    0  501    0 -0.00000000000E+00 -0.00000000000E+00 -0.69557817247E+03  0.69557817247E+03  0.00000000000E+00 0. -1.
         25    2    1    2    0    0 -0.32405684389E+02 -0.87549365039E+02 -0.17004347425E+03  0.23076739416E+03  0.12499514940E+03 0.  0.
          2    1    1    2  501    0  0.81235495600E+00  0.99277212867E+02 -0.48856137667E+03  0.49854673170E+03  0.00000000000E+00 0. -1.
          1    1    1    2  502    0  0.31593329433E+02 -0.11727847828E+02  0.17378318926E+03  0.17702055742E+03  0.00000000000E+00 0. -1.
         22    1    3    3    0    0  0.39606135640E+01 -0.20534913745E+01 -0.12920048063E+03  0.12927748250E+03  0.00000000000E+00 0.  1.
         22    1    3    3    0    0 -0.36366297953E+02 -0.85495873664E+02 -0.40842993620E+02  0.10148991166E+03  0.00000000000E+00 0.  1.
</event>
<event>
 7    1  0.6188600E-006  0.1118128E+03  0.7818608E-02  0.1335969E+00
          2   -1    0    0  502    0  0.00000000000E+00  0.00000000000E+00  0.67480694972E+03  0.67480694972E+03  0.00000000000E+00 0. -1.
          1   -1    0    0  501    0 -0.00000000000E+00 -0.00000000000E+00 -0.18078866671E+03  0.18078866671E+03  0.00000000000E+00 0. -1.
         25    2    1    2    0    0  0.14365447569E+02 -0.10205161111E+03  0.16829948508E+03  0.23360298233E+03  0.12499895704E+03 0.  0.
          2    1    1    2  501    0 -0.53402596568E+02 -0.70975025039E+01 -0.13582278733E+03  0.14611653370E+03  0.00000000000E+00 0. -1.
          1    1    1    2  502    0  0.39037148999E+02  0.10914911361E+03  0.46154158526E+03  0.47587610040E+03  0.00000000000E+00 0. -1.
         22    1    3    3    0    0  0.49932273233E+02  0.37109811065E+01  0.59389492574E+02  0.77679566935E+02  0.00000000000E+00 0.  1.
         22    1    3    3    0    0 -0.35566825664E+02 -0.10576259221E+03  0.10890999251E+03  0.15592341539E+03  0.00000000000E+00 0.  1.
</event>
<event>
 7    1  0.6188600E-006  0.6183114E+02  0.7818608E-02  0.1447046E+00
          2   -1    0    0  502    0  0.00000000000E+00  0.00000000000E+00  0.40763297081E+03  0.40763297081E+03  0.00000000000E+00 0. -1.
          1   -1    0    0  501    0 -0.00000000000E+00 -0.00000000000E+00 -0.50378413982E+03  0.50378413982E+03  0.00000000000E+00 0. -1.
         25    2    1    2    0    0  0.18942236403E+02  0.66103876340E+02  0.10916603168E+03  0.17964329822E+03  0.12500384528E+03 0.  0.
          2    1    1    2  501    0  0.29478855890E+02 -0.26926750372E+02 -0.46399168033E+03  0.46570627250E+03  0.00000000000E+00 0. -1.
          1    1    1    2  502    0 -0.48421092293E+02 -0.39177125968E+02  0.25867447964E+03  0.26606753991E+03  0.00000000000E+00 0. -1.
         22    1    3    3    0    0  0.67874653946E+01 -0.14841475200E+02 -0.20561660197E+02  0.26251113170E+02  0.00000000000E+00 0. -1.
         22    1    3    3    0    0  0.12154771008E+02  0.80945351540E+02  0.12972769188E+03  0.15339218505E+03  0.00000000000E+00 0. -1.
</event>
<event>
 7    1  0.6188600E-006  0.6472391E+02  0.7818608E-02  0.1416209E+00
          2   -1    0    0  502    0  0.00000000000E+00  0.00000000000E+00  0.46978387883E+03  0.46978387883E+03  0.00000000000E+00 0. -1.
          1   -1    0    0  501    0 -0.00000000000E+00 -0.00000000000E+00 -0.13093584222E+04  0.13093584222E+04  0.00000000000E+00 0. -1.
         25    2    1    2    0    0 -0.26578059312E+02 -0.78304665519E+02  0.14903374545E+02  0.15061603189E+03  0.12500025844E+03 0.  0.
          2    1    1    2  501    0  0.45256587990E+02  0.16468853198E+02 -0.12383354803E+04  0.12392716181E+04  0.00000000000E+00 0. -1.
          1    1    1    2  502    0 -0.18678528678E+02  0.61835812321E+02  0.38385756237E+03  0.38925465097E+03  0.00000000000E+00 0. -1.
         22    1    3    3    0    0  0.20553657399E+01  0.19261224704E+02 -0.32962074020E+02  0.38232415947E+02  0.00000000000E+00 0. -1.
         22    1    3    3    0    0 -0.28633425052E+02 -0.97565890223E+02  0.47865448565E+02  0.11238361594E+03  0.00000000000E+00 0. -1.
</event>
<event>
 7    1  0.6188600E-006  0.1063308E+03  0.7818608E-02  0.1297233E+00
          2   -1    0    0  502    0  0.00000000000E+00  0.00000000000E+00  0.26233843880E+04  0.26233843880E+04  0.00000000000E+00 0. -1.
          1   -1    0    0  501    0 -0.00000000000E+00 -0.00000000000E+00 -0.74174589901E+03  0.74174589901E+03  0.00000000000E+00 0. -1.
         25    2    1    2    0    0  0.97432532364E+02  0.20785527270E+02  0.14175935080E+03  0.21364896934E+03  0.12500012821E+03 0.  0.
          2    1    1    2  501    0 -0.76193477812E+01 -0.79863802269E+02 -0.70233504817E+03  0.70690225722E+03  0.00000000000E+00 0. -1.
          1    1    1    2  502    0 -0.89813184583E+02  0.59078275000E+02  0.24422141863E+04  0.24445790604E+04  0.00000000000E+00 0. -1.
         22    1    3    3    0    0  0.46347934713E+02 -0.12079793356E+02  0.14511295030E+03  0.15281302563E+03  0.00000000000E+00 0.  1.
         22    1    3    3    0    0  0.51084597651E+02  0.32865320625E+02 -0.33535994936E+01  0.60835943706E+02  0.00000000000E+00 0.  1.
</event>
<event>
 7    1  0.6188600E-006  0.4127057E+03  0.7818608E-02  0.1063608E+00
          2   -1    0    0  502    0  0.00000000000E+00  0.00000000000E+00  0.98843735056E+03  0.98843735056E+03  0.00000000000E+00 0. -1.
          1   -1    0    0  501    0 -0.00000000000E+00 -0.00000000000E+00 -0.50932135666E+03  0.50932135666E+03  0.00000000000E+00 0. -1.
         25    2    1    2    0    0 -0.28326004953E+03 -0.28126259629E+03  0.11581011302E+03  0.43403210018E+03  0.12500791167E+03 0.  0.
          2    1    1    2  501    0 -0.16736209509E+03  0.24019474138E+03 -0.18996527151E+03  0.34898479772E+03  0.00000000000E+00 0. -1.
          1    1    1    2  502    0  0.45062214462E+03  0.41067854909E+02  0.55327115239E+03  0.71474180932E+03  0.00000000000E+00 0. -1.
         22    1    3    3    0    0 -0.74390202908E+02 -0.15125109045E+03  0.18921010015E+02  0.16961367654E+03  0.00000000000E+00 0.  1.
         22    1    3    3    0    0 -0.20886984662E+03 -0.13001150584E+03  0.96889103002E+02  0.26441842364E+03  0.00000000000E+00 0.  1.
</event>
<event>
 7    1  0.6188600E-006  0.1232417E+03  0.7818608E-02  0.1328298E+00
          2   -1    0    0  502    0  0.00000000000E+00  0.00000000000E+00  0.76887302171E+03  0.76887302171E+03  0.00000000000E+00 0. -1.
          1   -1    0    0  501    0 -0.00000000000E+00 -0.00000000000E+00 -0.13037090726E+04  0.13037090726E+04  0.00000000000E+00 0. -1.
         25    2    1    2    0    0  0.12132953227E+03  0.98852584993E+02 -0.79681565861E+02  0.21556049677E+03  0.12499794746E+03 0.  0.
          2    1    1    2  501    0 -0.69078965179E+02 -0.10049604305E+03 -0.11518902313E+04  0.11583274420E+04  0.00000000000E+00 0. -1.
          1    1    1    2  502    0 -0.52250567092E+02  0.16434580595E+01  0.69673574628E+03  0.69869415545E+03  0.00000000000E+00 0. -1.
         22    1    3    3    0    0  0.60428495833E+02  0.20683160538E+00 -0.79210258410E+02  0.99628865925E+02  0.00000000000E+00 0.  1.
         22    1    3    3    0    0  0.60901036438E+02  0.98645753388E+02 -0.47130745094E+00  0.11593163085E+03  0.00000000000E+00 0.  1.
</event>
<event>
 7    1  0.6188600E-006  0.5418735E+02  0.7818608E-02  0.1445858E+00
          2   -1    0    0  502    0  0.00000000000E+00  0.00000000000E+00  0.13073390370E+04  0.13073390370E+04  0.00000000000E+00 0. -1.
          1   -1    0    0  501    0 -0.00000000000E+00 -0.00000000000E+00 -0.16356550136E+03  0.16356550136E+03  0.00000000000E+00 0. -1.
         25    2    1    2    0    0 -0.44410176004E+02  0.32595818265E+02  0.27908554203E+03  0.31072207407E+03  0.12499886576E+03 0.  0.
          2    1    1    2  501    0 -0.91861696475E+01 -0.45032454529E+02 -0.14340462759E+03  0.15058949129E+03  0.00000000000E+00 0. -1.
          1    1    1    2  502    0  0.53596345651E+02  0.12436636263E+02  0.10080926212E+04  0.10095929730E+04  0.00000000000E+00 0. -1.
         22    1    3    3    0    0 -0.57893750320E+02 -0.33768019935E+02  0.16437513599E+03  0.17751380461E+03  0.00000000000E+00 0.  1.
         22    1    3    3    0    0  0.13483574316E+02  0.66363838201E+02  0.11471040604E+03  0.13320826945E+03  0.00000000000E+00 0.  1.
</event>
<event>
 7    1  0.6188600E-006  0.4156663E+02  0.7818608E-02  0.1505107E+00
          2   -1    0    0  502    0  0.00000000000E+00  0.00000000000E+00  0.99103653945E+03  0.99103653945E+03  0.00000000000E+00 0. -1.
          1   -1    0    0  501    0 -0.00000000000E+00 -0.00000000000E+00 -0.80159227563E+02  0.80159227563E+02  0.00000000000E+00 0. -1.
         25    2    1    2    0    0  0.28248140261E+01  0.38291967959E+02  0.81477536503E+02  0.15406450342E+03  0.12499211126E+03 0.  0.
          2    1    1    2  501    0 -0.38046937109E+02 -0.20826151002E+02 -0.32585140405E+02  0.54250247595E+02  0.00000000000E+00 0. -1.
          1    1    1    2  502    0  0.35222123082E+02 -0.17465816956E+02  0.86198491579E+03  0.86288101600E+03  0.00000000000E+00 0. -1.
         22    1    3    3    0    0 -0.38703204469E+02  0.55710864501E+02  0.85759554708E+01  0.68375327947E+02  0.00000000000E+00 0.  1.
         22    1    3    3    0    0  0.41528018495E+02 -0.17418896542E+02  0.72901581032E+02  0.85689175476E+02  0.00000000000E+00 0.  1.
</event>
<event>
 7    1  0.6188600E-006  0.6450464E+02  0.7818608E-02  0.1454977E+00
          2   -1    0    0  502    0  0.00000000000E+00  0.00000000000E+00  0.79399221857E+03  0.79399221857E+03  0.00000000000E+00 0. -1.
          1   -1    0    0  501    0 -0.00000000000E+00 -0.00000000000E+00 -0.58038863797E+02  0.58038863797E+02  0.00000000000E+00 0. -1.
         25    2    1    2    0    0 -0.89741682505E+01 -0.46971631512E+02  0.17274661119E+03  0.21852624007E+03  0.12500182423E+03 0.  0.
          2    1    1    2  501    0  0.44764726669E+02  0.51701350910E+02 -0.75168501144E+00  0.68392071689E+02  0.00000000000E+00 0. -1.
          1    1    1    2  502    0 -0.35790558418E+02 -0.47297193976E+01  0.56395842860E+03  0.56511277061E+03  0.00000000000E+00 0. -1.
         22    1    3    3    0    0  0.23213876821E+02 -0.78218133983E+02  0.74346353281E+02  0.11038270157E+03  0.00000000000E+00 0. -1.
         22    1    3    3    0    0 -0.32188045072E+02  0.31246502471E+02  0.98400257908E+02  0.10814353850E+03  0.00000000000E+00 0. -1.
</event>
<event>
 7    1  0.6188600E-006  0.1742219E+03  0.7818608E-02  0.1331573E+00
          2   -1    0    0  502    0  0.00000000000E+00  0.00000000000E+00  0.44918334778E+03  0.44918334778E+03  0.00000000000E+00 0. -1.
          1   -1    0    0  501    0 -0.00000000000E+00 -0.00000000000E+00 -0.82271040861E+03  0.82271040861E+03  0.00000000000E+00 0. -1.
         25    2    1    2    0    0  0.31734075156E+02 -0.19634342019E+03  0.92907242083E+02  0.25261441325E+03  0.12499798387E+03 0.  0.
          2    1    1    2  501    0 -0.50098779344E+02  0.16546224112E+03 -0.73157036813E+03  0.75171992421E+03  0.00000000000E+00 0. -1.
          1    1    1    2  502    0  0.18364704188E+02  0.30881179070E+02  0.26513606522E+03  0.26755941893E+03  0.00000000000E+00 0. -1.
         22    1    3    3    0    0  0.64890502098E+02 -0.43404912499E+02  0.37454332186E+02  0.86588629110E+02  0.00000000000E+00 0.  1.
         22    1    3    3    0    0 -0.33156426943E+02 -0.15293850769E+03  0.55452909897E+02  0.16602578414E+03  0.00000000000E+00 0.  1.
</event>
<event>
 7    1  0.6188600E-006  0.6239429E+02  0.7818608E-02  0.1518076E+00
          2   -1    0    0  502    0  0.00000000000E+00  0.00000000000E+00  0.13741519708E+03  0.13741519708E+03  0.00000000000E+00 0. -1.
          1   -1    0    0  501    0 -0.00000000000E+00 -0.00000000000E+00 -0.13486217854E+03  0.13486217854E+03  0.00000000000E+00 0. -1.
         25    2    1    2    0    0  0.34837181008E+02 -0.44817223866E+02 -0.48358736985E+02  0.14555425852E+03  0.12500104798E+03 0.  0.
          2    1    1    2  501    0 -0.17551539232E+02 -0.16356920574E+02 -0.20183313231E+02  0.31352376513E+02  0.00000000000E+00 0. -1.
          1    1    1    2  502    0 -0.17285641776E+02  0.61174144440E+02  0.71095068747E+02  0.95370740585E+02  0.00000000000E+00 0. -1.
         22    1    3    3    0    0  0.30339697805E+02 -0.63680112161E+02  0.20950159923E+02  0.73583715240E+02  0.00000000000E+00 0. -1.
         22    1    3    3    0    0  0.44974832026E+01  0.18862888294E+02 -0.69308896908E+02  0.71970543284E+02  0.00000000000E+00 0. -1.
</event>
<event>
 7    1  0.6188600E-006  0.1809763E+03  0.7818608E-02  0.1302632E+00
          2   -1    0    0  502    0  0.00000000000E+00  0.00000000000E+00  0.35470706898E+04  0.35470706898E+04  0.00000000000E+00 0. -1.
          1   -1    0    0  501    0 -0.00000000000E+00 -0.00000000000E+00 -0.31313305238E+02  0.31313305238E+02  0.00000000000E+00 0. -1.
         25    2    1    2    0    0  0.63814746742E+02  0.17469751727E+03  0.22846082878E+04  0.22955722814E+04  0.12500210519E+03 0.  0.
          2    1    1    2  501    0 -0.19271867948E+02 -0.17991705935E+03  0.29833553450E+03  0.34892068481E+03  0.00000000000E+00 0. -1.
          1    1    1    2  502    0 -0.44542878794E+02  0.52195420848E+01  0.93281356229E+03  0.93389102879E+03  0.00000000000E+00 0. -1.
         22    1    3    3    0    0 -0.23749961949E+02  0.17583050877E+02  0.12326634725E+03  0.12675889213E+03  0.00000000000E+00 0. -1.
         22    1    3    3    0    0  0.87564708691E+02  0.15711446639E+03  0.21613419405E+04  0.21688133893E+04  0.00000000000E+00 0. -1.
</event>
<event>
 7    1  0.6188600E-006  0.9817225E+02  0.7818608E-02  0.1289549E+00
          2   -1    0    0  502    0  0.00000000000E+00  0.00000000000E+00  0.17133538995E+04  0.17133538995E+04  0.00000000000E+00 0. -1.
          1   -1    0    0  501    0 -0.00000000000E+00 -0.00000000000E+00 -0.53790853174E+03  0.53790853174E+03  0.00000000000E+00 0. -1.
         25    2    1    2    0    0 -0.13136834691E+03  0.12510671218E+01  0.10548490289E+03  0.20978752621E+03  0.12499813469E+03 0.  0.
          2    1    1    2  501    0  0.61403611616E+02 -0.70300063882E+02 -0.47970152302E+03  0.48869832585E+03  0.00000000000E+00 0. -1.
          1    1    1    2  502    0  0.69964735296E+02  0.69048996760E+02  0.15496619879E+04  0.15527765792E+04  0.00000000000E+00 0. -1.
         22    1    3    3    0    0 -0.69581629109E+02 -0.28093435469E+02 -0.98623262153E+01  0.75684276467E+02  0.00000000000E+00 0. -1.
         22    1    3    3    0    0 -0.61786717803E+02  0.29344502590E+02  0.11534722910E+03  0.13410324974E+03  0.00000000000E+00 0. -1.
</event>
<event>
 7    1  0.6188600E-006  0.8653135E+02  0.7818608E-02  0.1315378E+00
          2   -1    0    0  502    0  0.00000000000E+00  0.00000000000E+00  0.86621609974E+03  0.86621609974E+03  0.00000000000E+00 0. -1.
          1   -1    0    0  501    0 -0.00000000000E+00 -0.00000000000E+00 -0.26998761331E+03  0.26998761331E+03  0.00000000000E+00 0. -1.
         25    2    1    2    0    0  0.11392493565E+02  0.16030005200E+02  0.16212406675E+03  0.20566052482E+03  0.12500115389E+03 0.  0.
          2    1    1    2  501    0 -0.50458616897E+02  0.70296531561E+02 -0.23724862218E+03  0.25253630055E+03  0.00000000000E+00 0. -1.
          1    1    1    2  502    0  0.39066123331E+02 -0.86326536761E+02  0.67135304185E+03  0.67800688768E+03  0.00000000000E+00 0. -1.
         22    1    3    3    0    0  0.30862412751E+02  0.38513894429E+02  0.16821090822E+03  0.17530179186E+03  0.00000000000E+00 0.  1.
         22    1    3    3    0    0 -0.19469919186E+02 -0.22483889229E+02 -0.60868414681E+01  0.30358732961E+02  0.00000000000E+00 0.  1.
</event>
<event>
 7    1  0.6188600E-006  0.3164974E+02  0.7818608E-02  0.1590219E+00
          2   -1    0    0  502    0  0.00000000000E+00  0.00000000000E+00  0.55467451306E+03  0.55467451306E+03  0.00000000000E+00 0. -1.
          1   -1    0    0  501    0 -0.00000000000E+00 -0.00000000000E+00 -0.13352363904E+04  0.13352363904E+04  0.00000000000E+00 0. -1.
         25    2    1    2    0    0 -0.86311239352E+00  0.25375894560E+02  0.14772434052E+03  0.19517297385E+03  0.12500131179E+03 0.  0.
          2    1    1    2  501    0  0.28486319940E+02 -0.88378125291E+01 -0.13106659155E+04  0.13110052324E+04  0.00000000000E+00 0. -1.
          1    1    1    2  502    0 -0.27623207546E+02 -0.16538082031E+02  0.38237969763E+03  0.38373269722E+03  0.00000000000E+00 0. -1.
         22    1    3    3    0    0 -0.47797590732E+02 -0.17749770492E+02  0.24782711165E+02  0.56690800004E+02  0.00000000000E+00 0.  1.
         22    1    3    3    0    0  0.46934478339E+02  0.43125665053E+02  0.12294162936E+03  0.13848217384E+03  0.00000000000E+00 0.  1.
</event>
<event>
 7    1  0.6188600E-006  0.5945902E+02  0.7818608E-02  0.1442643E+00
          2   -1    0    0  502    0  0.00000000000E+00  0.00000000000E+00  0.11234725199E+04  0.11234725199E+04  0.00000000000E+00 0. -1.
          1   -1    0    0  501    0 -0.00000000000E+00 -0.00000000000E+00 -0.70019759823E+02  0.70019759823E+02  0.00000000000E+00 0. -1.
         25    2    1    2    0    0 -0.44300536103E+02 -0.30258628313E+02  0.51361693581E+03  0.53132435691E+03  0.12500037363E+03 0.  0.
          2    1    1    2  501    0  0.29767227393E+02 -0.30888272331E+02 -0.51769850823E+02  0.67233106788E+02  0.00000000000E+00 0. -1.
          1    1    1    2  502    0  0.14533308710E+02  0.61146900644E+02  0.59160567507E+03  0.59493481600E+03  0.00000000000E+00 0. -1.
         22    1    3    3    0    0  0.39439891302E+02 -0.10063814153E+02  0.86378070076E+02  0.95487990718E+02  0.00000000000E+00 0.  1.
         22    1    3    3    0    0 -0.83740427405E+02 -0.20194814160E+02  0.42723886573E+03  0.43583636619E+03  0.00000000000E+00 0.  1.
</event>
<event>
 7    1  0.6188600E-006  0.8540916E+02  0.7818608E-02  0.1489101E+00
          2   -1    0    0  502    0  0.00000000000E+00  0.00000000000E+00  0.27311629696E+03  0.27311629696E+03  0.00000000000E+00 0. -1.
          1   -1    0    0  501    0 -0.00000000000E+00 -0.00000000000E+00 -0.10622926378E+04  0.10622926378E+04  0.00000000000E+00 0. -1.
         25    2    1    2    0    0 -0.94216628150E+01  0.77041113073E+02 -0.94613116160E+02  0.17492984246E+03  0.12499882879E+03 0.  0.
          2    1    1    2  501    0  0.19672673454E+02  0.83398263335E+01 -0.91945683494E+03  0.91970508213E+03  0.00000000000E+00 0. -1.
          1    1    1    2  502    0 -0.10251010639E+02 -0.85380939407E+02  0.22489361026E+03  0.24077401016E+03  0.00000000000E+00 0. -1.
         22    1    3    3    0    0  0.12406685376E+02  0.10829555500E+03 -0.69245543772E+02  0.12913867897E+03  0.00000000000E+00 0.  1.
         22    1    3    3    0    0 -0.21828348191E+02 -0.31254441924E+02 -0.25367572388E+02  0.45791163488E+02  0.00000000000E+00 0.  1.
</event>
<event>
 7    1  0.6188600E-006  0.4152045E+02  0.7818608E-02  0.1535377E+00
          2   -1    0    0  502    0  0.00000000000E+00  0.00000000000E+00  0.29035675030E+03  0.29035675030E+03  0.00000000000E+00 0. -1.
          1   -1    0    0  501    0 -0.00000000000E+00 -0.00000000000E+00 -0.17511182476E+03  0.17511182476E+03  0.00000000000E+00 0. -1.
         25    2    1    2    0    0 -0.39877158295E+02  0.33844112412E+02 -0.76447850366E+02  0.15558330922E+03  0.12500512223E+03 0.  0.
          2    1    1    2  501    0  0.41172900237E+02 -0.17219617754E+01 -0.50719737959E+02  0.65350322761E+02  0.00000000000E+00 0. -1.
          1    1    1    2  502    0 -0.12957419418E+01 -0.32122150637E+02  0.24241251387E+03  0.24453494308E+03  0.00000000000E+00 0. -1.
         22    1    3    3    0    0  0.42170992200E+02  0.32392163741E+02 -0.34882778000E+02  0.63596014466E+02  0.00000000000E+00 0. -1.
         22    1    3    3    0    0 -0.82048150495E+02  0.14519486708E+01 -0.41565072365E+02  0.91987294750E+02  0.00000000000E+00 0. -1.
</event>
<event>
 7    1  0.6188600E-006  0.5451378E+02  0.7818608E-02  0.1543043E+00
          2   -1    0    0  502    0  0.00000000000E+00  0.00000000000E+00  0.24259826700E+03  0.24259826700E+03  0.00000000000E+00 0. -1.
          1   -1    0    0  501    0 -0.00000000000E+00 -0.00000000000E+00 -0.26544643551E+03  0.26544643551E+03  0.00000000000E+00 0. -1.
         25    2    1    2    0    0  0.37464014180E+02 -0.65884263083E+02 -0.20498132610E+02  0.14761327695E+03  0.12500087044E+03 0.  0.
          2    1    1    2  501    0 -0.22015668036E+02  0.48451738951E+02 -0.17669592549E+03  0.18453647534E+03  0.00000000000E+00 0. -1.
          1    1    1    2  502    0 -0.15448346144E+02  0.17432524132E+02  0.17434588959E+03  0.17589495022E+03  0.00000000000E+00 0. -1.
         22    1    3    3    0    0 -0.16759458018E+02 -0.70031280107E+02  0.25496216174E+02  0.76389244437E+02  0.00000000000E+00 0. -1.
         22    1    3    3    0    0  0.54223472198E+02  0.41470170235E+01 -0.45994348785E+02  0.71224032514E+02  0.00000000000E+00 0. -1.
</event>
<event>
 7    1  0.6188600E-006  0.4544900E+02  0.7818608E-02  0.1482890E+00
          2   -1    0    0  502    0  0.00000000000E+00  0.00000000000E+00  0.93231264237E+03  0.93231264237E+03  0.00000000000E+00 0. -1.
          1   -1    0    0  501    0 -0.00000000000E+00 -0.00000000000E+00 -0.11012670870E+04  0.11012670870E+04  0.00000000000E+00 0. -1.
         25    2    1    2    0    0 -0.22798978236E+01  0.56746491887E+02  0.15234010596E+03  0.20508032470E+03  0.12500027768E+03 0.  0.
          2    1    1    2  501    0  0.34379033323E+02 -0.29753895156E+02 -0.10738320350E+04  0.10747941438E+04  0.00000000000E+00 0. -1.
          1    1    1    2  502    0 -0.32099135499E+02 -0.26992596731E+02  0.75253748441E+03  0.75370526084E+03  0.00000000000E+00 0. -1.
         22    1    3    3    0    0 -0.56093679179E+01  0.54184775852E+02  0.17435577792E+03  0.18266743617E+03  0.00000000000E+00 0.  1.
         22    1    3    3    0    0  0.33294700943E+01  0.25617160345E+01 -0.22015671963E+02  0.22412888527E+02  0.00000000000E+00 0.  1.
</event>
<event>
 7    1  0.6188600E-006  0.1298240E+03  0.7818608E-02  0.1295241E+00
          2   -1    0    0  502    0  0.00000000000E+00  0.00000000000E+00  0.46230883044E+02  0.46230883044E+02  0.00000000000E+00 0. -1.
          1   -1    0    0  501    0 -0.00000000000E+00 -0.00000000000E+00 -0.14200925870E+04  0.14200925870E+04  0.00000000000E+00 0. -1.
         25    2    1    2    0    0  0.16266698781E+02  0.75549888341E+02 -0.59172575126E+03  0.60970232965E+03  0.12500069985E+03 0.  0.
          2    1    1    2  501    0  0.33530080814E+02  0.57929580882E+02 -0.67514289458E+03  0.67845267393E+03  0.00000000000E+00 0. -1.
          1    1    1    2  502    0 -0.49796779595E+02 -0.13347946922E+03 -0.10699305816E+03  0.17816846651E+03  0.00000000000E+00 0. -1.
         22    1    3    3    0    0  0.63051800884E+02  0.84536601982E+01 -0.30343958068E+03  0.31003640607E+03  0.00000000000E+00 0.  1.
         22    1    3    3    0    0 -0.46785102103E+02  0.67096228143E+02 -0.28828617058E+03  0.29966592358E+03  0.00000000000E+00 0.  1.
</event>
<event>
 7    1  0.6188600E-006  0.3579481E+02  0.7818608E-02  0.1547243E+00
          2   -1    0    0  502    0  0.00000000000E+00  0.00000000000E+00  0.43492296528E+02  0.43492296528E+02  0.00000000000E+00 0. -1.
          1   -1    0    0  501    0 -0.00000000000E+00 -0.00000000000E+00 -0.74235202455E+03  0.74235202455E+03  0.00000000000E+00 0. -1.
         25    2    1    2    0    0 -0.52088915740E+02 -0.44821010339E+02 -0.14947238023E+03  0.20661234378E+03  0.12499796014E+03 0.  0.
          2    1    1    2  501    0  0.30052529946E+02  0.18245483455E+02 -0.54298253398E+03  0.54411954976E+03  0.00000000000E+00 0. -1.
          1    1    1    2  502    0  0.22036385794E+02  0.26575526885E+02 -0.64048138152E+01  0.35112427545E+02  0.00000000000E+00 0. -1.
         22    1    3    3    0    0 -0.60254955116E+01 -0.14948975771E+02  0.21597431535E+02  0.26948608900E+02  0.00000000000E+00 0.  1.
         22    1    3    3    0    0 -0.46063420229E+02 -0.29872034569E+02 -0.17106981176E+03  0.17966373488E+03  0.00000000000E+00 0.  1.
</event>
<event>
 7    1  0.7104456E-006  0.8888318E+02  0.7818608E-02  0.1346628E+00
          2   -1    0    0  502    0  0.00000000000E+00  0.00000000000E+00  0.25842542928E+04  0.25842542928E+04  0.00000000000E+00 0. -1.
          1   -1    0    0  501    0 -0.00000000000E+00 -0.00000000000E+00 -0.23166767867E+04  0.23166767867E+04  0.00000000000E+00 0. -1.
         25    2    1    2    0    0 -0.58815786247E+02  0.87990234615E+02 -0.18345594217E+03  0.24593351778E+03  0.12500253739E+03 0.  0.
          2    1    1    2  501    0 -0.29808463331E+01 -0.88902110813E+02 -0.21006666450E+04  0.21025491252E+04  0.00000000000E+00 0. -1.
          1    1    1    2  502    0  0.61796632580E+02  0.91187619869E+00  0.25517000932E+04  0.25524484365E+04  0.00000000000E+00 0. -1.
         22    1    3    3    0    0 -0.20929441839E+02 -0.24016177627E+02 -0.55764335869E+01  0.32340608142E+02  0.00000000000E+00 0.  1.
         22    1    3    3    0    0 -0.37886344408E+02  0.11200641224E+03 -0.17787950858E+03  0.21359290964E+03  0.00000000000E+00 0.  1.
</event>
<event>
 7    1  0.6188600E-006  0.3715872E+02  0.7818608E-02  0.1601733E+00
          2   -1    0    0  502    0  0.00000000000E+00  0.00000000000E+00  0.37889620020E+03  0.37889620020E+03  0.00000000000E+00 0. -1.
          1   -1    0    0  501    0 -0.00000000000E+00 -0.00000000000E+00 -0.61499705388E+03  0.61499705388E+03  0.00000000000E+00 0. -1.
         25    2    1    2    0    0  0.42665292330E+02  0.41256369461E+02 -0.12514049997E+03  0.18656985320E+03  0.12500300076E+03 0.  0.
          2    1    1    2  501    0 -0.22373291285E+02 -0.29021480207E+02 -0.45800609622E+03  0.45946968850E+03  0.00000000000E+00 0. -1.
          1    1    1    2  502    0 -0.20292001044E+02 -0.12234889254E+02  0.34704574251E+03  0.34785371238E+03  0.00000000000E+00 0. -1.
         22    1    3    3    0    0 -0.10952316811E+02  0.50666711046E+02 -0.12140053491E+03  0.13200438905E+03  0.00000000000E+00 0. -1.
         22    1    3    3    0    0  0.53617609141E+02 -0.94103415855E+01 -0.37399650595E+01  0.54565464145E+02  0.00000000000E+00 0. -1.
</event>
<event>
 7    1  0.6188600E-006  0.9184991E+02  0.7818608E-02  0.1320461E+00
          2   -1    0    0  502    0  0.00000000000E+00  0.00000000000E+00  0.89878743682E+03  0.89878743682E+03  0.00000000000E+00 0. -1.
          1   -1    0    0  501    0 -0.00000000000E+00 -0.00000000000E+00 -0.24777358026E+03  0.24777358026E+03  0.00000000000E+00 0. -1.
         25    2    1    2    0    0  0.12128327706E+03  0.65276416040E+02  0.60760798963E+03  0.63543954992E+03  0.12500123502E+03 0.  0.
          2    1    1    2  501    0 -0.44588256412E+02 -0.60548078087E+02 -0.22222380024E+03  0.23460093726E+03  0.00000000000E+00 0. -1.
          1    1    1    2  502    0 -0.76695020644E+02 -0.47283379533E+01  0.26562966717E+03  0.27652052989E+03  0.00000000000E+00 0. -1.
         22    1    3    3    0    0  0.74212982610E+00 -0.30633961159E+02  0.75457469681E+02  0.81442127082E+02  0.00000000000E+00 0.  1.
         22    1    3    3    0    0  0.12054114723E+03  0.95910377199E+02  0.53215051995E+03  0.55399742284E+03  0.00000000000E+00 0.  1.
</event>
<event>
 7    1  0.6188600E-006  0.5057353E+02  0.7818608E-02  0.1446744E+00
          2   -1    0    0  502    0  0.00000000000E+00  0.00000000000E+00  0.28457912949E+04  0.28457912949E+04  0.00000000000E+00 0. -1.
          1   -1    0    0  501    0 -0.00000000000E+00 -0.00000000000E+00 -0.69034246268E+03  0.69034246268E+03  0.00000000000E+00 0. -1.
         25    2    1    2    0    0  0.34944037243E+02  0.21050019525E+02  0.12701564910E+04  0.12769443989E+04  0.12500118824E+03 0.  0.
          2    1    1    2  501    0 -0.39558048301E+02  0.31509414061E+02 -0.68557418707E+03  0.68743701409E+03  0.00000000000E+00 0. -1.
          1    1    1    2  502    0  0.46140110572E+01 -0.52559433586E+02  0.15708665282E+04  0.15717523445E+04  0.00000000000E+00 0. -1.
         22    1    3    3    0    0  0.26633502077E+02  0.99855176602E+01  0.12585836671E+04  0.12589050405E+04  0.00000000000E+00 0. -1.
         22    1    3    3    0    0  0.83105351669E+01  0.11064501865E+02  0.11572823974E+02  0.18039358387E+02  0.00000000000E+00 0. -1.
</event>
<event>
 7    1  0.6188600E-006  0.6609499E+02  0.7818608E-02  0.1381501E+00
          2   -1    0    0  502    0  0.00000000000E+00  0.00000000000E+00  0.35317205800E+03  0.35317205800E+03  0.00000000000E+00 0. -1.
          1   -1    0    0  501    0 -0.00000000000E+00 -0.00000000000E+00 -0.11768125338E+03  0.11768125338E+03  0.00000000000E+00 0. -1.
         25    2    1    2    0    0 -0.22496395519E+02 -0.40178239236E+02 -0.14282785215E+02  0.13397106182E+03  0.12499547485E+03 0.  0.
          2    1    1    2  501    0  0.82825465307E+02  0.13179148876E+02  0.57481371352E+01  0.84064194215E+02  0.00000000000E+00 0. -1.
          1    1    1    2  502    0 -0.60329069788E+02  0.26999090360E+02  0.24402545270E+03  0.25281805534E+03  0.00000000000E+00 0. -1.
         22    1    3    3    0    0 -0.59147649953E+02  0.15292841855E+02  0.12386712663E+02  0.62335753446E+02  0.00000000000E+00 0.  1.
         22    1    3    3    0    0  0.36651254434E+02 -0.55471081091E+02 -0.26669497878E+02  0.71635308376E+02  0.00000000000E+00 0.  1.
</event>
<event>
 7    1  0.6188600E-006  0.8258030E+02  0.7818608E-02  0.1394407E+00
          2   -1    0    0  502    0  0.00000000000E+00  0.00000000000E+00  0.12625529305E+04  0.12625529305E+04  0.00000000000E+00 0. -1.
          1   -1    0    0  501    0 -0.00000000000E+00 -0.00000000000E+00 -0.45010061835E+03  0.45010061835E+03  0.00000000000E+00 0. -1.
         25    2    1    2    0    0 -0.71015254139E+02  0.61888885274E+02  0.26177640153E+03  0.30500042206E+03  0.12499989047E+03 0.  0.
          2    1    1    2  501    0 -0.94589988787E+01 -0.43789286459E+02 -0.42557366730E+03  0.42792513430E+03  0.00000000000E+00 0. -1.
          1    1    1    2  502    0  0.80474253018E+02 -0.18099598815E+02  0.97624957793E+03  0.97972799250E+03  0.00000000000E+00 0. -1.
         22    1    3    3    0    0  0.20996032535E+02  0.43534025907E+02  0.35277227540E+02  0.59837509781E+02  0.00000000000E+00 0. -1.
         22    1    3    3    0    0 -0.92011286674E+02  0.18354859367E+02  0.22649917399E+03  0.24516291228E+03  0.00000000000E+00 0. -1.
</event>
<event>
 7    1  0.6188600E-006  0.1875871E+03  0.7818608E-02  0.1275932E+00
          2   -1    0    0  502    0  0.00000000000E+00  0.00000000000E+00  0.13006488577E+03  0.13006488577E+03  0.00000000000E+00 0. -1.
          1   -1    0    0  501    0 -0.00000000000E+00 -0.00000000000E+00 -0.62523319968E+03  0.62523319968E+03  0.00000000000E+00 0. -1.
         25    2    1    2    0    0 -0.14598721344E+03 -0.14981993508E+02 -0.49460546539E+02  0.19901763676E+03  0.12499978983E+03 0.  0.
          2    1    1    2  501    0  0.19465085257E+03  0.41824095733E+02 -0.45796452879E+03  0.49936932127E+03  0.00000000000E+00 0. -1.
          1    1    1    2  502    0 -0.48663639125E+02 -0.26842102225E+02  0.12256761417E+02  0.56911127428E+02  0.00000000000E+00 0. -1.
         22    1    3    3    0    0 -0.10382207004E+03  0.49788857690E+02 -0.35406320419E+02  0.12046393694E+03  0.00000000000E+00 0.  1.
         22    1    3    3    0    0 -0.42165143404E+02 -0.64770851198E+02 -0.14054226120E+02  0.78553699818E+02  0.00000000000E+00 0.  1.
</event>
<event>
 7    1  0.6188600E-006  0.1050647E+03  0.7818608E-02  0.1404728E+00
          2   -1    0    0  502    0  0.00000000000E+00  0.00000000000E+00  0.26159629000E+03  0.26159629000E+03  0.00000000000E+00 0. -1.
          1   -1    0    0  501    0 -0.00000000000E+00 -0.00000000000E+00 -0.84473408504E+03  0.84473408504E+03  0.00000000000E+00 0. -1.
         25    2    1    2    0    0  0.46776232948E+02  0.94083263747E+02 -0.13456997891E+03  0.21159777445E+03  0.12499944977E+03 0.  0.
          2    1    1    2  501    0  0.26667618124E+02 -0.18483875543E+02 -0.65877885879E+03  0.65957744072E+03  0.00000000000E+00 0. -1.
          1    1    1    2  502    0 -0.73443851072E+02 -0.75599388204E+02  0.21021104267E+03  0.23515515988E+03  0.00000000000E+00 0. -1.
         22    1    3    3    0    0 -0.17958457528E+02  0.39446536308E+02  0.95913029712E+01  0.44390635456E+02  0.00000000000E+00 0. -1.
         22    1    3    3    0    0  0.64734690476E+02  0.54636727439E+02 -0.14416128189E+03  0.16720713900E+03  0.00000000000E+00 0. -1.
</event>
<event>
 7    1  0.6188600E-006  0.8656255E+02  0.7818608E-02  0.1449868E+00
          2   -1    0    0  502    0  0.00000000000E+00  0.00000000000E+00  0.10099623303E+04  0.10099623303E+04  0.00000000000E+00 0. -1.
          1   -1    0    0  501    0 -0.00000000000E+00 -0.00000000000E+00 -0.13388314011E+04  0.13388314011E+04  0.00000000000E+00 0. -1.
         25    2    1    2    0    0 -0.90991011820E+01  0.63620712214E+02 -0.40396694140E+03  0.42772067757E+03  0.12500119845E+03 0.  0.
          2    1    1    2  501    0  0.26164868443E+01 -0.90788446437E+02 -0.92055685175E+03  0.92502665114E+03  0.00000000000E+00 0. -1.
          1    1    1    2  502    0  0.64826143377E+01  0.27167734223E+02  0.99565472234E+03  0.99604640263E+03  0.00000000000E+00 0. -1.
         22    1    3    3    0    0  0.22500533329E+02  0.87676237458E+02 -0.19461948103E+03  0.21463955603E+03  0.00000000000E+00 0.  1.
         22    1    3    3    0    0 -0.31599634511E+02 -0.24055525244E+02 -0.20934746036E+03  0.21308112154E+03  0.00000000000E+00 0.  1.
</event>
<event>
 7    1  0.6188600E-006  0.8770009E+02  0.7818608E-02  0.1473640E+00
          2   -1    0    0  502    0  0.00000000000E+00  0.00000000000E+00  0.32926771353E+03  0.32926771353E+03  0.00000000000E+00 0. -1.
          1   -1    0    0  501    0 -0.00000000000E+00 -0.00000000000E+00 -0.11248468782E+04  0.11248468782E+04  0.00000000000E+00 0. -1.
         25    2    1    2    0    0  0.34380965974E+02 -0.61927905413E+02 -0.46694038948E+03  0.48854838580E+03  0.12501632551E+03 0.  0.
          2    1    1    2  501    0 -0.38048471993E+02  0.84842011224E+02 -0.64333284413E+03  0.65001769316E+03  0.00000000000E+00 0. -1.
          1    1    1    2  502    0  0.36675060185E+01 -0.22914105812E+02  0.31469406897E+03  0.31554851273E+03  0.00000000000E+00 0. -1.
         22    1    3    3    0    0  0.51670728350E+02  0.13332641075E+02 -0.97738113589E+02  0.11135691417E+03  0.00000000000E+00 0. -1.
         22    1    3    3    0    0 -0.17289762376E+02 -0.75260546488E+02 -0.36920227590E+03  0.37719147163E+03  0.00000000000E+00 0. -1.
</event>
<event>
 7    1  0.6188600E-006  0.2956104E+03  0.7818608E-02  0.1256141E+00
          2   -1    0    0  502    0  0.00000000000E+00  0.00000000000E+00  0.20473557676E+04  0.20473557676E+04  0.00000000000E+00 0. -1.
          1   -1    0    0  501    0 -0.00000000000E+00 -0.00000000000E+00 -0.12475758697E+04  0.12475758697E+04  0.00000000000E+00 0. -1.
         25    2    1    2    0    0  0.11642245818E+03  0.31685167938E+03 -0.67560892405E+03  0.76552054712E+03  0.12500045721E+03 0.  0.
          2    1    1    2  501    0 -0.11327661828E+02 -0.41230354352E+02 -0.51525732098E+03  0.51702839852E+03  0.00000000000E+00 0. -1.
          1    1    1    2  502    0 -0.10509479635E+03 -0.27562132503E+03  0.19906461430E+04  0.20123826917E+04  0.00000000000E+00 0. -1.
         22    1    3    3    0    0  0.13419344615E+03  0.30502361035E+03 -0.59320633563E+03  0.68039770759E+03  0.00000000000E+00 0. -1.
         22    1    3    3    0    0 -0.17770987973E+02  0.11828069031E+02 -0.82402588421E+02  0.85122839526E+02  0.00000000000E+00 0. -1.
</event>
<event>
 7    1  0.6188600E-006  0.1061146E+03  0.7818608E-02  0.1268577E+00
          2   -1    0    0  502    0  0.00000000000E+00  0.00000000000E+00  0.15671352736E+03  0.15671352736E+03  0.00000000000E+00 0. -1.
          1   -1    0    0  501    0 -0.00000000000E+00 -0.00000000000E+00 -0.91516666446E+03  0.91516666446E+03  0.00000000000E+00 0. -1.
         25    2    1    2    0    0 -0.28605199856E+02 -0.97263651584E+02 -0.21489387312E+03  0.26848481303E+03  0.12500497087E+03 0.  0.
          2    1    1    2  501    0  0.11069171717E+03  0.31053821349E+02 -0.64613160362E+03  0.65627970048E+03  0.00000000000E+00 0. -1.
          1    1    1    2  502    0 -0.82086517311E+02  0.66209830235E+02  0.10257233965E+03  0.14711567831E+03  0.00000000000E+00 0. -1.
         22    1    3    3    0    0 -0.67947764597E+02 -0.93461542710E+02 -0.18801909590E+03  0.22068787711E+03  0.00000000000E+00 0. -1.
         22    1    3    3    0    0  0.39342564741E+02 -0.38021088731E+01 -0.26874777224E+02  0.47796935918E+02  0.00000000000E+00 0. -1.
</event>
<event>
 7    1  0.6188600E-006  0.4042217E+02  0.7818608E-02  0.1538246E+00
          2   -1    0    0  502    0  0.00000000000E+00  0.00000000000E+00  0.14887953825E+04  0.14887953825E+04  0.00000000000E+00 0. -1.
          1   -1    0    0  501    0 -0.00000000000E+00 -0.00000000000E+00 -0.42277643947E+02  0.42277643947E+02  0.00000000000E+00 0. -1.
         25    2    1    2    0    0 -0.55743121725E+02 -0.42003275915E+02  0.22815366923E+03  0.26935225012E+03  0.12499986822E+03 0.  0.
          2    1    1    2  501    0  0.26666844374E+02  0.27690477444E+02 -0.42498208976E+01  0.38677436673E+02  0.00000000000E+00 0. -1.
          1    1    1    2  502    0  0.29076277351E+02  0.14312798471E+02  0.12226138902E+04  0.12230433396E+04  0.00000000000E+00 0. -1.
         22    1    3    3    0    0 -0.36179946371E+02  0.34457849206E+01  0.21514095635E+03  0.21818912222E+03  0.00000000000E+00 0.  1.
         22    1    3    3    0    0 -0.19563175354E+02 -0.45449060835E+02  0.13012712877E+02  0.51163127906E+02  0.00000000000E+00 0.  1.
</event>
<event>
 7    1  0.6188600E-006  0.8607567E+02  0.7818608E-02  0.1334233E+00
          2   -1    0    0  502    0  0.00000000000E+00  0.00000000000E+00  0.13812777425E+04  0.13812777425E+04  0.00000000000E+00 0. -1.
          1   -1    0    0  501    0 -0.00000000000E+00 -0.00000000000E+00 -0.19862468893E+03  0.19862468893E+03  0.00000000000E+00 0. -1.
         25    2    1    2    0    0  0.22927520739E+02 -0.15042863600E+03  0.39024201018E+03  0.43711319048E+03  0.12499867616E+03 0.  0.
          2    1    1    2  501    0 -0.77149137531E+01  0.70628292087E+02 -0.16619624698E+03  0.18074586592E+03  0.00000000000E+00 0. -1.
          1    1    1    2  502    0 -0.15212606986E+02  0.79800343908E+02  0.95860729035E+03  0.96204337501E+03  0.00000000000E+00 0. -1.
         22    1    3    3    0    0  0.61714060803E+02 -0.27511217432E+02  0.14875035517E+03  0.16337735629E+03  0.00000000000E+00 0. -1.
         22    1    3    3    0    0 -0.38786540064E+02 -0.12291741856E+03  0.24149165501E+03  0.27373583418E+03  0.00000000000E+00 0. -1.
</event>
<event>
 7    1  0.6188600E-006  0.1407070E+03  0.7818608E-02  0.1365918E+00
          2   -1    0    0  502    0  0.00000000000E+00  0.00000000000E+00  0.43068522670E+03  0.43068522670E+03  0.00000000000E+00 0. -1.
          1   -1    0    0  501    0 -0.00000000000E+00 -0.00000000000E+00 -0.21009970255E+04  0.21009970255E+04  0.00000000000E+00 0. -1.
         25    2    1    2    0    0 -0.10703781846E+03 -0.93894484193E+02  0.25579327651E+03  0.31832106048E+03  0.12499931397E+03 0.  0.
          2    1    1    2  501    0 -0.17567667382E+02  0.28133502663E+02 -0.20350126045E+04  0.20352828839E+04  0.00000000000E+00 0. -1.
          1    1    1    2  502    0  0.12460548584E+03  0.65760981530E+02  0.10890752922E+03  0.17807830782E+03  0.00000000000E+00 0. -1.
         22    1    3    3    0    0 -0.20570495471E+02 -0.48136790253E+02  0.93572732722E+01  0.53177574436E+02  0.00000000000E+00 0. -1.
         22    1    3    3    0    0 -0.86467322992E+02 -0.45757693940E+02  0.24643600324E+03  0.26514348604E+03  0.00000000000E+00 0. -1.
</event>
<event>
 7    1  0.6188600E-006  0.3523029E+02  0.7818608E-02  0.1613067E+00
          2   -1    0    0  502    0  0.00000000000E+00  0.00000000000E+00  0.92205618342E+02  0.92205618342E+02  0.00000000000E+00 0. -1.
          1   -1    0    0  501    0 -0.00000000000E+00 -0.00000000000E+00 -0.82169932493E+03  0.82169932493E+03  0.00000000000E+00 0. -1.
         25    2    1    2    0    0 -0.12084559072E+02  0.11235526997E+01 -0.37254711229E+03  0.39314531931E+03  0.12499836910E+03 0.  0.
          2    1    1    2  501    0 -0.22963958756E+02  0.42821997869E+01 -0.43468615958E+03  0.43531337904E+03  0.00000000000E+00 0. -1.
          1    1    1    2  502    0  0.35048517828E+02 -0.54057524867E+01  0.77739565284E+02  0.85446244929E+02  0.00000000000E+00 0. -1.
         22    1    3    3    0    0  0.70367498965E+01 -0.45719438468E+02 -0.56251821740E+02  0.72828911512E+02  0.00000000000E+00 0.  1.
         22    1    3    3    0    0 -0.19121308968E+02  0.46842991168E+02 -0.31629529055E+03  0.32031640780E+03  0.00000000000E+00 0.  1.
</event>
<event>
 7    1  0.6188600E-006  0.1030938E+03  0.7818608E-02  0.1361473E+00
          2   -1    0    0  502    0  0.00000000000E+00  0.00000000000E+00  0.43828723081E+03  0.43828723081E+03  0.00000000000E+00 0. -1.
          1   -1    0    0  501    0 -0.00000000000E+00 -0.00000000000E+00 -0.67581994351E+03  0.67581994351E+03  0.00000000000E+00 0. -1.
         25    2    1    2    0    0 -0.64541339914E+02  0.57793840326E+02 -0.15409873580E+03  0.21651173243E+03  0.12500078946E+03 0.  0.
          2    1    1    2  501    0  0.10304662541E+03 -0.30874473668E+02 -0.48322476134E+03  0.49505354266E+03  0.00000000000E+00 0. -1.
          1    1    1    2  502    0 -0.38505285499E+02 -0.26919366657E+02  0.39979078444E+03  0.40254189923E+03  0.00000000000E+00 0. -1.
         22    1    3    3    0    0 -0.94095318804E+02  0.46287767871E+02 -0.68571848257E+02  0.12529399367E+03  0.00000000000E+00 0. -1.
         22    1    3    3    0    0  0.29553978891E+02  0.11506072454E+02 -0.85526887544E+02  0.91217738760E+02  0.00000000000E+00 0. -1.
</event>
<event>
 7    1  0.6188600E-006  0.4474999E+02  0.7818608E-02  0.1570907E+00
          2   -1    0    0  502    0  0.00000000000E+00  0.00000000000E+00  0.33070596949E+04  0.33070596949E+04  0.00000000000E+00 0. -1.
          1   -1    0    0  501    0 -0.00000000000E+00 -0.00000000000E+00 -0.19175116994E+03  0.19175116994E+03  0.00000000000E+00 0. -1.
         25    2    1    2    0    0  0.15887886150E+02  0.18556818503E+02 -0.16726628708E+03  0.21023641229E+03  0.12499823128E+03 0.  0.
          2    1    1    2  501    0  0.24011797546E+02 -0.38819507371E+02  0.18067146180E+03  0.18634832353E+03  0.00000000000E+00 0. -1.
          1    1    1    2  502    0 -0.39899683696E+02  0.20262688868E+02  0.31019033503E+04  0.31022261290E+04  0.00000000000E+00 0. -1.
         22    1    3    3    0    0 -0.76205312493E+01  0.12902906822E+02 -0.18154092281E+03  0.18215834912E+03  0.00000000000E+00 0. -1.
         22    1    3    3    0    0  0.23508417399E+02  0.56539116808E+01  0.14274635734E+02  0.28078063168E+02  0.00000000000E+00 0. -1.
</event>
<event>
 7    1  0.6188600E-006  0.1493399E+03  0.7818608E-02  0.1357143E+00
          2   -1    0    0  502    0  0.00000000000E+00  0.00000000000E+00  0.12148087544E+04  0.12148087544E+04  0.00000000000E+00 0. -1.
          1   -1    0    0  501    0 -0.00000000000E+00 -0.00000000000E+00 -0.12751525680E+03  0.12751525680E+03  0.00000000000E+00 0. -1.
         25    2    1    2    0    0  0.97005338466E+02  0.96311481390E+02  0.32158717629E+03  0.37111896109E+03  0.12500013675E+03 0.  0.
          2    1    1    2  501    0  0.31331603391E+02 -0.12236493552E+02 -0.93002297265E+02  0.98898070973E+02  0.00000000000E+00 0. -1.
          1    1    1    2  502    0 -0.12833694186E+03 -0.84074987838E+02  0.85870861862E+03  0.87230697918E+03  0.00000000000E+00 0. -1.
         22    1    3    3    0    0  0.77124060068E+02  0.12341755644E+03  0.21717372153E+03  0.26142769403E+03  0.00000000000E+00 0. -1.
         22    1    3    3    0    0  0.19881278398E+02 -0.27106075055E+02  0.10441345476E+03  0.10969126706E+03  0.00000000000E+00 0. -1.
</event>
<event>
 7    1  0.6188600E-006  0.5943014E+02  0.7818608E-02  0.1442508E+00
          2   -1    0    0  502    0  0.00000000000E+00  0.00000000000E+00  0.17597638696E+03  0.17597638696E+03  0.00000000000E+00 0. -1.
          1   -1    0    0  501    0 -0.00000000000E+00 -0.00000000000E+00 -0.11855148603E+03  0.11855148603E+03  0.00000000000E+00 0. -1.
         25    2    1    2    0    0  0.49858870719E+02 -0.77502579349E+01  0.69886891995E+01  0.13497167904E+03  0.12499015513E+03 0.  0.
          2    1    1    2  501    0 -0.42046315593E+02  0.49995265750E+02 -0.27250764273E+02  0.70781518816E+02  0.00000000000E+00 0. -1.
          1    1    1    2  502    0 -0.78125551256E+01 -0.42245007815E+02  0.77686976010E+02  0.88774675131E+02  0.00000000000E+00 0. -1.
         22    1    3    3    0    0 -0.16225161489E+02 -0.74099634531E+01  0.52026359451E+02  0.54999140915E+02  0.00000000000E+00 0. -1.
         22    1    3    3    0    0  0.66084032208E+02 -0.34029448179E+00 -0.45037670251E+02  0.79972538129E+02  0.00000000000E+00 0. -1.
</event>
<event>
 7    1  0.6188600E-006  0.1022354E+03  0.7818608E-02  0.1287624E+00
          2   -1    0    0  502    0  0.00000000000E+00  0.00000000000E+00  0.65361167228E+03  0.65361167228E+03  0.00000000000E+00 0. -1.
          1   -1    0    0  501    0 -0.00000000000E+00 -0.00000000000E+00 -0.10406803880E+04  0.10406803880E+04  0.00000000000E+00 0. -1.
         25    2    1    2    0    0  0.12746936876E+03 -0.40455514473E+02 -0.25294922609E+03  0.31224672201E+03  0.12501846183E+03 0.  0.
          2    1    1    2  501    0 -0.92393256750E+02 -0.43800788029E+02 -0.75126328362E+03  0.75818964926E+03  0.00000000000E+00 0. -1.
          1    1    1    2  502    0 -0.35076112010E+02  0.84256302502E+02  0.61714379404E+03  0.62385568897E+03  0.00000000000E+00 0. -1.
         22    1    3    3    0    0  0.78632929379E+02 -0.21014319046E+02 -0.35961214038E+02  0.88982852858E+02  0.00000000000E+00 0. -1.
         22    1    3    3    0    0  0.48836439381E+02 -0.19441195427E+02 -0.21698801206E+03  0.22326386915E+03  0.00000000000E+00 0. -1.
</event>
<event>
 7    1  0.6188600E-006  0.2295284E+03  0.7818608E-02  0.1258017E+00
          2   -1    0    0  502    0  0.00000000000E+00  0.00000000000E+00  0.52937648423E+03  0.52937648423E+03  0.00000000000E+00 0. -1.
          1   -1    0    0  501    0 -0.00000000000E+00 -0.00000000000E+00 -0.39811586774E+04  0.39811586774E+04  0.00000000000E+00 0. -1.
         25    2    1    2    0    0  0.53009432998E+02  0.17146870630E+03 -0.20985121160E+03  0.30310786961E+03  0.12500132953E+03 0.  0.
          2    1    1    2  501    0 -0.65836122190E+02 -0.22398282644E+03 -0.37194945193E+04  0.37268139450E+04  0.00000000000E+00 0. -1.
          1    1    1    2  502    0  0.12826689192E+02  0.52514120134E+02  0.47756353773E+03  0.48061334702E+03  0.00000000000E+00 0. -1.
         22    1    3    3    0    0  0.66264559785E+01  0.83059849012E+02 -0.18088425795E+03  0.19915311499E+03  0.00000000000E+00 0. -1.
         22    1    3    3    0    0  0.46382977019E+02  0.88408857289E+02 -0.28966953645E+02  0.10395475462E+03  0.00000000000E+00 0. -1.
</event>
<event>
 7    1  0.6188600E-006  0.1386507E+03  0.7818608E-02  0.1334225E+00
          2   -1    0    0  502    0  0.00000000000E+00  0.00000000000E+00  0.67652584251E+03  0.67652584251E+03  0.00000000000E+00 0. -1.
          1   -1    0    0  501    0 -0.00000000000E+00 -0.00000000000E+00 -0.21370181016E+04  0.21370181016E+04  0.00000000000E+00 0. -1.
         25    2    1    2    0    0 -0.53465175129E+02 -0.89347447998E+02 -0.50747013298E+03  0.53290895892E+03  0.12499812483E+03 0.  0.
          2    1    1    2  501    0  0.81723086363E+02  0.12321842172E+03 -0.16127101646E+04  0.16194738396E+04  0.00000000000E+00 0. -1.
          1    1    1    2  502    0 -0.28257911233E+02 -0.33870973719E+02  0.65968803843E+03  0.66116114560E+03  0.00000000000E+00 0. -1.
         22    1    3    3    0    0 -0.61747482783E+02 -0.48466798432E+02 -0.12124037572E+03  0.14443341333E+03  0.00000000000E+00 0. -1.
         22    1    3    3    0    0  0.82823076532E+01 -0.40880649567E+02 -0.38622975726E+03  0.38847554559E+03  0.00000000000E+00 0. -1.
</event>
<event>
 7    1  0.6188600E-006  0.5354444E+02  0.7818608E-02  0.1456365E+00
          2   -1    0    0  502    0  0.00000000000E+00  0.00000000000E+00  0.79069690730E+03  0.79069690730E+03  0.00000000000E+00 0. -1.
          1   -1    0    0  501    0 -0.00000000000E+00 -0.00000000000E+00 -0.13310441894E+04  0.13310441894E+04  0.00000000000E+00 0. -1.
         25    2    1    2    0    0  0.14887800862E+02  0.25398115654E+02  0.95260695313E+01  0.12876804785E+03  0.12499501291E+03 0.  0.
          2    1    1    2  501    0  0.20629256513E+02 -0.49730257798E+02 -0.12702102404E+04  0.12713507460E+04  0.00000000000E+00 0. -1.
          1    1    1    2  502    0 -0.35517057375E+02  0.24332142144E+02  0.72033688878E+03  0.72162230276E+03  0.00000000000E+00 0. -1.
         22    1    3    3    0    0  0.57791072777E+02 -0.22138482104E+02 -0.79415809313E+01  0.62393823334E+02  0.00000000000E+00 0. -1.
         22    1    3    3    0    0 -0.42903271915E+02  0.47536597758E+02  0.17467650463E+02  0.66374224516E+02  0.00000000000E+00 0. -1.
</event>
<event>
 7    1  0.6188600E-006  0.6172239E+02  0.7818608E-02  0.1404656E+00
          2   -1    0    0  502    0  0.00000000000E+00  0.00000000000E+00  0.22235005522E+04  0.22235005522E+04  0.00000000000E+00 0. -1.
          1   -1    0    0  501    0 -0.00000000000E+00 -0.00000000000E+00 -0.68545833724E+02  0.68545833724E+02  0.00000000000E+00 0. -1.
         25    2    1    2    0    0  0.16877007590E+02  0.10906861802E+03  0.91600331863E+03  0.93105727973E+03  0.12499912633E+03 0.  0.
          2    1    1    2  501    0 -0.26928488328E+02 -0.54727124469E+02 -0.45032543819E+02  0.75816433832E+02  0.00000000000E+00 0. -1.
          1    1    1    2  502    0  0.10051480738E+02 -0.54341493546E+02  0.12839839436E+04  0.12851726723E+04  0.00000000000E+00 0. -1.
         22    1    3    3    0    0 -0.16904207101E+00  0.49710397599E+02  0.90557737989E+02  0.10330467615E+03  0.00000000000E+00 0.  1.
         22    1    3    3    0    0  0.17046049661E+02  0.59358220417E+02  0.82544558064E+03  0.82775260359E+03  0.00000000000E+00 0.  1.
</event>
<event>
 7    1  0.6188600E-006  0.8450873E+02  0.7818608E-02  0.1329427E+00
          2   -1    0    0  502    0  0.00000000000E+00  0.00000000000E+00  0.48683640313E+03  0.48683640313E+03  0.00000000000E+00 0. -1.
          1   -1    0    0  501    0 -0.00000000000E+00 -0.00000000000E+00 -0.17798112083E+03  0.17798112083E+03  0.00000000000E+00 0. -1.
         25    2    1    2    0    0 -0.21276242281E+02  0.10283257026E+03  0.15272494808E+03  0.22355399209E+03  0.12499704645E+03 0.  0.
          2    1    1    2  501    0  0.71363760492E+02 -0.46364109792E+02 -0.12441768366E+03  0.15073877071E+03  0.00000000000E+00 0. -1.
          1    1    1    2  502    0 -0.50087518210E+02 -0.56468460470E+02  0.28054801788E+03  0.29052476116E+03  0.00000000000E+00 0. -1.
         22    1    3    3    0    0  0.12735789504E+02  0.78841861223E+02  0.17083855207E+02  0.81670665016E+02  0.00000000000E+00 0.  1.
         22    1    3    3    0    0 -0.34012031786E+02  0.23990709039E+02  0.13564109287E+03  0.14188332707E+03  0.00000000000E+00 0.  1.
</event>
<event>
 7    1  0.6188600E-006  0.7220654E+02  0.7818608E-02  0.1420751E+00
          2   -1    0    0  502    0  0.00000000000E+00  0.00000000000E+00  0.20642580050E+03  0.20642580050E+03  0.00000000000E+00 0. -1.
          1   -1    0    0  501    0 -0.00000000000E+00 -0.00000000000E+00 -0.12500114499E+04  0.12500114499E+04  0.00000000000E+00 0. -1.
         25    2    1    2    0    0 -0.31963765242E+02  0.67732595747E+02 -0.29033536777E+03  0.32485189463E+03  0.12499896340E+03 0.  0.
          2    1    1    2  501    0  0.61809450349E+02 -0.38632538684E+02 -0.93869134680E+03  0.94151703423E+03  0.00000000000E+00 0. -1.
          1    1    1    2  502    0 -0.29845685108E+02 -0.29100057063E+02  0.18544106512E+03  0.19006832159E+03  0.00000000000E+00 0. -1.
         22    1    3    3    0    0 -0.31712195245E+02 -0.85620215722E+01 -0.21547412136E+03  0.21796345684E+03  0.00000000000E+00 0. -1.
         22    1    3    3    0    0 -0.25156999701E+00  0.76294617320E+02 -0.74861246412E+02  0.10688843779E+03  0.00000000000E+00 0. -1.
</event>
<event>
 7    1  0.6188600E-006  0.1345515E+03  0.7818608E-02  0.1433497E+00
          2   -1    0    0  502    0  0.00000000000E+00  0.00000000000E+00  0.61642332011E+03  0.61642332011E+03  0.00000000000E+00 0. -1.
          1   -1    0    0  501    0 -0.00000000000E+00 -0.00000000000E+00 -0.10526219280E+04  0.10526219280E+04  0.00000000000E+00 0. -1.
         25    2    1    2    0    0  0.65933554492E+02  0.11380614151E+03 -0.91941434813E+02  0.20341396932E+03  0.12499977611E+03 0.  0.
          2    1    1    2  501    0 -0.49396705037E+02 -0.12558217944E+03 -0.89972681348E+03  0.90979077659E+03  0.00000000000E+00 0. -1.
          1    1    1    2  502    0 -0.16536849454E+02  0.11776037937E+02  0.55546964041E+03  0.55584050219E+03  0.00000000000E+00 0. -1.
         22    1    3    3    0    0  0.92506618242E+02  0.54815260823E+02 -0.25161683601E+02  0.11043232117E+03  0.00000000000E+00 0.  1.
         22    1    3    3    0    0 -0.26573063750E+02  0.58990880683E+02 -0.66779751212E+02  0.92981648151E+02  0.00000000000E+00 0.  1.
</event>
<event>
 7    1  0.6728746E-006  0.7359914E+02  0.7818608E-02  0.1348679E+00
          2   -1    0    0  502    0  0.00000000000E+00  0.00000000000E+00  0.16161952796E+04  0.16161952796E+04  0.00000000000E+00 0. -1.
          1   -1    0    0  501    0 -0.00000000000E+00 -0.00000000000E+00 -0.40725979302E+03  0.40725979302E+03  0.00000000000E+00 0. -1.
         25    2    1    2    0    0  0.88479685252E+02 -0.74176388232E+02 -0.33294569051E+02  0.17338997559E+03  0.12499905613E+03 0.  0.
          2    1    1    2  501    0 -0.15068393638E+02  0.71774217113E+02 -0.29860552320E+03  0.30747984196E+03  0.00000000000E+00 0. -1.
          1    1    1    2  502    0 -0.73411291614E+02  0.24021711199E+01  0.15408355789E+04  0.15425852551E+04  0.00000000000E+00 0. -1.
         22    1    3    3    0    0  0.20014264302E+02 -0.95728534402E+02 -0.12071259581E+02  0.98540541820E+02  0.00000000000E+00 0. -1.
         22    1    3    3    0    0  0.68465420950E+02  0.21552146169E+02 -0.21223309469E+02  0.74849433767E+02  0.00000000000E+00 0. -1.
</event>
<event>
 7    1  0.6188600E-006  0.1340060E+03  0.7818608E-02  0.1349221E+00
          2   -1    0    0  502    0  0.00000000000E+00  0.00000000000E+00  0.27507080331E+04  0.27507080331E+04  0.00000000000E+00 0. -1.
          1   -1    0    0  501    0 -0.00000000000E+00 -0.00000000000E+00 -0.32952438708E+03  0.32952438708E+03  0.00000000000E+00 0. -1.
         25    2    1    2    0    0  0.61348349266E+02 -0.72956498402E+02  0.70794416174E+03  0.72518676309E+03  0.12499853845E+03 0.  0.
          2    1    1    2  501    0 -0.80070921507E+02  0.10840987686E+03 -0.30654462960E+03  0.33486364958E+03  0.00000000000E+00 0. -1.
          1    1    1    2  502    0  0.18722572241E+02 -0.35453378455E+02  0.20197841139E+04  0.20201820075E+04  0.00000000000E+00 0. -1.
         22    1    3    3    0    0  0.76180762656E+02 -0.28549397569E+02  0.62217319500E+03  0.62746957000E+03  0.00000000000E+00 0.  1.
         22    1    3    3    0    0 -0.14832413390E+02 -0.44407100832E+02  0.85770966737E+02  0.97717193095E+02  0.00000000000E+00 0.  1.
</event>
<event>
 7    1  0.6188600E-006  0.9403690E+02  0.7818608E-02  0.1305359E+00
          2   -1    0    0  502    0  0.00000000000E+00  0.00000000000E+00  0.14968664094E+04  0.14968664094E+04  0.00000000000E+00 0. -1.
          1   -1    0    0  501    0 -0.00000000000E+00 -0.00000000000E+00 -0.20672075125E+04  0.20672075125E+04  0.00000000000E+00 0. -1.
         25    2    1    2    0    0 -0.69367968580E+02 -0.85542856323E+02 -0.32662751884E+02  0.16975561383E+03  0.12498246971E+03 0.  0.
          2    1    1    2  501    0  0.94221481167E+02  0.51140126226E+01 -0.19636240456E+04  0.19658899342E+04  0.00000000000E+00 0. -1.
          1    1    1    2  502    0 -0.24853512587E+02  0.80428843701E+02  0.14259456945E+04  0.14284283740E+04  0.00000000000E+00 0. -1.
         22    1    3    3    0    0 -0.83377509194E+02 -0.44743271729E+02  0.24878199912E+02  0.97840146337E+02  0.00000000000E+00 0. -1.
         22    1    3    3    0    0  0.14009540614E+02 -0.40799584595E+02 -0.57540951796E+02  0.71915467494E+02  0.00000000000E+00 0. -1.
</event>
<event>
 7    1  0.6188600E-006  0.1596199E+03  0.7818608E-02  0.1237271E+00
          2   -1    0    0  502    0  0.00000000000E+00  0.00000000000E+00  0.12247840600E+04  0.12247840600E+04  0.00000000000E+00 0. -1.
          1   -1    0    0  501    0 -0.00000000000E+00 -0.00000000000E+00 -0.82239234857E+02  0.82239234857E+02  0.00000000000E+00 0. -1.
         25    2    1    2    0    0  0.14367461294E+03  0.49773326597E+02  0.27657776972E+03  0.33946809535E+03  0.12499418631E+03 0.  0.
          2    1    1    2  501    0 -0.44400881834E+02  0.84788805113E+02  0.10944856376E+02  0.96334675279E+02  0.00000000000E+00 0. -1.
          1    1    1    2  502    0 -0.99273731108E+02 -0.13456213171E+03  0.85502219906E+03  0.87122052424E+03  0.00000000000E+00 0. -1.
         22    1    3    3    0    0  0.10376539152E+03 -0.10108868558E+02  0.23319667658E+03  0.25544106105E+03  0.00000000000E+00 0. -1.
         22    1    3    3    0    0  0.39909221422E+02  0.59882195156E+02  0.43381093141E+02  0.84027034300E+02  0.00000000000E+00 0. -1.
</event>
<event>
 7    1  0.6188600E-006  0.6436411E+02  0.7818608E-02  0.1420515E+00
          2   -1    0    0  502    0  0.00000000000E+00  0.00000000000E+00  0.93522820776E+03  0.93522820776E+03  0.00000000000E+00 0. -1.
          1   -1    0    0  501    0 -0.00000000000E+00 -0.00000000000E+00 -0.70947376083E+03  0.70947376083E+03  0.00000000000E+00 0. -1.
         25    2    1    2    0    0  0.10054679621E+03  0.37856881982E+02 -0.22879636878E+01  0.16484297440E+03  0.12500067876E+03 0.  0.
          2    1    1    2  501    0 -0.46704611476E+02 -0.36654071907E+01 -0.62383781798E+03  0.62559442060E+03  0.00000000000E+00 0. -1.
          1    1    1    2  502    0 -0.53842184733E+02 -0.34191474792E+02  0.85188022860E+03  0.85426457358E+03  0.00000000000E+00 0. -1.
         22    1    3    3    0    0  0.16845418434E+02 -0.37046215465E+01  0.53359268787E+02  0.56077659620E+02  0.00000000000E+00 0. -1.
         22    1    3    3    0    0  0.83701377776E+02  0.41561503529E+02 -0.55647232474E+02  0.10876531478E+03  0.00000000000E+00 0. -1.
</event>
<event>
 7    1  0.6188600E-006  0.1091170E+03  0.7818608E-02  0.1287295E+00
          2   -1    0    0  502    0  0.00000000000E+00  0.00000000000E+00  0.30316861616E+04  0.30316861616E+04  0.00000000000E+00 0. -1.
          1   -1    0    0  501    0 -0.00000000000E+00 -0.00000000000E+00 -0.15134257037E+04  0.15134257037E+04  0.00000000000E+00 0. -1.
         25    2    1    2    0    0 -0.23793558353E+02  0.19010539895E+03 -0.18331975170E+03  0.29314981548E+03  0.12499794729E+03 0.  0.
          2    1    1    2  501    0  0.12490380980E+02 -0.10507894639E+03 -0.12723762316E+04  0.12767689177E+04  0.00000000000E+00 0. -1.
          1    1    1    2  502    0  0.11303177373E+02 -0.85026452551E+02  0.29739564411E+04  0.29751931321E+04  0.00000000000E+00 0. -1.
         22    1    3    3    0    0  0.35443759694E+02  0.15683619806E+03 -0.13092722125E+03  0.20735426301E+03  0.00000000000E+00 0. -1.
         22    1    3    3    0    0 -0.59237318047E+02  0.33269200882E+02 -0.52392530445E+02  0.85795552467E+02  0.00000000000E+00 0. -1.
</event>
<event>
 7    1  0.6188600E-006  0.2768396E+03  0.7818608E-02  0.1250212E+00
          2   -1    0    0  502    0  0.00000000000E+00  0.00000000000E+00  0.40882921196E+04  0.40882921196E+04  0.00000000000E+00 0. -1.
          1   -1    0    0  501    0 -0.00000000000E+00 -0.00000000000E+00 -0.10940581571E+03  0.10940581571E+03  0.00000000000E+00 0. -1.
         25    2    1    2    0    0 -0.14115669036E+03 -0.19949579947E+03  0.10894931528E+04  0.11235410980E+04  0.12500193433E+03 0.  0.
          2    1    1    2  501    0 -0.13136343717E+02 -0.46612323715E+02 -0.78416917151E+02  0.92165531213E+02  0.00000000000E+00 0. -1.
          1    1    1    2  502    0  0.15429303408E+03  0.24610812318E+03  0.29678100682E+04  0.29819913061E+04  0.00000000000E+00 0. -1.
         22    1    3    3    0    0 -0.16054703631E+03 -0.17029522990E+03  0.85546896642E+03  0.88690640357E+03  0.00000000000E+00 0.  1.
         22    1    3    3    0    0  0.19390345952E+02 -0.29200569565E+02  0.23402418641E+03  0.23663469442E+03  0.00000000000E+00 0.  1.
</event>
<event>
 7    1  0.6188600E-006  0.1012795E+03  0.7818608E-02  0.1361578E+00
          2   -1    0    0  502    0  0.00000000000E+00  0.00000000000E+00  0.33677751665E+03  0.33677751665E+03  0.00000000000E+00 0. -1.
          1   -1    0    0  501    0 -0.00000000000E+00 -0.00000000000E+00 -0.26401102615E+03  0.26401102615E+03  0.00000000000E+00 0. -1.
         25    2    1    2    0    0 -0.30035148112E+02  0.63817573259E+02 -0.12487551208E+03  0.19025260971E+03  0.12500947646E+03 0.  0.
          2    1    1    2  501    0  0.26912828541E+02  0.39481595080E+02 -0.91639426260E+02  0.10334834849E+03  0.00000000000E+00 0. -1.
          1    1    1    2  502    0  0.31223195708E+01 -0.10329916834E+03  0.28928142885E+03  0.30718758460E+03  0.00000000000E+00 0. -1.
         22    1    3    3    0    0 -0.48393391964E+02  0.14881341665E+02 -0.12824536366E+03  0.13787765597E+03  0.00000000000E+00 0. -1.
         22    1    3    3    0    0  0.18358243852E+02  0.48936231593E+02  0.33698515735E+01  0.52374953742E+02  0.00000000000E+00 0. -1.
</event>
<event>
 7    1  0.6188600E-006  0.7500476E+02  0.7818608E-02  0.1484821E+00
          2   -1    0    0  502    0  0.00000000000E+00  0.00000000000E+00  0.11824328132E+04  0.11824328132E+04  0.00000000000E+00 0. -1.
          1   -1    0    0  501    0 -0.00000000000E+00 -0.00000000000E+00 -0.71232570225E+02  0.71232570225E+02  0.00000000000E+00 0. -1.
         25    2    1    2    0    0 -0.54849686637E+02 -0.78761885259E+02  0.36322398611E+03  0.39593928792E+03  0.12499733173E+03 0.  0.
          2    1    1    2  501    0  0.33488575309E+02  0.65637231952E+02 -0.29844714269E+02  0.79501181528E+02  0.00000000000E+00 0. -1.
          1    1    1    2  502    0  0.21361111327E+02  0.13124653307E+02  0.77782097115E+03  0.77822491399E+03  0.00000000000E+00 0. -1.
         22    1    3    3    0    0 -0.94356191113E+02 -0.42523439500E+02  0.25371950159E+03  0.27401627542E+03  0.00000000000E+00 0. -1.
         22    1    3    3    0    0  0.39506504476E+02 -0.36238445759E+02  0.10950448453E+03  0.12192301251E+03  0.00000000000E+00 0. -1.
</event>
<event>
 7    1  0.6188600E-006  0.8209031E+02  0.7818608E-02  0.1416684E+00
          2   -1    0    0  502    0  0.00000000000E+00  0.00000000000E+00  0.73531817447E+02  0.73531817447E+02  0.00000000000E+00 0. -1.
          1   -1    0    0  501    0 -0.00000000000E+00 -0.00000000000E+00 -0.11935071156E+04  0.11935071156E+04  0.00000000000E+00 0. -1.
         25    2    1    2    0    0 -0.55979437924E+02 -0.91205784301E+02 -0.10734955295E+03  0.19647072801E+03  0.12499851153E+03 0.  0.
          2    1    1    2  501    0  0.61095147836E+02  0.53720663183E+02 -0.10269109667E+04  0.10301284679E+04  0.00000000000E+00 0. -1.
          1    1    1    2  502    0 -0.51157099120E+01  0.37485121119E+02  0.14285221479E+02  0.40439737213E+02  0.00000000000E+00 0. -1.
         22    1    3    3    0    0 -0.79397911968E+02 -0.10610910762E+03 -0.69826656574E+02  0.14979630541E+03  0.00000000000E+00 0. -1.
         22    1    3    3    0    0  0.23418474044E+02  0.14903323319E+02 -0.37522896380E+02  0.46674422602E+02  0.00000000000E+00 0. -1.
</event>
<event>
 7    1  0.6188600E-006  0.1065350E+03  0.7818608E-02  0.1307309E+00
          2   -1    0    0  502    0  0.00000000000E+00  0.00000000000E+00  0.22359108570E+04  0.22359108570E+04  0.00000000000E+00 0. -1.
          1   -1    0    0  501    0 -0.00000000000E+00 -0.00000000000E+00 -0.33107644083E+03  0.33107644083E+03  0.00000000000E+00 0. -1.
         25    2    1    2    0    0 -0.22512148035E+02 -0.50205883054E+02  0.70556133791E+03  0.71865808009E+03  0.12500082810E+03 0.  0.
          2    1    1    2  501    0 -0.38970188348E+02 -0.61721206388E+02 -0.31770650127E+03  0.32598405459E+03  0.00000000000E+00 0. -1.
          1    1    1    2  502    0  0.61482336383E+02  0.11192708944E+03  0.15169795795E+04  0.15223451631E+04  0.00000000000E+00 0. -1.
         22    1    3    3    0    0  0.37326080798E+02 -0.30829472184E+02  0.11524510892E+03  0.12500051117E+03  0.00000000000E+00 0.  1.
         22    1    3    3    0    0 -0.59838228833E+02 -0.19376410871E+02  0.59031622899E+03  0.59365756892E+03  0.00000000000E+00 0.  1.
</event>
<event>
 7    1  0.6188600E-006  0.6811672E+02  0.7818608E-02  0.1372440E+00
          2   -1    0    0  502    0  0.00000000000E+00  0.00000000000E+00  0.61641037633E+03  0.61641037633E+03  0.00000000000E+00 0. -1.
          1   -1    0    0  501    0 -0.00000000000E+00 -0.00000000000E+00 -0.23631683428E+03  0.23631683428E+03  0.00000000000E+00 0. -1.
         25    2    1    2    0    0 -0.30966544820E+02 -0.43365709769E+01  0.21769196290E+03  0.25296922921E+03  0.12500362982E+03 0.  0.
          2    1    1    2  501    0  0.34130661281E+02 -0.60494967760E+02 -0.21028588152E+03  0.22146036921E+03  0.00000000000E+00 0. -1.
          1    1    1    2  502    0 -0.31641164611E+01  0.64831538737E+02  0.37268746068E+03  0.37829761220E+03  0.00000000000E+00 0. -1.
         22    1    3    3    0    0 -0.50282282445E+02 -0.53107925311E+02  0.97953919708E+02  0.12224455016E+03  0.00000000000E+00 0. -1.
         22    1    3    3    0    0  0.19315737625E+02  0.48771354334E+02  0.11973804319E+03  0.13072467904E+03  0.00000000000E+00 0. -1.
</event>
<event>
 7    1  0.6188600E-006  0.7533916E+02  0.7818608E-02  0.1400091E+00
          2   -1    0    0  502    0  0.00000000000E+00  0.00000000000E+00  0.56659703156E+02  0.56659703156E+02  0.00000000000E+00 0. -1.
          1   -1    0    0  501    0 -0.00000000000E+00 -0.00000000000E+00 -0.49280704877E+03  0.49280704877E+03  0.00000000000E+00 0. -1.
         25    2    1    2    0    0  0.64978962046E+02 -0.38581337859E+02 -0.89982711919E+02  0.17155791062E+03  0.12499777243E+03 0.  0.
          2    1    1    2  501    0  0.19415065874E+02  0.42731834539E+02 -0.44659355287E+02  0.64787440763E+02  0.00000000000E+00 0. -1.
          1    1    1    2  502    0 -0.84394027921E+02 -0.41504966801E+01 -0.30150527841E+03  0.31312140054E+03  0.00000000000E+00 0. -1.
         22    1    3    3    0    0 -0.22921174510E+02 -0.45066835095E+02 -0.59990948575E+02  0.78455807799E+02  0.00000000000E+00 0.  1.
         22    1    3    3    0    0  0.87900136556E+02  0.64854972364E+01 -0.29991763343E+02  0.93102102819E+02  0.00000000000E+00 0.  1.
</event>
<event>
 7    1  0.6188600E-006  0.6589454E+02  0.7818608E-02  0.1448363E+00
          2   -1    0    0  502    0  0.00000000000E+00  0.00000000000E+00  0.31192430397E+03  0.31192430397E+03  0.00000000000E+00 0. -1.
          1   -1    0    0  501    0 -0.00000000000E+00 -0.00000000000E+00 -0.91098251134E+02  0.91098251134E+02  0.00000000000E+00 0. -1.
         25    2    1    2    0    0 -0.22802078085E+02 -0.69571630404E+02  0.12871848210E+03  0.19378777312E+03  0.12500042742E+03 0.  0.
          2    1    1    2  501    0 -0.26673827302E+02  0.25786706217E+02 -0.44231613120E+02  0.57731125744E+02  0.00000000000E+00 0. -1.
          1    1    1    2  502    0  0.49475905387E+02  0.43784924187E+02  0.13633918386E+03  0.15150365624E+03  0.00000000000E+00 0. -1.
         22    1    3    3    0    0  0.23882913141E+02 -0.17525484182E+01 -0.14927570022E+02  0.28218740455E+02  0.00000000000E+00 0.  1.
         22    1    3    3    0    0 -0.46684991227E+02 -0.67819081985E+02  0.14364605212E+03  0.16556903267E+03  0.00000000000E+00 0.  1.
</event>
<event>
 7    1  0.6188600E-006  0.9023560E+02  0.7818608E-02  0.1351240E+00
          2   -1    0    0  502    0  0.00000000000E+00  0.00000000000E+00  0.11005984705E+04  0.11005984705E+04  0.00000000000E+00 0. -1.
          1   -1    0    0  501    0 -0.00000000000E+00 -0.00000000000E+00 -0.12172081566E+04  0.12172081566E+04  0.00000000000E+00 0. -1.
         25    2    1    2    0    0  0.40285190656E+02 -0.81291353275E+02  0.16059507214E+03  0.22281558508E+03  0.12499930823E+03 0.  0.
          2    1    1    2  501    0 -0.81295316880E+02  0.39538127813E+02 -0.11834301181E+04  0.11868778524E+04  0.00000000000E+00 0. -1.
          1    1    1    2  502    0  0.41010126224E+02  0.41753225462E+02  0.90622535991E+03  0.90811318966E+03  0.00000000000E+00 0. -1.
         22    1    3    3    0    0  0.71717293812E+02 -0.56247959437E+02  0.47472077185E+02  0.10276575930E+03  0.00000000000E+00 0. -1.
         22    1    3    3    0    0 -0.31432103156E+02 -0.25043393838E+02  0.11312299495E+03  0.12004982578E+03  0.00000000000E+00 0. -1.
</event>
<event>
 7    1  0.6188600E-006  0.1654701E+03  0.7818608E-02  0.1376619E+00
          2   -1    0    0  502    0  0.00000000000E+00  0.00000000000E+00  0.12528013459E+04  0.12528013459E+04  0.00000000000E+00 0. -1.
          1   -1    0    0  501    0 -0.00000000000E+00 -0.00000000000E+00 -0.23921828205E+04  0.23921828205E+04  0.00000000000E+00 0. -1.
         25    2    1    2    0    0 -0.21081446215E+02 -0.17552881472E+03 -0.88962725026E+03  0.91559517660E+03  0.12499236312E+03 0.  0.
          2    1    1    2  501    0 -0.88947062544E+00  0.16197027409E+03 -0.14850331848E+04  0.14938402594E+04  0.00000000000E+00 0. -1.
          1    1    1    2  502    0  0.21970916841E+02  0.13558540623E+02  0.12352789604E+04  0.12355487304E+04  0.00000000000E+00 0. -1.
         22    1    3    3    0    0 -0.51813902641E+01 -0.15254147980E+03 -0.45195833566E+03  0.47703468117E+03  0.00000000000E+00 0. -1.
         22    1    3    3    0    0 -0.15900055951E+02 -0.22987334914E+02 -0.43766891460E+03  0.43856049543E+03  0.00000000000E+00 0. -1.
</event>
<event>
 7    1  0.6188600E-006  0.9265518E+02  0.7818608E-02  0.1353415E+00
          2   -1    0    0  502    0  0.00000000000E+00  0.00000000000E+00  0.18702402955E+03  0.18702402955E+03  0.00000000000E+00 0. -1.
          1   -1    0    0  501    0 -0.00000000000E+00 -0.00000000000E+00 -0.13706931231E+04  0.13706931231E+04  0.00000000000E+00 0. -1.
         25    2    1    2    0    0  0.13201597841E+03 -0.54257269943E+02 -0.67551432921E+02  0.20139582822E+03  0.12500005455E+03 0.  0.
          2    1    1    2  501    0 -0.51470099974E+02  0.21943285562E+02 -0.12198160245E+04  0.12210986089E+04  0.00000000000E+00 0. -1.
          1    1    1    2  502    0 -0.80545878436E+02  0.32313984381E+02  0.10369836390E+03  0.13522271553E+03  0.00000000000E+00 0. -1.
         22    1    3    3    0    0  0.46659430791E+02 -0.43291025208E+02 -0.92055501171E+02  0.11191707037E+03  0.00000000000E+00 0. -1.
         22    1    3    3    0    0  0.85356547619E+02 -0.10966244735E+02  0.24504068250E+02  0.89478757847E+02  0.00000000000E+00 0. -1.
</event>
<event>
 7    1  0.6188600E-006  0.7919970E+02  0.7818608E-02  0.1416158E+00
          2   -1    0    0  502    0  0.00000000000E+00  0.00000000000E+00  0.25475256164E+03  0.25475256164E+03  0.00000000000E+00 0. -1.
          1   -1    0    0  501    0 -0.00000000000E+00 -0.00000000000E+00 -0.16280609968E+04  0.16280609968E+04  0.00000000000E+00 0. -1.
         25    2    1    2    0    0 -0.21591862717E+02 -0.44152636665E+02 -0.34186778499E+02  0.13860332652E+03  0.12500592962E+03 0.  0.
          2    1    1    2  501    0  0.11649397594E+02 -0.37610153555E+02 -0.15330292325E+04  0.15335347599E+04  0.00000000000E+00 0. -1.
          1    1    1    2  502    0  0.99424651236E+01  0.81762790220E+02  0.19390757592E+03  0.21067547193E+03  0.00000000000E+00 0. -1.
         22    1    3    3    0    0  0.23561185235E+02  0.11584475969E+02 -0.57473522366E+02  0.63186512060E+02  0.00000000000E+00 0.  1.
         22    1    3    3    0    0 -0.45153047952E+02 -0.55737112634E+02  0.23286743867E+02  0.75416814465E+02  0.00000000000E+00 0.  1.
</event>
<event>
 7    1  0.6188600E-006  0.4084043E+02  0.7818608E-02  0.1566371E+00
          2   -1    0    0  502    0  0.00000000000E+00  0.00000000000E+00  0.11157142772E+04  0.11157142772E+04  0.00000000000E+00 0. -1.
          1   -1    0    0  501    0 -0.00000000000E+00 -0.00000000000E+00 -0.58286013004E+02  0.58286013004E+02  0.00000000000E+00 0. -1.
         25    2    1    2    0    0  0.21534514916E+02 -0.29709711918E+02  0.10330122913E+04  0.10411942758E+04  0.12499889531E+03 0.  0.
          2    1    1    2  501    0 -0.12218247775E+02 -0.23841000206E+02 -0.40237499745E+02  0.48339789566E+02  0.00000000000E+00 0. -1.
          1    1    1    2  502    0 -0.93162671418E+01  0.53550712125E+02  0.64653472683E+02  0.84466224803E+02  0.00000000000E+00 0. -1.
         22    1    3    3    0    0  0.21406503390E+01  0.24008858287E+02  0.41156470844E+02  0.47695521304E+02  0.00000000000E+00 0. -1.
         22    1    3    3    0    0  0.19393864577E+02 -0.53718570205E+02  0.99185582042E+03  0.99349875454E+03  0.00000000000E+00 0. -1.
</event>
<event>
 7    1  0.6188600E-006  0.4444965E+02  0.7818608E-02  0.1503285E+00
          2   -1    0    0  502    0  0.00000000000E+00  0.00000000000E+00  0.17058487160E+04  0.17058487160E+04  0.00000000000E+00 0. -1.
          1   -1    0    0  501    0 -0.00000000000E+00 -0.00000000000E+00 -0.69542276100E+02  0.69542276100E+02  0.00000000000E+00 0. -1.
         25    2    1    2    0    0  0.43419467218E+02 -0.14160277125E+02  0.49697310932E+03  0.51448355727E+03  0.12500118293E+03 0.  0.
          2    1    1    2  501    0 -0.38462988916E+02 -0.22733593402E+02 -0.52247064596E+02  0.68745716551E+02  0.00000000000E+00 0. -1.
          1    1    1    2  502    0 -0.49564783018E+01  0.36893870527E+02  0.11915803951E+04  0.11921617182E+04  0.00000000000E+00 0. -1.
         22    1    3    3    0    0  0.24416775968E+01 -0.65358064169E+02  0.20262908328E+03  0.21292295258E+03  0.00000000000E+00 0. -1.
         22    1    3    3    0    0  0.40977789621E+02  0.51197787044E+02  0.29434402603E+03  0.30156060469E+03  0.00000000000E+00 0. -1.
</event>
<event>
 7    1  0.6188600E-006  0.9071533E+02  0.7818608E-02  0.1308670E+00
          2   -1    0    0  502    0  0.00000000000E+00  0.00000000000E+00  0.15849315880E+04  0.15849315880E+04  0.00000000000E+00 0. -1.
          1   -1    0    0  501    0 -0.00000000000E+00 -0.00000000000E+00 -0.28334279839E+02  0.28334279839E+02  0.00000000000E+00 0. -1.
         25    2    1    2    0    0 -0.11685671736E+02 -0.12826706795E+02  0.45135786311E+03  0.46866673385E+03  0.12499402987E+03 0.  0.
          2    1    1    2  501    0 -0.80343020039E+02 -0.42122082257E+02  0.10553478748E+03  0.13916487362E+03  0.00000000000E+00 0. -1.
          1    1    1    2  502    0  0.92028691775E+02  0.54948789052E+02  0.99970465756E+03  0.10054342603E+04  0.00000000000E+00 0. -1.
         22    1    3    3    0    0 -0.52600852344E+02 -0.19202616040E+02  0.97831768092E+02  0.11272375516E+03  0.00000000000E+00 0. -1.
         22    1    3    3    0    0  0.40915180608E+02  0.63759092456E+01  0.35352609501E+03  0.35594297869E+03  0.00000000000E+00 0. -1.
</event>
<event>
 7    1  0.6188600E-006  0.5190311E+02  0.7818608E-02  0.1470999E+00
          2   -1    0    0  502    0  0.00000000000E+00  0.00000000000E+00  0.10333197610E+03  0.10333197610E+03  0.00000000000E+00 0. -1.
          1   -1    0    0  501    0 -0.00000000000E+00 -0.00000000000E+00 -0.18999624733E+04  0.18999624733E+04  0.00000000000E+00 0. -1.
         25    2    1    2    0    0 -0.20851561308E+02  0.53457835318E+02 -0.10335087836E+03  0.17204350258E+03  0.12500013982E+03 0.  0.
          2    1    1    2  501    0  0.46666613249E+02 -0.22959711286E+02 -0.17560620003E+04  0.17568319982E+04  0.00000000000E+00 0. -1.
          1    1    1    2  502    0 -0.25815051941E+02 -0.30498124032E+02  0.62782381502E+02  0.74418948550E+02  0.00000000000E+00 0. -1.
         22    1    3    3    0    0 -0.49831907273E+02 -0.11152712524E+02 -0.56456882540E+01  0.51375828704E+02  0.00000000000E+00 0. -1.
         22    1    3    3    0    0  0.28980345965E+02  0.64610547842E+02 -0.97705190109E+02  0.12066767388E+03  0.00000000000E+00 0. -1.
</event>
<event>
 7    1  0.6188600E-006  0.1617851E+03  0.7818608E-02  0.1323310E+00
          2   -1    0    0  502    0  0.00000000000E+00  0.00000000000E+00  0.51133837493E+03  0.51133837493E+03  0.00000000000E+00 0. -1.
          1   -1    0    0  501    0 -0.00000000000E+00 -0.00000000000E+00 -0.46091705109E+03  0.46091705109E+03  0.00000000000E+00 0. -1.
         25    2    1    2    0    0  0.15289515425E+03 -0.75789219255E+02  0.12203514794E+03  0.24423035546E+03  0.12503981464E+03 0.  0.
          2    1    1    2  501    0 -0.15769208722E+03  0.34446377061E+02 -0.38208332915E+03  0.41477827532E+03  0.00000000000E+00 0. -1.
          1    1    1    2  502    0  0.47969329646E+01  0.41342842194E+02  0.31046950505E+03  0.31324679524E+03  0.00000000000E+00 0. -1.
         22    1    3    3    0    0 -0.14570342186E+02 -0.89798379119E+01  0.45032479202E+02  0.48175269002E+02  0.00000000000E+00 0. -1.
         22    1    3    3    0    0  0.16746549644E+03 -0.66809381344E+02  0.77002668742E+02  0.19605508646E+03  0.00000000000E+00 0. -1.
</event>
<event>
 7    1  0.6188600E-006  0.7316042E+02  0.7818608E-02  0.1416534E+00
          2   -1    0    0  502    0  0.00000000000E+00  0.00000000000E+00  0.27302408144E+04  0.27302408144E+04  0.00000000000E+00 0. -1.
          1   -1    0    0  501    0 -0.00000000000E+00 -0.00000000000E+00 -0.22574147721E+03  0.22574147721E+03  0.00000000000E+00 0. -1.
         25    2    1    2    0    0  0.30082413253E+02 -0.57709353349E+02 -0.33071857569E+02  0.14474512102E+03  0.12498832443E+03 0.  0.
          2    1    1    2  501    0  0.35018226050E+02  0.24081699746E+02 -0.13301830633E+03  0.13964266625E+03  0.00000000000E+00 0. -1.
          1    1    1    2  502    0 -0.65100639304E+02  0.33627653604E+02  0.26705895011E+04  0.26715945043E+04  0.00000000000E+00 0. -1.
         22    1    3    3    0    0  0.68569412576E+02 -0.59929578879E+02 -0.48552465452E+02  0.10320203810E+03  0.00000000000E+00 0.  1.
         22    1    3    3    0    0 -0.38486999323E+02  0.22202255297E+01  0.15480607883E+02  0.41543082923E+02  0.00000000000E+00 0.  1.
</event>
<event>
 7    1  0.6188600E-006  0.8998349E+02  0.7818608E-02  0.1324272E+00
          2   -1    0    0  502    0  0.00000000000E+00  0.00000000000E+00  0.22910082340E+04  0.22910082340E+04  0.00000000000E+00 0. -1.
          1   -1    0    0  501    0 -0.00000000000E+00 -0.00000000000E+00 -0.11182329060E+03  0.11182329060E+03  0.00000000000E+00 0. -1.
         25    2    1    2    0    0  0.54294484971E+02 -0.25242018241E+02  0.44063314266E+02  0.14543675595E+03  0.12500089493E+03 0.  0.
          2    1    1    2  501    0 -0.51224145589E+02  0.99372878925E+02 -0.88422081657E+01  0.11214752250E+03  0.00000000000E+00 0. -1.
          1    1    1    2  502    0 -0.30703393824E+01 -0.74130860684E+02  0.21439638373E+04  0.21452472462E+04  0.00000000000E+00 0. -1.
         22    1    3    3    0    0  0.58760060363E+02 -0.38552625647E+02 -0.25279667598E+02  0.74686754060E+02  0.00000000000E+00 0.  1.
         22    1    3    3    0    0 -0.44655753919E+01  0.13310607406E+02  0.69342981864E+02  0.70750001886E+02  0.00000000000E+00 0.  1.
</event>
<event>
 7    1  0.6188600E-006  0.9520552E+02  0.7818608E-02  0.1375327E+00
          2   -1    0    0  502    0  0.00000000000E+00  0.00000000000E+00  0.63298415730E+03  0.63298415730E+03  0.00000000000E+00 0. -1.
          1   -1    0    0  501    0 -0.00000000000E+00 -0.00000000000E+00 -0.40800427089E+03  0.40800427089E+03  0.00000000000E+00 0. -1.
         25    2    1    2    0    0 -0.10495645969E+03 -0.12188651818E+01  0.42808291600E+02  0.16874926082E+03  0.12500567640E+03 0.  0.
          2    1    1    2  501    0  0.18631730643E+02  0.41346056761E+02 -0.33921517335E+03  0.34223321234E+03  0.00000000000E+00 0. -1.
          1    1    1    2  502    0  0.86324729047E+02 -0.40127191579E+02  0.52138676816E+03  0.53000595503E+03  0.00000000000E+00 0. -1.
         22    1    3    3    0    0 -0.11858013642E+02 -0.52030083594E+02  0.31792720531E+02  0.62116979685E+02  0.00000000000E+00 0.  1.
         22    1    3    3    0    0 -0.93098446048E+02  0.50811218413E+02  0.11015571069E+02  0.10663228113E+03  0.00000000000E+00 0.  1.
</event>
<event>
 7    1  0.6188600E-006  0.1338656E+03  0.7818608E-02  0.1379490E+00
          2   -1    0    0  502    0  0.00000000000E+00  0.00000000000E+00  0.75420648442E+02  0.75420648442E+02  0.00000000000E+00 0. -1.
          1   -1    0    0  501    0 -0.00000000000E+00 -0.00000000000E+00 -0.21025175816E+04  0.21025175816E+04  0.00000000000E+00 0. -1.
         25    2    1    2    0    0  0.10080096695E+02 -0.15351380337E+03 -0.61291403756E+03  0.64417106306E+03  0.12499857947E+03 0.  0.
          2    1    1    2  501    0 -0.21786086896E+02  0.22295396620E+02 -0.14010254905E+04  0.14013722358E+04  0.00000000000E+00 0. -1.
          1    1    1    2  502    0  0.11705990201E+02  0.13121840675E+03 -0.13157405049E+02  0.13239493111E+03  0.00000000000E+00 0. -1.
         22    1    3    3    0    0  0.25342289978E+02 -0.12382872716E+03 -0.25402461375E+03  0.28373277873E+03  0.00000000000E+00 0. -1.
         22    1    3    3    0    0 -0.15262193283E+02 -0.29685076216E+02 -0.35888942381E+03  0.36043828434E+03  0.00000000000E+00 0. -1.
</event>
<event>
 7    1  0.6188600E-006  0.9108854E+02  0.7818608E-02  0.1408471E+00
          2   -1    0    0  502    0  0.00000000000E+00  0.00000000000E+00  0.23536739923E+03  0.23536739923E+03  0.00000000000E+00 0. -1.
          1   -1    0    0  501    0 -0.00000000000E+00 -0.00000000000E+00 -0.11856315941E+04  0.11856315941E+04  0.00000000000E+00 0. -1.
         25    2    1    2    0    0  0.60214268903E+02 -0.89427062697E+01  0.43202803906E+02  0.14559509897E+03  0.12500288158E+03 0.  0.
          2    1    1    2  501    0 -0.84290956136E+02  0.36166496056E+02 -0.11302038670E+04  0.11339196452E+04  0.00000000000E+00 0. -1.
          1    1    1    2  502    0  0.24076687233E+02 -0.27223789786E+02  0.13673686829E+03  0.14148424912E+03  0.00000000000E+00 0. -1.
         22    1    3    3    0    0  0.52603191805E+02  0.40158816438E+01  0.85634424198E+02  0.10058070243E+03  0.00000000000E+00 0.  1.
         22    1    3    3    0    0  0.76110770981E+01 -0.12958587914E+02 -0.42431620292E+02  0.45014396541E+02  0.00000000000E+00 0.  1.
</event>
<event>
 7    1  0.6188600E-006  0.4602864E+02  0.7818608E-02  0.1481451E+00
          2   -1    0    0  502    0  0.00000000000E+00  0.00000000000E+00  0.54786589240E+03  0.54786589240E+03  0.00000000000E+00 0. -1.
          1   -1    0    0  501    0 -0.00000000000E+00 -0.00000000000E+00 -0.81693071021E+03  0.81693071021E+03  0.00000000000E+00 0. -1.
         25    2    1    2    0    0 -0.24616910705E+02 -0.55154924876E+02  0.41610018306E+02  0.14493035509E+03  0.12500142468E+03 0.  0.
          2    1    1    2  501    0 -0.15516997542E+02  0.43352084076E+02 -0.76361315913E+03  0.76500015503E+03  0.00000000000E+00 0. -1.
          1    1    1    2  502    0  0.40133908247E+02  0.11802840800E+02  0.45293832301E+03  0.45486609249E+03  0.00000000000E+00 0. -1.
         22    1    3    3    0    0 -0.45250801059E+02 -0.67415851569E+02 -0.15788821259E+02  0.82715288284E+02  0.00000000000E+00 0. -1.
         22    1    3    3    0    0  0.20633890354E+02  0.12260926693E+02  0.57398839564E+02  0.62215066807E+02  0.00000000000E+00 0. -1.
</event>
<event>
 7    1  0.6188600E-006  0.4579883E+02  0.7818608E-02  0.1473417E+00
          2   -1    0    0  502    0  0.00000000000E+00  0.00000000000E+00  0.11335317811E+04  0.11335317811E+04  0.00000000000E+00 0. -1.
          1   -1    0    0  501    0 -0.00000000000E+00 -0.00000000000E+00 -0.16756718384E+02  0.16756718384E+02  0.00000000000E+00 0. -1.
         25    2    1    2    0    0  0.22738561100E+02 -0.39782589312E+02  0.71006418995E+03  0.72243717263E+03  0.12499847190E+03 0.  0.
          2    1    1    2  501    0 -0.47394777743E+02  0.27290355014E+01  0.52205246629E+02  0.70562740647E+02  0.00000000000E+00 0. -1.
          1    1    1    2  502    0  0.24656216643E+02  0.37053553811E+02  0.35450562616E+03  0.35728858623E+03  0.00000000000E+00 0. -1.
         22    1    3    3    0    0  0.10881818891E+02  0.56222800358E+01  0.62632941491E+03  0.62644916792E+03  0.00000000000E+00 0. -1.
         22    1    3    3    0    0  0.11856742209E+02 -0.45404869348E+02  0.83734775042E+02  0.95988004707E+02  0.00000000000E+00 0. -1.
</event>
<event>
 7    1  0.6188600E-006  0.4570101E+02  0.7818608E-02  0.1498373E+00
          2   -1    0    0  502    0  0.00000000000E+00  0.00000000000E+00  0.14798207586E+04  0.14798207586E+04  0.00000000000E+00 0. -1.
          1   -1    0    0  501    0 -0.00000000000E+00 -0.00000000000E+00 -0.38397009597E+02  0.38397009597E+02  0.00000000000E+00 0. -1.
         25    2    1    2    0    0 -0.27522537589E+02 -0.53101792991E+02  0.20989596978E+03  0.25151852171E+03  0.12501183200E+03 0.  0.
          2    1    1    2  501    0  0.36511540929E+02  0.83195853327E+01  0.32671683516E+01  0.37589659617E+02  0.00000000000E+00 0. -1.
          1    1    1    2  502    0 -0.89890033400E+01  0.44782207659E+02  0.12282606108E+04  0.12291095868E+04  0.00000000000E+00 0. -1.
         22    1    3    3    0    0  0.32535566008E+02 -0.42510451419E+01  0.15024496757E+03  0.15378616557E+03  0.00000000000E+00 0.  1.
         22    1    3    3    0    0 -0.60058103597E+02 -0.48850747849E+02  0.59651002209E+02  0.97732356145E+02  0.00000000000E+00 0.  1.
</event>
<event>
 7    1  0.6188600E-006  0.4064458E+02  0.7818608E-02  0.1535850E+00
          2   -1    0    0  502    0  0.00000000000E+00  0.00000000000E+00  0.11590065681E+04  0.11590065681E+04  0.00000000000E+00 0. -1.
          1   -1    0    0  501    0 -0.00000000000E+00 -0.00000000000E+00 -0.32532479220E+02  0.32532479220E+02  0.00000000000E+00 0. -1.
         25    2    1    2    0    0 -0.71062762689E+01  0.41718774682E+02  0.18814065609E+03  0.22982954469E+03  0.12503502635E+03 0.  0.
          2    1    1    2  501    0 -0.26777570493E+02 -0.18837107440E+02  0.12610621033E+02  0.35084222395E+02  0.00000000000E+00 0. -1.
          1    1    1    2  502    0  0.33883846761E+02 -0.22881667242E+02  0.92572281170E+03  0.92662528018E+03  0.00000000000E+00 0. -1.
         22    1    3    3    0    0 -0.39961689900E+02 -0.83824001206E+01  0.10218462573E+02  0.42090595966E+02  0.00000000000E+00 0.  1.
         22    1    3    3    0    0  0.32855413631E+02  0.50101174802E+02  0.17792219352E+03  0.18773894873E+03  0.00000000000E+00 0.  1.
</event>
<event>
 7    1  0.6188600E-006  0.1691669E+03  0.7818608E-02  0.1340403E+00
          2   -1    0    0  502    0  0.00000000000E+00  0.00000000000E+00  0.12587848831E+04  0.12587848831E+04  0.00000000000E+00 0. -1.
          1   -1    0    0  501    0 -0.00000000000E+00 -0.00000000000E+00 -0.77065172318E+03  0.77065172318E+03  0.00000000000E+00 0. -1.
         25    2    1    2    0    0  0.69508943918E+02 -0.11963210627E+03 -0.36959818556E+03  0.41396992150E+03  0.12499977201E+03 0.  0.
          2    1    1    2  501    0  0.19720876893E+01 -0.34204994759E+02 -0.37225984198E+03  0.37383319910E+03  0.00000000000E+00 0. -1.
          1    1    1    2  502    0 -0.71481031607E+02  0.15383710103E+03  0.12299911875E+04  0.12416334857E+04  0.00000000000E+00 0. -1.
         22    1    3    3    0    0  0.10312929586E+03 -0.84334266611E+02 -0.22623287701E+03  0.26254377698E+03  0.00000000000E+00 0.  1.
         22    1    3    3    0    0 -0.33620351944E+02 -0.35297839659E+02 -0.14336530855E+03  0.15142614453E+03  0.00000000000E+00 0.  1.
</event>
<event>
 7    1  0.6188600E-006  0.1129316E+03  0.7818608E-02  0.1311934E+00
          2   -1    0    0  502    0  0.00000000000E+00  0.00000000000E+00  0.69715075653E+03  0.69715075653E+03  0.00000000000E+00 0. -1.
          1   -1    0    0  501    0 -0.00000000000E+00 -0.00000000000E+00 -0.11537095931E+04  0.11537095931E+04  0.00000000000E+00 0. -1.
         25    2    1    2    0    0  0.71005317214E+02 -0.13545908515E+03  0.64579497259E+02  0.20781412351E+03  0.12500111857E+03 0.  0.
          2    1    1    2  501    0 -0.86763077159E+02  0.71338289477E+02 -0.10772188682E+04  0.10830593119E+04  0.00000000000E+00 0. -1.
          1    1    1    2  502    0  0.15757759945E+02  0.64120795677E+02  0.55608053434E+03  0.55998691423E+03  0.00000000000E+00 0. -1.
         22    1    3    3    0    0  0.37915805492E+00  0.18587366307E+02 -0.11706962017E+02  0.21970136703E+02  0.00000000000E+00 0. -1.
         22    1    3    3    0    0  0.70626159159E+02 -0.15404645146E+03  0.76286459276E+02  0.18584398681E+03  0.00000000000E+00 0. -1.
</event>
<event>
 7    1  0.6188600E-006  0.9699682E+02  0.7818608E-02  0.1405496E+00
          2   -1    0    0  502    0  0.00000000000E+00  0.00000000000E+00  0.32135117693E+03  0.32135117693E+03  0.00000000000E+00 0. -1.
          1   -1    0    0  501    0 -0.00000000000E+00 -0.00000000000E+00 -0.52543526893E+03  0.52543526893E+03  0.00000000000E+00 0. -1.
         25    2    1    2    0    0 -0.72500109411E+02  0.10670850145E+03 -0.94555258991E+02  0.20299685673E+03  0.12499622671E+03 0.  0.
          2    1    1    2  501    0  0.25388953705E+02 -0.23996371617E+02 -0.36732435895E+03  0.36898185524E+03  0.00000000000E+00 0. -1.
          1    1    1    2  502    0  0.47111155707E+02 -0.82712129837E+02  0.25779552594E+03  0.27480773389E+03  0.00000000000E+00 0. -1.
         22    1    3    3    0    0 -0.68764658234E+02  0.10205614797E+03 -0.15863636664E+02  0.12407937189E+03  0.00000000000E+00 0. -1.
         22    1    3    3    0    0 -0.37354511770E+01  0.46523534842E+01 -0.78691622328E+02  0.78917484837E+02  0.00000000000E+00 0. -1.
</event>
<event>
 7    1  0.6188600E-006  0.4112372E+02  0.7818608E-02  0.1575616E+00
          2   -1    0    0  502    0  0.00000000000E+00  0.00000000000E+00  0.27762597294E+03  0.27762597294E+03  0.00000000000E+00 0. -1.
          1   -1    0    0  501    0 -0.00000000000E+00 -0.00000000000E+00 -0.20490540998E+04  0.20490540998E+04  0.00000000000E+00 0. -1.
         25    2    1    2    0    0 -0.21593447198E+02 -0.63314692852E+01 -0.22380290268E+03  0.25733012818E+03  0.12499876463E+03 0.  0.
          2    1    1    2  501    0 -0.18192584990E+02  0.17309922244E+02 -0.18067672640E+04  0.18069417672E+04  0.00000000000E+00 0. -1.
          1    1    1    2  502    0  0.39786032188E+02 -0.10978452959E+02  0.25914203981E+03  0.26240817743E+03  0.00000000000E+00 0. -1.
         22    1    3    3    0    0  0.25977604508E+01 -0.28444675298E+02  0.24943406184E+01  0.28671756962E+02  0.00000000000E+00 0.  1.
         22    1    3    3    0    0 -0.24191207649E+02  0.22113206012E+02 -0.22629724329E+03  0.22865837122E+03  0.00000000000E+00 0.  1.
</event>
<event>
 7    1  0.6188600E-006  0.5031022E+02  0.7818608E-02  0.1538745E+00
          2   -1    0    0  502    0  0.00000000000E+00  0.00000000000E+00  0.44740478884E+03  0.44740478884E+03  0.00000000000E+00 0. -1.
          1   -1    0    0  501    0 -0.00000000000E+00 -0.00000000000E+00 -0.40926079495E+03  0.40926079495E+03  0.00000000000E+00 0. -1.
         25    2    1    2    0    0 -0.65969853116E+02 -0.82463182546E+01  0.23876196395E+03  0.27758487967E+03  0.12500426674E+03 0.  0.
          2    1    1    2  501    0  0.44641367178E+02  0.23034873373E+02 -0.38732975961E+03  0.39057368029E+03  0.00000000000E+00 0. -1.
          1    1    1    2  502    0  0.21328485938E+02 -0.14788555119E+02  0.18671178955E+03  0.18850702383E+03  0.00000000000E+00 0. -1.
         22    1    3    3    0    0 -0.77652456330E+02 -0.51167877590E+02  0.19027378754E+03  0.21178330882E+03  0.00000000000E+00 0. -1.
         22    1    3    3    0    0  0.11682603214E+02  0.42921559335E+02  0.48488176413E+02  0.65801570843E+02  0.00000000000E+00 0. -1.
</event>
<event>
 7    1  0.6188600E-006  0.3590739E+02  0.7818608E-02  0.1582805E+00
          2   -1    0    0  502    0  0.00000000000E+00  0.00000000000E+00  0.25956681620E+04  0.25956681620E+04  0.00000000000E+00 0. -1.
          1   -1    0    0  501    0 -0.00000000000E+00 -0.00000000000E+00 -0.10693798203E+04  0.10693798203E+04  0.00000000000E+00 0. -1.
         25    2    1    2    0    0  0.18130210409E+01  0.42605378938E+02  0.12384523036E+04  0.12454769741E+04  0.12502111512E+03 0.  0.
          2    1    1    2  501    0 -0.24161491387E+02 -0.26563475196E+02 -0.10654252212E+04  0.10660301581E+04  0.00000000000E+00 0. -1.
          1    1    1    2  502    0  0.22348470346E+02 -0.16041903742E+02  0.13532612593E+04  0.13535408501E+04  0.00000000000E+00 0. -1.
         22    1    3    3    0    0  0.43384617315E+02 -0.21231326216E+02  0.69973707953E+03  0.70140214906E+03  0.00000000000E+00 0.  1.
         22    1    3    3    0    0 -0.41571596274E+02  0.63836705154E+02  0.53871522412E+03  0.54407482503E+03  0.00000000000E+00 0.  1.
</event>
<event>
 7    1  0.6188600E-006  0.4663130E+02  0.7818608E-02  0.1489827E+00
          2   -1    0    0  502    0  0.00000000000E+00  0.00000000000E+00  0.19623368594E+04  0.19623368594E+04  0.00000000000E+00 0. -1.
          1   -1    0    0  501    0 -0.00000000000E+00 -0.00000000000E+00 -0.36452457956E+02  0.36452457956E+02  0.00000000000E+00 0. -1.
         25    2    1    2    0    0 -0.64089061378E+01 -0.20126953343E+02  0.23424683724E+03  0.26635654663E+03  0.12501224278E+03 0.  0.
          2    1    1    2  501    0 -0.23789640105E+02  0.44708711948E+02  0.11614807859E+02  0.51958826603E+02  0.00000000000E+00 0. -1.
          1    1    1    2  502    0  0.30198546243E+02 -0.24581758605E+02  0.16800227564E+04  0.16804739442E+04  0.00000000000E+00 0. -1.
         22    1    3    3    0    0 -0.52470372874E+02 -0.28805306936E+01  0.19906592114E+03  0.20588510982E+03  0.00000000000E+00 0. -1.
         22    1    3    3    0    0  0.46061466736E+02 -0.17246422649E+02  0.35180916108E+02  0.60471436813E+02  0.00000000000E+00 0. -1.
</event>
<event>
 7    1  0.6188600E-006  0.1188523E+03  0.7818608E-02  0.1286499E+00
          2   -1    0    0  502    0  0.00000000000E+00  0.00000000000E+00  0.21985740719E+04  0.21985740719E+04  0.00000000000E+00 0. -1.
          1   -1    0    0  501    0 -0.00000000000E+00 -0.00000000000E+00 -0.24907345629E+04  0.24907345629E+04  0.00000000000E+00 0. -1.
         25    2    1    2    0    0 -0.18634152262E+03  0.10641139582E+02 -0.14534092313E+03  0.26755193928E+03  0.12499463737E+03 0.  0.
          2    1    1    2  501    0  0.11488390034E+03  0.23838368373E+02 -0.22820441950E+04  0.22850584864E+04  0.00000000000E+00 0. -1.
          1    1    1    2  502    0  0.71457622288E+02 -0.34479507955E+02  0.21352246272E+04  0.21366982091E+04  0.00000000000E+00 0. -1.
         22    1    3    3    0    0  0.15971875927E+02 -0.11636121378E+02 -0.51941174132E+01  0.20432302784E+02  0.00000000000E+00 0. -1.
         22    1    3    3    0    0 -0.20231339855E+03  0.22277260959E+02 -0.14014680572E+03  0.24711963650E+03  0.00000000000E+00 0. -1.
</event>
<event>
 7    1  0.6188600E-006  0.1287249E+03  0.7818608E-02  0.1375641E+00
          2   -1    0    0  502    0  0.00000000000E+00  0.00000000000E+00  0.19815447591E+04  0.19815447591E+04  0.00000000000E+00 0. -1.
          1   -1    0    0  501    0 -0.00000000000E+00 -0.00000000000E+00 -0.22569419198E+03  0.22569419198E+03  0.00000000000E+00 0. -1.
         25    2    1    2    0    0  0.93431678496E+02 -0.29072847514E+02 -0.34247767192E+02  0.16239718539E+03  0.12500090902E+03 0.  0.
          2    1    1    2  501    0  0.25771128645E+02 -0.21332381832E+02 -0.12295017050E+03  0.12742043012E+03  0.00000000000E+00 0. -1.
          1    1    1    2  502    0 -0.11920280714E+03  0.50405229346E+02  0.19130485048E+04  0.19174213356E+04  0.00000000000E+00 0. -1.
         22    1    3    3    0    0  0.47929644523E+02  0.97121523254E+01  0.42720346290E+02  0.64935388765E+02  0.00000000000E+00 0. -1.
         22    1    3    3    0    0  0.45502033973E+02 -0.38784999839E+02 -0.76968113482E+02  0.97461796624E+02  0.00000000000E+00 0. -1.
</event>
<event>
 7    1  0.6188600E-006  0.3549373E+02  0.7818608E-02  0.1587692E+00
          2   -1    0    0  502    0  0.00000000000E+00  0.00000000000E+00  0.94506114470E+03  0.94506114470E+03  0.00000000000E+00 0. -1.
          1   -1    0    0  501    0 -0.00000000000E+00 -0.00000000000E+00 -0.16419587858E+03  0.16419587858E+03  0.00000000000E+00 0. -1.
         25    2    1    2    0    0  0.13488258275E+02 -0.56858097614E+02  0.84118908063E+03  0.85243125013E+03  0.12500076182E+03 0.  0.
          2    1    1    2  501    0  0.28262779115E+01  0.35333241080E+02 -0.15467519219E+03  0.15868472154E+03  0.00000000000E+00 0. -1.
          1    1    1    2  502    0 -0.16314536186E+02  0.21524856534E+02  0.94351377683E+02  0.98141051606E+02  0.00000000000E+00 0. -1.
         22    1    3    3    0    0 -0.42975603263E+02 -0.64046502366E+02  0.38044171186E+03  0.38818134044E+03  0.00000000000E+00 0.  1.
         22    1    3    3    0    0  0.56463861537E+02  0.71884047519E+01  0.46074736876E+03  0.46424990969E+03  0.00000000000E+00 0.  1.
</event>
<event>
 7    1  0.6188600E-006  0.8501997E+02  0.7818608E-02  0.1402517E+00
          2   -1    0    0  502    0  0.00000000000E+00  0.00000000000E+00  0.46549841700E+03  0.46549841700E+03  0.00000000000E+00 0. -1.
          1   -1    0    0  501    0 -0.00000000000E+00 -0.00000000000E+00 -0.17902120712E+03  0.17902120712E+03  0.00000000000E+00 0. -1.
         25    2    1    2    0    0  0.79075976663E+02 -0.52915335812E+01 -0.21890303253E+02  0.14961732291E+03  0.12500059010E+03 0.  0.
          2    1    1    2  501    0 -0.76504843792E+02  0.46011844443E+02 -0.70554847488E+02  0.11378957534E+03  0.00000000000E+00 0. -1.
          1    1    1    2  502    0 -0.25711328708E+01 -0.40720310862E+02  0.37892236062E+03  0.38111272587E+03  0.00000000000E+00 0. -1.
         22    1    3    3    0    0  0.10458240942E+03  0.25805846700E+02 -0.17958205851E+02  0.10920585718E+03  0.00000000000E+00 0. -1.
         22    1    3    3    0    0 -0.25506432759E+02 -0.31097380281E+02 -0.39320974020E+01  0.40411465730E+02  0.00000000000E+00 0. -1.
</event>
<event>
 7    1  0.6188600E-006  0.3523749E+02  0.7818608E-02  0.1570819E+00
          2   -1    0    0  502    0  0.00000000000E+00  0.00000000000E+00  0.48878203689E+03  0.48878203689E+03  0.00000000000E+00 0. -1.
          1   -1    0    0  501    0 -0.00000000000E+00 -0.00000000000E+00 -0.15738651038E+04  0.15738651038E+04  0.00000000000E+00 0. -1.
         25    2    1    2    0    0  0.23468629751E+02  0.29695153240E+02  0.53734882271E+02  0.14117299486E+03  0.12493917799E+03 0.  0.
          2    1    1    2  501    0  0.11898387325E+02 -0.27752411821E+02 -0.15291951951E+04  0.15294932863E+04  0.00000000000E+00 0. -1.
          1    1    1    2  502    0 -0.35367017076E+02 -0.19427414187E+01  0.39037724592E+03  0.39198085958E+03  0.00000000000E+00 0. -1.
         22    1    3    3    0    0 -0.40289168688E+02  0.47641603646E+02  0.38137159395E+02  0.73125798719E+02  0.00000000000E+00 0.  1.
         22    1    3    3    0    0  0.63757798439E+02 -0.17946450406E+02  0.15597722876E+02  0.68047196143E+02  0.00000000000E+00 0.  1.
</event>
<event>
 7    1  0.6188600E-006  0.7376550E+02  0.7818608E-02  0.1439180E+00
          2   -1    0    0  502    0  0.00000000000E+00  0.00000000000E+00  0.11546062901E+04  0.11546062901E+04  0.00000000000E+00 0. -1.
          1   -1    0    0  501    0 -0.00000000000E+00 -0.00000000000E+00 -0.90765748115E+02  0.90765748115E+02  0.00000000000E+00 0. -1.
         25    2    1    2    0    0 -0.19757273617E+02  0.60923897332E+02  0.64883275909E+03  0.66386067411E+03  0.12499989696E+03 0.  0.
          2    1    1    2  501    0 -0.35358605386E+02 -0.29657223952E+01 -0.76082981970E+02  0.83950262832E+02  0.00000000000E+00 0. -1.
          1    1    1    2  502    0  0.55115879003E+02 -0.57958174937E+02  0.49109076487E+03  0.49756110128E+03  0.00000000000E+00 0. -1.
         22    1    3    3    0    0  0.31434809154E+02  0.79729003326E+02  0.37843041072E+03  0.38801344945E+03  0.00000000000E+00 0. -1.
         22    1    3    3    0    0 -0.51192082771E+02 -0.18805105994E+02  0.27040234837E+03  0.27584722466E+03  0.00000000000E+00 0. -1.
</event>
<event>
 7    1  0.6188600E-006  0.1518957E+03  0.7818608E-02  0.1210994E+00
          2   -1    0    0  502    0  0.00000000000E+00  0.00000000000E+00  0.26240778988E+04  0.26240778988E+04  0.00000000000E+00 0. -1.
          1   -1    0    0  501    0 -0.00000000000E+00 -0.00000000000E+00 -0.73067739716E+02  0.73067739716E+02  0.00000000000E+00 0. -1.
         25    2    1    2    0    0  0.40718034773E+02  0.11777365349E+03  0.28525042358E+03  0.33544204453E+03  0.12499987708E+03 0.  0.
          2    1    1    2  501    0  0.11242054062E+03 -0.69712580222E+02  0.52002348084E+02  0.14213537913E+03  0.00000000000E+00 0. -1.
          1    1    1    2  502    0 -0.15313857540E+03 -0.48061073271E+02  0.22137573874E+04  0.22195682149E+04  0.00000000000E+00 0. -1.
         22    1    3    3    0    0  0.49862167971E+02  0.61993896073E+02  0.51075737411E+02  0.94542106477E+02  0.00000000000E+00 0.  1.
         22    1    3    3    0    0 -0.91441331983E+01  0.55779757420E+02  0.23417468617E+03  0.24089993805E+03  0.00000000000E+00 0.  1.
</event>
<event>
 7    1  0.6188600E-006  0.4952083E+02  0.7818608E-02  0.1452191E+00
          2   -1    0    0  502    0  0.00000000000E+00  0.00000000000E+00  0.22364188869E+03  0.22364188869E+03  0.00000000000E+00 0. -1.
          1   -1    0    0  501    0 -0.00000000000E+00 -0.00000000000E+00 -0.17363842377E+03  0.17363842377E+03  0.00000000000E+00 0. -1.
         25    2    1    2    0    0 -0.12400167746E+02  0.19111962509E+02  0.94760985739E+02  0.15850568373E+03  0.12500150434E+03 0.  0.
          2    1    1    2  501    0  0.49936149590E+02  0.10797621321E+02 -0.13070441826E+03  0.14033478762E+03  0.00000000000E+00 0. -1.
          1    1    1    2  502    0 -0.37535981843E+02 -0.29909583829E+02  0.85946897444E+02  0.98439841112E+02  0.00000000000E+00 0. -1.
         22    1    3    3    0    0 -0.64538935417E+02 -0.12761211386E+02  0.45114640037E+02  0.79771257020E+02  0.00000000000E+00 0. -1.
         22    1    3    3    0    0  0.52138767671E+02  0.31873173894E+02  0.49646345702E+02  0.78734426713E+02  0.00000000000E+00 0. -1.
</event>
<event>
 7    1  0.6188600E-006  0.9419024E+02  0.7818608E-02  0.1480247E+00
          2   -1    0    0  502    0  0.00000000000E+00  0.00000000000E+00  0.14923554566E+03  0.14923554566E+03  0.00000000000E+00 0. -1.
          1   -1    0    0  501    0 -0.00000000000E+00 -0.00000000000E+00 -0.96835614775E+03  0.96835614775E+03  0.00000000000E+00 0. -1.
         25    2    1    2    0    0 -0.77254239561E+02 -0.13157561731E+02 -0.13860280516E+03  0.20242823565E+03  0.12500045612E+03 0.  0.
          2    1    1    2  501    0  0.91444696335E+02  0.28114459161E+02 -0.79404086093E+03  0.79978337325E+03  0.00000000000E+00 0. -1.
          1    1    1    2  502    0 -0.14190456774E+02 -0.14956897430E+02  0.11352306399E+03  0.11538008451E+03  0.00000000000E+00 0. -1.
         22    1    3    3    0    0 -0.91568108426E+02  0.29907178898E+02 -0.11871518764E+03  0.15288052069E+03  0.00000000000E+00 0. -1.
         22    1    3    3    0    0  0.14313868865E+02 -0.43064740628E+02 -0.19887617517E+02  0.49547714960E+02  0.00000000000E+00 0. -1.
</event>
<event>
 7    1  0.6188600E-006  0.9838354E+02  0.7818608E-02  0.1300021E+00
          2   -1    0    0  502    0  0.00000000000E+00  0.00000000000E+00  0.10702016201E+04  0.10702016201E+04  0.00000000000E+00 0. -1.
          1   -1    0    0  501    0 -0.00000000000E+00 -0.00000000000E+00 -0.43139942840E+03  0.43139942840E+03  0.00000000000E+00 0. -1.
         25    2    1    2    0    0 -0.74824739732E+02  0.15987700089E+03 -0.29945614704E+02  0.21836285884E+03  0.12500480468E+03 0.  0.
          2    1    1    2  501    0  0.32664180928E+02 -0.86643931152E+02 -0.29838418833E+03  0.31242157955E+03  0.00000000000E+00 0. -1.
          1    1    1    2  502    0  0.42160558803E+02 -0.73233069737E+02  0.96713199470E+03  0.97081661007E+03  0.00000000000E+00 0. -1.
         22    1    3    3    0    0 -0.10556185179E+03  0.15006483258E+03 -0.19796730057E+02  0.18453907188E+03  0.00000000000E+00 0.  1.
         22    1    3    3    0    0  0.30737112058E+02  0.98121683085E+01 -0.10148884646E+02  0.33823786957E+02  0.00000000000E+00 0.  1.
</event>
<event>
 7    1  0.6188600E-006  0.5483041E+02  0.7818608E-02  0.1511045E+00
          2   -1    0    0  502    0  0.00000000000E+00  0.00000000000E+00  0.19407621415E+02  0.19407621415E+02  0.00000000000E+00 0. -1.
          1   -1    0    0  501    0 -0.00000000000E+00 -0.00000000000E+00 -0.23109826171E+04  0.23109826171E+04  0.00000000000E+00 0. -1.
         25    2    1    2    0    0  0.13115587226E+02  0.78416856238E+02 -0.15432048898E+04  0.15502992176E+04  0.12500044030E+03 0.  0.
          2    1    1    2  501    0  0.63526035820E+01 -0.27911832021E+02 -0.71691763064E+03  0.71748889542E+03  0.00000000000E+00 0. -1.
          1    1    1    2  502    0 -0.19468190808E+02 -0.50505024217E+02 -0.31452475283E+02  0.62602125570E+02  0.00000000000E+00 0. -1.
         22    1    3    3    0    0 -0.88996943555E+01  0.15859645504E+00 -0.55348041323E+01  0.10481591923E+02  0.00000000000E+00 0. -1.
         22    1    3    3    0    0  0.22015281581E+02  0.78258259783E+02 -0.15376700857E+04  0.15398176256E+04  0.00000000000E+00 0. -1.
</event>
<event>
 7    1  0.6188600E-006  0.1097611E+03  0.7818608E-02  0.1298298E+00
          2   -1    0    0  502    0  0.00000000000E+00  0.00000000000E+00  0.82078645854E+02  0.82078645854E+02  0.00000000000E+00 0. -1.
          1   -1    0    0  501    0 -0.00000000000E+00 -0.00000000000E+00 -0.69387873456E+03  0.69387873456E+03  0.00000000000E+00 0. -1.
         25    2    1    2    0    0 -0.83731468209E+02 -0.32176098257E+02 -0.12259968515E+03  0.19672948519E+03  0.12500218990E+03 0.  0.
          2    1    1    2  501    0  0.11008100285E+03 -0.40129574896E+02 -0.48840922485E+03  0.50226664322E+03  0.00000000000E+00 0. -1.
          1    1    1    2  502    0 -0.26349534642E+02  0.72305673153E+02 -0.79117870902E+00  0.76961252002E+02  0.00000000000E+00 0. -1.
         22    1    3    3    0    0 -0.83371074033E+02 -0.14314681477E+01 -0.14871095799E+02  0.84699082503E+02  0.00000000000E+00 0.  1.
         22    1    3    3    0    0 -0.36039417515E+00 -0.30744630109E+02 -0.10772858935E+03  0.11203040269E+03  0.00000000000E+00 0.  1.
</event>
<event>
 7    1  0.6188600E-006  0.1811350E+03  0.7818608E-02  0.1300416E+00
          2   -1    0    0  502    0  0.00000000000E+00  0.00000000000E+00  0.37543655151E+04  0.37543655151E+04  0.00000000000E+00 0. -1.
          1   -1    0    0  501    0 -0.00000000000E+00 -0.00000000000E+00 -0.24420571000E+03  0.24420571000E+03  0.00000000000E+00 0. -1.
         25    2    1    2    0    0 -0.15340011864E+03 -0.11071462010E+03  0.29939469510E+03  0.37556884867E+03  0.12500181254E+03 0.  0.
          2    1    1    2  501    0  0.16777942698E+03  0.67303161407E+02 -0.16629708469E+03  0.24563056005E+03  0.00000000000E+00 0. -1.
          1    1    1    2  502    0 -0.14379308338E+02  0.43411458697E+02  0.33770621947E+04  0.33773718164E+04  0.00000000000E+00 0. -1.
         22    1    3    3    0    0 -0.16590869927E+02 -0.85774742139E+02  0.12532162638E+03  0.15276803786E+03  0.00000000000E+00 0. -1.
         22    1    3    3    0    0 -0.13680924871E+03 -0.24939877966E+02  0.17407306872E+03  0.22280081081E+03  0.00000000000E+00 0. -1.
</event>
<event>
 7    1  0.7244194E-006  0.6962490E+02  0.7818608E-02  0.1384176E+00
          2   -1    0    0  502    0  0.00000000000E+00  0.00000000000E+00  0.14974862376E+04  0.14974862376E+04  0.00000000000E+00 0. -1.
          1   -1    0    0  501    0 -0.00000000000E+00 -0.00000000000E+00 -0.72449109226E+03  0.72449109226E+03  0.00000000000E+00 0. -1.
         25    2    1    2    0    0 -0.87918706883E+02  0.70002824420E+02 -0.34013508375E+03  0.37940237045E+03  0.12499675619E+03 0.  0.
          2    1    1    2  501    0  0.20225421488E+02 -0.54031550185E+02 -0.36161611867E+03  0.36618942280E+03  0.00000000000E+00 0. -1.
          1    1    1    2  502    0  0.67693285395E+02 -0.15971274234E+02  0.14747463478E+04  0.14763855366E+04  0.00000000000E+00 0. -1.
         22    1    3    3    0    0 -0.14844588203E+02 -0.11736413422E+02 -0.20274616616E+03  0.20362738787E+03  0.00000000000E+00 0. -1.
         22    1    3    3    0    0 -0.73074118680E+02  0.81739237841E+02 -0.13738891759E+03  0.17577498258E+03  0.00000000000E+00 0. -1.
</event>
<event>
 7    1  0.6188600E-006  0.9918425E+02  0.7818608E-02  0.1309670E+00
          2   -1    0    0  502    0  0.00000000000E+00  0.00000000000E+00  0.20310523955E+03  0.20310523955E+03  0.00000000000E+00 0. -1.
          1   -1    0    0  501    0 -0.00000000000E+00 -0.00000000000E+00 -0.47344866151E+03  0.47344866151E+03  0.00000000000E+00 0. -1.
         25    2    1    2    0    0 -0.50469757593E+01 -0.39267365691E+02 -0.33374984484E+03  0.35857792680E+03  0.12498709006E+03 0.  0.
          2    1    1    2  501    0  0.61606596175E+02 -0.45754412580E+02 -0.99533785017E+02  0.12568139609E+03  0.00000000000E+00 0. -1.
          1    1    1    2  502    0 -0.56559620416E+02  0.85021778271E+02  0.16294020791E+03  0.19229457817E+03  0.00000000000E+00 0. -1.
         22    1    3    3    0    0 -0.41567592704E+02 -0.22703340964E+01 -0.32333131871E+02  0.52711010203E+02  0.00000000000E+00 0.  1.
         22    1    3    3    0    0  0.36520616944E+02 -0.36997031594E+02 -0.30141671297E+03  0.30586691660E+03  0.00000000000E+00 0.  1.
</event>
<event>
 7    1  0.6188600E-006  0.8975506E+02  0.7818608E-02  0.1311285E+00
          2   -1    0    0  502    0  0.00000000000E+00  0.00000000000E+00  0.23863527899E+04  0.23863527899E+04  0.00000000000E+00 0. -1.
          1   -1    0    0  501    0 -0.00000000000E+00 -0.00000000000E+00 -0.22629244190E+04  0.22629244190E+04  0.00000000000E+00 0. -1.
         25    2    1    2    0    0  0.40554335176E+02  0.58123656830E+01  0.85158163190E+02  0.15670103794E+03  0.12499945935E+03 0.  0.
          2    1    1    2  501    0 -0.22626338150E+02 -0.87434662091E+02 -0.22254660735E+04  0.22272979181E+04  0.00000000000E+00 0. -1.
          1    1    1    2  502    0 -0.17927997026E+02  0.81622296408E+02  0.22637362812E+04  0.22652782529E+04  0.00000000000E+00 0. -1.
         22    1    3    3    0    0  0.65014222631E+02  0.40722907243E+02  0.20762300118E+02  0.79475011323E+02  0.00000000000E+00 0.  1.
         22    1    3    3    0    0 -0.24459887454E+02 -0.34910541560E+02  0.64395863071E+02  0.77226026617E+02  0.00000000000E+00 0.  1.
</event>
<event>
 7    1  0.6188600E-006  0.5303797E+02  0.7818608E-02  0.1504043E+00
          2   -1    0    0  502    0  0.00000000000E+00  0.00000000000E+00  0.28509657357E+03  0.28509657357E+03  0.00000000000E+00 0. -1.
          1   -1    0    0  501    0 -0.00000000000E+00 -0.00000000000E+00 -0.24345386491E+03  0.24345386491E+03  0.00000000000E+00 0. -1.
         25    2    1    2    0    0  0.37876458266E+02 -0.22150985737E+02 -0.10917106394E+03  0.17166192103E+03  0.12499680664E+03 0.  0.
          2    1    1    2  501    0 -0.25720308863E+02  0.50707490437E+02 -0.94139222097E+02  0.10997716586E+03  0.00000000000E+00 0. -1.
          1    1    1    2  502    0 -0.12156149403E+02 -0.28556504699E+02  0.24495299470E+03  0.24691135158E+03  0.00000000000E+00 0. -1.
         22    1    3    3    0    0 -0.34110340460E+02 -0.30054248402E+02 -0.63585111041E+01  0.45904289960E+02  0.00000000000E+00 0. -1.
         22    1    3    3    0    0  0.71986798726E+02  0.79032626650E+01 -0.10281255284E+03  0.12575763107E+03  0.00000000000E+00 0. -1.
</event>
<event>
 7    1  0.6188600E-006  0.7709572E+02  0.7818608E-02  0.1414562E+00
          2   -1    0    0  502    0  0.00000000000E+00  0.00000000000E+00  0.69781879955E+03  0.69781879955E+03  0.00000000000E+00 0. -1.
          1   -1    0    0  501    0 -0.00000000000E+00 -0.00000000000E+00 -0.32913723639E+03  0.32913723639E+03  0.00000000000E+00 0. -1.
         25    2    1    2    0    0 -0.39927573851E+02 -0.24352161063E+02  0.63475182939E+02  0.14778932889E+03  0.12500139192E+03 0.  0.
          2    1    1    2  501    0  0.78237814718E+02  0.98862126990E+01 -0.28083461703E+03  0.29169671746E+03  0.00000000000E+00 0. -1.
          1    1    1    2  502    0 -0.38310240866E+02  0.14465948364E+02  0.58604099725E+03  0.58746998960E+03  0.00000000000E+00 0. -1.
         22    1    3    3    0    0  0.44091425622E+02 -0.19873051138E+02  0.14757835981E+02  0.50564668472E+02  0.00000000000E+00 0. -1.
         22    1    3    3    0    0 -0.84018999473E+02 -0.44791099252E+01  0.48717346958E+02  0.97224660415E+02  0.00000000000E+00 0. -1.
</event>
<event>
 7    1  0.8170546E-006  0.6181541E+02  0.7818608E-02  0.1520532E+00
          2   -1    0    0  502    0  0.00000000000E+00  0.00000000000E+00  0.12089199594E+04  0.12089199594E+04  0.00000000000E+00 0. -1.
          1   -1    0    0  501    0 -0.00000000000E+00 -0.00000000000E+00 -0.17576826158E+04  0.17576826158E+04  0.00000000000E+00 0. -1.
         25    2    1    2    0    0  0.60293187267E+02 -0.47355337473E+01 -0.10890654076E+04  0.10978830911E+04  0.12500450360E+03 0.  0.
          2    1    1    2  501    0 -0.51723701416E+01 -0.23253226432E+02 -0.66320118235E+03  0.66362886783E+03  0.00000000000E+00 0. -1.
          1    1    1    2  502    0 -0.55120817125E+02  0.27988760179E+02  0.12035039336E+04  0.12050906163E+04  0.00000000000E+00 0. -1.
         22    1    3    3    0    0  0.63943238922E+02 -0.57362886588E+02 -0.70362135476E+03  0.70884571624E+03  0.00000000000E+00 0.  1.
         22    1    3    3    0    0 -0.36500516550E+01  0.52627352840E+02 -0.38544405286E+03  0.38903737485E+03  0.00000000000E+00 0.  1.
</event>
<event>
 7    1  0.6188600E-006  0.1108904E+03  0.7818608E-02  0.1356233E+00
          2   -1    0    0  502    0  0.00000000000E+00  0.00000000000E+00  0.70250143706E+03  0.70250143706E+03  0.00000000000E+00 0. -1.
          1   -1    0    0  501    0 -0.00000000000E+00 -0.00000000000E+00 -0.30583993872E+04  0.30583993872E+04  0.00000000000E+00 0. -1.
         25    2    1    2    0    0 -0.55090413491E+02 -0.61480309361E+02 -0.18271130597E+04  0.18332435305E+04  0.12499970781E+03 0.  0.
          2    1    1    2  501    0 -0.44112266071E+02  0.11743945357E+02 -0.12233910167E+04  0.12242423747E+04  0.00000000000E+00 0. -1.
          1    1    1    2  502    0  0.99202679562E+02  0.49736364004E+02  0.69460612634E+03  0.70341491901E+03  0.00000000000E+00 0. -1.
         22    1    3    3    0    0 -0.62422286986E+02 -0.32797121028E+02 -0.17362029346E+04  0.17376342605E+04  0.00000000000E+00 0.  1.
         22    1    3    3    0    0  0.73318734948E+01 -0.28683188333E+02 -0.90910125132E+02  0.95609270018E+02  0.00000000000E+00 0.  1.
</event>
<event>
 7    1  0.6188600E-006  0.1004044E+03  0.7818608E-02  0.1302099E+00
          2   -1    0    0  502    0  0.00000000000E+00  0.00000000000E+00  0.13109144751E+04  0.13109144751E+04  0.00000000000E+00 0. -1.
          1   -1    0    0  501    0 -0.00000000000E+00 -0.00000000000E+00 -0.31634653105E+03  0.31634653105E+03  0.00000000000E+00 0. -1.
         25    2    1    2    0    0  0.36367441097E+02 -0.79906234083E+02  0.33514515248E+03  0.36831362507E+03  0.12500022466E+03 0.  0.
          2    1    1    2  501    0 -0.97865002258E+02  0.26831739255E+02 -0.28938868657E+03  0.30666482161E+03  0.00000000000E+00 0. -1.
          1    1    1    2  502    0  0.61497561161E+02  0.53074494828E+02  0.94881147819E+03  0.95228255952E+03  0.00000000000E+00 0. -1.
         22    1    3    3    0    0  0.59789888633E+02 -0.92655321996E+02  0.31808288090E+03  0.33665495481E+03  0.00000000000E+00 0.  1.
         22    1    3    3    0    0 -0.23422447536E+02  0.12749087913E+02  0.17062271583E+02  0.31658670262E+02  0.00000000000E+00 0.  1.
</event>
<event>
 7    1  0.6188600E-006  0.2114587E+03  0.7818608E-02  0.1316054E+00
          2   -1    0    0  502    0  0.00000000000E+00  0.00000000000E+00  0.97259698167E+03  0.97259698167E+03  0.00000000000E+00 0. -1.
          1   -1    0    0  501    0 -0.00000000000E+00 -0.00000000000E+00 -0.10490935609E+04  0.10490935609E+04  0.00000000000E+00 0. -1.
         25    2    1    2    0    0 -0.23760025680E+03 -0.58861959521E+02  0.52824411947E+03  0.59547024791E+03  0.12499741632E+03 0.  0.
          2    1    1    2  501    0  0.20451278966E+03  0.51138193288E+02 -0.10038100332E+04  0.10257071603E+04  0.00000000000E+00 0. -1.
          1    1    1    2  502    0  0.33087467140E+02  0.77237662332E+01  0.39906933450E+03  0.40051313435E+03  0.00000000000E+00 0. -1.
         22    1    3    3    0    0 -0.56949987593E+02  0.35903630075E+02  0.93200761224E+02  0.11497283867E+03  0.00000000000E+00 0.  1.
         22    1    3    3    0    0 -0.18065026920E+03 -0.94765589596E+02  0.43504335824E+03  0.48049740924E+03  0.00000000000E+00 0.  1.
</event>
<event>
 7    1  0.6188600E-006  0.7190053E+02  0.7818608E-02  0.1450493E+00
          2   -1    0    0  502    0  0.00000000000E+00  0.00000000000E+00  0.22315954326E+04  0.22315954326E+04  0.00000000000E+00 0. -1.
          1   -1    0    0  501    0 -0.00000000000E+00 -0.00000000000E+00 -0.11865404148E+03  0.11865404148E+03  0.00000000000E+00 0. -1.
         25    2    1    2    0    0  0.20967789101E+02 -0.36604168229E+02  0.97488603417E+03  0.98377184587E+03  0.12499900717E+03 0.  0.
          2    1    1    2  501    0 -0.18127037128E+02  0.69954979704E+02 -0.10253155367E+03  0.12543926083E+03  0.00000000000E+00 0. -1.
          1    1    1    2  502    0 -0.28407519732E+01 -0.33350811475E+02  0.12405869106E+04  0.12410383674E+04  0.00000000000E+00 0. -1.
         22    1    3    3    0    0  0.25961980233E+02 -0.76755756991E+02  0.44301448312E+03  0.45036352306E+03  0.00000000000E+00 0. -1.
         22    1    3    3    0    0 -0.49941911320E+01  0.40151588762E+02  0.53187155105E+03  0.53340832281E+03  0.00000000000E+00 0. -1.
</event>
<event>
 7    1  0.6188600E-006  0.4973903E+02  0.7818608E-02  0.1515536E+00
          2   -1    0    0  502    0  0.00000000000E+00  0.00000000000E+00  0.73783992170E+03  0.73783992170E+03  0.00000000000E+00 0. -1.
          1   -1    0    0  501    0 -0.00000000000E+00 -0.00000000000E+00 -0.24280421211E+02  0.24280421211E+02  0.00000000000E+00 0. -1.
         25    2    1    2    0    0  0.31110438283E+02 -0.18849933815E+02  0.57890406143E+03  0.59336196507E+03  0.12500131947E+03 0.  0.
          2    1    1    2  501    0  0.22356743177E+02 -0.20913475682E+02  0.21386517784E+02  0.37344083515E+02  0.00000000000E+00 0. -1.
          1    1    1    2  502    0 -0.53467181460E+02  0.39763409498E+02  0.11326892127E+03  0.13141429433E+03  0.00000000000E+00 0. -1.
         22    1    3    3    0    0  0.47116908800E+02  0.32364109768E+02  0.45172400594E+03  0.45532627449E+03  0.00000000000E+00 0.  1.
         22    1    3    3    0    0 -0.16006470517E+02 -0.51214043583E+02  0.12718005549E+03  0.13803569058E+03  0.00000000000E+00 0.  1.
</event>
<event>
 7    1  0.6188600E-006  0.5652238E+02  0.7818608E-02  0.1503304E+00
          2   -1    0    0  502    0  0.00000000000E+00  0.00000000000E+00  0.12170543626E+04  0.12170543626E+04  0.00000000000E+00 0. -1.
          1   -1    0    0  501    0 -0.00000000000E+00 -0.00000000000E+00 -0.92278478903E+02  0.92278478903E+02  0.00000000000E+00 0. -1.
         25    2    1    2    0    0  0.20135620584E+02 -0.49020668755E+02  0.24062521793E+03  0.27628645475E+03  0.12500096156E+03 0.  0.
          2    1    1    2  501    0 -0.28314881702E+02 -0.74180400260E+01 -0.70686800802E+02  0.76507409126E+02  0.00000000000E+00 0. -1.
          1    1    1    2  502    0  0.81792611176E+01  0.56438708781E+02  0.95483746654E+03  0.95653897760E+03  0.00000000000E+00 0. -1.
         22    1    3    3    0    0  0.60629419180E+02 -0.54048679525E+02  0.21032033750E+03  0.22545915505E+03  0.00000000000E+00 0. -1.
         22    1    3    3    0    0 -0.40493798595E+02  0.50280107697E+01  0.30304880430E+02  0.50827299700E+02  0.00000000000E+00 0. -1.
</event>
<event>
 7    1  0.6188600E-006  0.7181352E+02  0.7818608E-02  0.1509874E+00
          2   -1    0    0  502    0  0.00000000000E+00  0.00000000000E+00  0.95130230760E+03  0.95130230760E+03  0.00000000000E+00 0. -1.
          1   -1    0    0  501    0 -0.00000000000E+00 -0.00000000000E+00 -0.24772532149E+03  0.24772532149E+03  0.00000000000E+00 0. -1.
         25    2    1    2    0    0  0.31284941341E+02  0.39510016019E+02 -0.16857570570E+02  0.13582962746E+03  0.12500288433E+03 0.  0.
          2    1    1    2  501    0  0.16282227886E+02  0.14839308182E+02 -0.16920418682E+03  0.17063227377E+03  0.00000000000E+00 0. -1.
          1    1    1    2  502    0 -0.47567169227E+02 -0.54349324200E+02  0.88963874350E+03  0.89256572786E+03  0.00000000000E+00 0. -1.
         22    1    3    3    0    0 -0.17157999884E+02 -0.72273189036E+01 -0.55273974587E+02  0.58325323532E+02  0.00000000000E+00 0.  1.
         22    1    3    3    0    0  0.48442941225E+02  0.46737334922E+02  0.38416404016E+02  0.77504303930E+02  0.00000000000E+00 0.  1.
</event>
<event>
 7    1  0.6188600E-006  0.9267136E+02  0.7818608E-02  0.1372286E+00
          2   -1    0    0  502    0  0.00000000000E+00  0.00000000000E+00  0.50553459474E+03  0.50553459474E+03  0.00000000000E+00 0. -1.
          1   -1    0    0  501    0 -0.00000000000E+00 -0.00000000000E+00 -0.22586130430E+04  0.22586130430E+04  0.00000000000E+00 0. -1.
         25    2    1    2    0    0 -0.94132260097E+02 -0.91807869185E+02 -0.34236963765E+03  0.38748031721E+03  0.12503783509E+03 0.  0.
          2    1    1    2  501    0  0.14300424802E+02  0.45580257764E+02 -0.18889783245E+04  0.18895822746E+04  0.00000000000E+00 0. -1.
          1    1    1    2  502    0  0.79831835294E+02  0.46227611421E+02  0.47826951392E+03  0.48708504589E+03  0.00000000000E+00 0. -1.
         22    1    3    3    0    0 -0.68652887292E+02 -0.97205949144E+02 -0.34125672630E+03  0.36141163336E+03  0.00000000000E+00 0.  1.
         22    1    3    3    0    0 -0.25479372805E+02  0.53980799585E+01 -0.11129113444E+01  0.26068683845E+02  0.00000000000E+00 0.  1.
</event>
<event>
 7    1  0.6188600E-006  0.5711443E+02  0.7818608E-02  0.1429740E+00
          2   -1    0    0  502    0  0.00000000000E+00  0.00000000000E+00  0.19154342613E+03  0.19154342613E+03  0.00000000000E+00 0. -1.
          1   -1    0    0  501    0 -0.00000000000E+00 -0.00000000000E+00 -0.25470399442E+04  0.25470399442E+04  0.00000000000E+00 0. -1.
         25    2    1    2    0    0 -0.17177502318E+02 -0.10604229305E+02  0.53996024637E+02  0.13765123297E+03  0.12499909998E+03 0.  0.
          2    1    1    2  501    0  0.15221474545E+01  0.57251900838E+02 -0.24985390359E+04  0.24991953527E+04  0.00000000000E+00 0. -1.
          1    1    1    2  502    0  0.15655354864E+02 -0.46647671533E+02  0.89046493211E+02  0.10173678464E+03  0.00000000000E+00 0. -1.
         22    1    3    3    0    0 -0.55618533767E+02 -0.24727382818E+01 -0.15522787438E+02  0.57796995276E+02  0.00000000000E+00 0. -1.
         22    1    3    3    0    0  0.38441031449E+02 -0.81314910236E+01  0.69518812075E+02  0.79854237693E+02  0.00000000000E+00 0. -1.
</event>
<event>
 7    1  0.6188600E-006  0.8935202E+02  0.7818608E-02  0.1375430E+00
          2   -1    0    0  502    0  0.00000000000E+00  0.00000000000E+00  0.77102571290E+03  0.77102571290E+03  0.00000000000E+00 0. -1.
          1   -1    0    0  501    0 -0.00000000000E+00 -0.00000000000E+00 -0.12892622409E+04  0.12892622409E+04  0.00000000000E+00 0. -1.
         25    2    1    2    0    0  0.12829715625E+02  0.66855786049E+02 -0.59868257296E+03  0.61537195551E+03  0.12501009050E+03 0.  0.
          2    1    1    2  501    0  0.48258092172E+02 -0.14599793740E+01 -0.67874949091E+03  0.68046443435E+03  0.00000000000E+00 0. -1.
          1    1    1    2  502    0 -0.61087807797E+02 -0.65395806675E+02  0.75919553592E+03  0.76445156390E+03  0.00000000000E+00 0. -1.
         22    1    3    3    0    0  0.28448160833E+02  0.68028197655E+02 -0.59464259341E+03  0.59919691874E+03  0.00000000000E+00 0. -1.
         22    1    3    3    0    0 -0.15618445208E+02 -0.11724116064E+01 -0.40399795546E+01  0.16175036770E+02  0.00000000000E+00 0. -1.
</event>
<event>
 7    1  0.6188600E-006  0.5148974E+02  0.7818608E-02  0.1441083E+00
          2   -1    0    0  502    0  0.00000000000E+00  0.00000000000E+00  0.22753407520E+04  0.22753407520E+04  0.00000000000E+00 0. -1.
          1   -1    0    0  501    0 -0.00000000000E+00 -0.00000000000E+00 -0.34041455377E+02  0.34041455377E+02  0.00000000000E+00 0. -1.
         25    2    1    2    0    0 -0.23289667971E+01  0.13670434905E+02  0.77275536750E+03  0.78292275611E+03  0.12499951665E+03 0.  0.
          2    1    1    2  501    0 -0.46325057101E+02 -0.25687680523E+02 -0.39457215774E+01  0.53117196507E+02  0.00000000000E+00 0. -1.
          1    1    1    2  502    0  0.48654023898E+02  0.12017245618E+02  0.14724896508E+04  0.14733422548E+04  0.00000000000E+00 0. -1.
         22    1    3    3    0    0 -0.10984461781E+02 -0.54902228419E+02  0.30644935820E+03  0.31152226602E+03  0.00000000000E+00 0. -1.
         22    1    3    3    0    0  0.86554949838E+01  0.68572663323E+02  0.46630600930E+03  0.47140049009E+03  0.00000000000E+00 0. -1.
</event>
<event>
 7    1  0.6188600E-006  0.5598614E+02  0.7818608E-02  0.1470195E+00
          2   -1    0    0  502    0  0.00000000000E+00  0.00000000000E+00  0.81298581453E+03  0.81298581453E+03  0.00000000000E+00 0. -1.
          1   -1    0    0  501    0 -0.00000000000E+00 -0.00000000000E+00 -0.11694897036E+04  0.11694897036E+04  0.00000000000E+00 0. -1.
         25    2    1    2    0    0  0.66563861836E+02 -0.23368506821E+02 -0.94493700936E+00  0.14353893414E+03  0.12500279155E+03 0.  0.
          2    1    1    2  501    0 -0.11926353106E+02  0.35296037523E+02 -0.10958765670E+04  0.10965096891E+04  0.00000000000E+00 0. -1.
          1    1    1    2  502    0 -0.54637508730E+02 -0.11927530702E+02  0.74031761491E+03  0.74242689492E+03  0.00000000000E+00 0. -1.
         22    1    3    3    0    0  0.57971838936E+02  0.35615495946E+02  0.32269738195E+02  0.75302945920E+02  0.00000000000E+00 0.  1.
         22    1    3    3    0    0  0.85920229000E+01 -0.58984002767E+02 -0.33214675204E+02  0.68235988224E+02  0.00000000000E+00 0.  1.
</event>
<event>
 7    1  0.6188600E-006  0.5937211E+02  0.7818608E-02  0.1436762E+00
          2   -1    0    0  502    0  0.00000000000E+00  0.00000000000E+00  0.74481660775E+03  0.74481660775E+03  0.00000000000E+00 0. -1.
          1   -1    0    0  501    0 -0.00000000000E+00 -0.00000000000E+00 -0.25506496681E+02  0.25506496681E+02  0.00000000000E+00 0. -1.
         25    2    1    2    0    0  0.22577259281E+02  0.86925583995E+01  0.23135934042E+03  0.26408345375E+03  0.12501053130E+03 0.  0.
          2    1    1    2  501    0 -0.86163046668E+01 -0.66399913954E+02  0.16845340650E+03  0.18127255568E+03  0.00000000000E+00 0. -1.
          1    1    1    2  502    0 -0.13960954614E+02  0.57707355555E+02  0.31949736414E+03  0.32496709500E+03  0.00000000000E+00 0. -1.
         22    1    3    3    0    0  0.14043952287E+02  0.27746911295E+02  0.23962083436E+03  0.24163043670E+03  0.00000000000E+00 0.  1.
         22    1    3    3    0    0  0.85333069944E+01 -0.19054352896E+02 -0.82614939371E+01  0.22453017049E+02  0.00000000000E+00 0.  1.
</event>
<event>
 7    1  0.6188600E-006  0.4891643E+02  0.7818608E-02  0.1479623E+00
          2   -1    0    0  502    0  0.00000000000E+00  0.00000000000E+00  0.11024139245E+03  0.11024139245E+03  0.00000000000E+00 0. -1.
          1   -1    0    0  501    0 -0.00000000000E+00 -0.00000000000E+00 -0.11558807474E+04  0.11558807474E+04  0.00000000000E+00 0. -1.
         25    2    1    2    0    0  0.19837571263E+02 -0.41314387604E+02 -0.47553810181E+03  0.49382380226E+03  0.12500021419E+03 0.  0.
          2    1    1    2  501    0 -0.39708336616E+02 -0.36419103356E+01 -0.66459253222E+03  0.66578769093E+03  0.00000000000E+00 0. -1.
          1    1    1    2  502    0  0.19870765353E+02  0.44956297940E+02  0.94491279061E+02  0.10651064669E+03  0.00000000000E+00 0. -1.
         22    1    3    3    0    0 -0.45588865560E+01 -0.83824340785E+02 -0.28784106997E+03  0.29983292867E+03  0.00000000000E+00 0. -1.
         22    1    3    3    0    0  0.24396457819E+02  0.42509953181E+02 -0.18769703184E+03  0.19399087358E+03  0.00000000000E+00 0. -1.
</event>
<event>
 7    1  0.6188600E-006  0.2156463E+03  0.7818608E-02  0.1271208E+00
          2   -1    0    0  502    0  0.00000000000E+00  0.00000000000E+00  0.31756463146E+04  0.31756463146E+04  0.00000000000E+00 0. -1.
          1   -1    0    0  501    0 -0.00000000000E+00 -0.00000000000E+00 -0.55304314061E+02  0.55304314061E+02  0.00000000000E+00 0. -1.
         25    2    1    2    0    0 -0.10081530529E+03 -0.14856791288E+03  0.80382453967E+03  0.83306384625E+03  0.12500132334E+03 0.  0.
          2    1    1    2  501    0  0.13061212026E+03  0.18945248314E+03  0.28755124989E+03  0.36828995457E+03  0.00000000000E+00 0. -1.
          1    1    1    2  502    0 -0.29796814970E+02 -0.40884570262E+02  0.20289662110E+04  0.20295968279E+04  0.00000000000E+00 0. -1.
         22    1    3    3    0    0 -0.93082406166E+02 -0.83370135018E+02  0.30007292901E+03  0.32505180583E+03  0.00000000000E+00 0.  1.
         22    1    3    3    0    0 -0.77328991222E+01 -0.65197777860E+02  0.50375161066E+03  0.50801204041E+03  0.00000000000E+00 0.  1.
</event>
<event>
 7    1  0.6188600E-006  0.1070227E+03  0.7818608E-02  0.1276426E+00
          2   -1    0    0  502    0  0.00000000000E+00  0.00000000000E+00  0.20335866786E+04  0.20335866786E+04  0.00000000000E+00 0. -1.
          1   -1    0    0  501    0 -0.00000000000E+00 -0.00000000000E+00 -0.34331029234E+03  0.34331029234E+03  0.00000000000E+00 0. -1.
         25    2    1    2    0    0 -0.14163794626E+02  0.61075788769E+02  0.28929025059E+01  0.13987464703E+03  0.12500273175E+03 0.  0.
          2    1    1    2  501    0 -0.92730118991E+02 -0.55827477881E+02 -0.26263736109E+03  0.28406683315E+03  0.00000000000E+00 0. -1.
          1    1    1    2  502    0  0.10689391362E+03 -0.52483108877E+01  0.19500208449E+04  0.19529554908E+04  0.00000000000E+00 0. -1.
         22    1    3    3    0    0  0.35005645246E+02  0.79293515256E+02 -0.51307343340E+01  0.86828458443E+02  0.00000000000E+00 0. -1.
         22    1    3    3    0    0 -0.49169439872E+02 -0.18217726487E+02  0.80236368398E+01  0.53046188589E+02  0.00000000000E+00 0. -1.
</event>
<event>
 7    1  0.6188600E-006  0.1292500E+03  0.7818608E-02  0.1237102E+00
          2   -1    0    0  502    0  0.00000000000E+00  0.00000000000E+00  0.43958980288E+03  0.43958980288E+03  0.00000000000E+00 0. -1.
          1   -1    0    0  501    0 -0.00000000000E+00 -0.00000000000E+00 -0.95104783183E+03  0.95104783183E+03  0.00000000000E+00 0. -1.
         25    2    1    2    0    0  0.67872592241E+02 -0.50532716723E+02 -0.18235642919E+03  0.23672626548E+03  0.12500085307E+03 0.  0.
          2    1    1    2  501    0 -0.85284474551E+02 -0.82135072148E+02 -0.72572758917E+03  0.73532315710E+03  0.00000000000E+00 0. -1.
          1    1    1    2  502    0  0.17411882310E+02  0.13266778887E+03  0.39662598942E+03  0.41858821213E+03  0.00000000000E+00 0. -1.
         22    1    3    3    0    0  0.55672674350E+02 -0.65200875496E+01 -0.18264542083E+03  0.19105315480E+03  0.00000000000E+00 0. -1.
         22    1    3    3    0    0  0.12199917891E+02 -0.44012629173E+02  0.28899163838E+00  0.45673110683E+02  0.00000000000E+00 0. -1.
</event>
<event>
 7    1  0.6188600E-006  0.1963679E+03  0.7818608E-02  0.1377600E+00
          2   -1    0    0  502    0  0.00000000000E+00  0.00000000000E+00  0.32331375092E+04  0.32331375092E+04  0.00000000000E+00 0. -1.
          1   -1    0    0  501    0 -0.00000000000E+00 -0.00000000000E+00 -0.41739434709E+03  0.41739434709E+03  0.00000000000E+00 0. -1.
         25    2    1    2    0    0 -0.10439586441E+03 -0.14975280043E+03  0.39811412549E+02  0.22479812820E+03  0.12499940852E+03 0.  0.
          2    1    1    2  501    0 -0.21524503284E+02 -0.15631863321E+01 -0.32141440810E+03  0.32213812182E+03  0.00000000000E+00 0. -1.
          1    1    1    2  502    0  0.12592036770E+03  0.15131598677E+03  0.30973461576E+04  0.31035956062E+04  0.00000000000E+00 0. -1.
         22    1    3    3    0    0 -0.12743624824E+03 -0.13639603970E+03  0.54402184252E+02  0.19443115662E+03  0.00000000000E+00 0.  1.
         22    1    3    3    0    0  0.23040383832E+02 -0.13356760736E+02 -0.14590771703E+02  0.30366971588E+02  0.00000000000E+00 0.  1.
</event>
<event>
 7    1  0.6188600E-006  0.6157007E+02  0.7818608E-02  0.1393479E+00
          2   -1    0    0  502    0  0.00000000000E+00  0.00000000000E+00  0.31470309418E+04  0.31470309418E+04  0.00000000000E+00 0. -1.
          1   -1    0    0  501    0 -0.00000000000E+00 -0.00000000000E+00 -0.28334425281E+02  0.28334425281E+02  0.00000000000E+00 0. -1.
         25    2    1    2    0    0  0.55048050901E+01  0.45860326875E+01  0.65246904918E+03  0.66437402820E+03  0.12500261850E+03 0.  0.
          2    1    1    2  501    0  0.54421452674E+02 -0.28795462175E+02  0.21211721806E+02  0.65121504090E+02  0.00000000000E+00 0. -1.
          1    1    1    2  502    0 -0.59926257764E+02  0.24209429487E+02  0.24450157456E+04  0.24458698348E+04  0.00000000000E+00 0. -1.
         22    1    3    3    0    0  0.21702687212E+01  0.31202766979E+02  0.62568679957E+03  0.62646811083E+03  0.00000000000E+00 0.  1.
         22    1    3    3    0    0  0.33345363689E+01 -0.26616734291E+02  0.26782249609E+02  0.37905917365E+02  0.00000000000E+00 0.  1.
</event>
<event>
 7    1  0.6188600E-006  0.6264742E+02  0.7818608E-02  0.1465080E+00
          2   -1    0    0  502    0  0.00000000000E+00  0.00000000000E+00  0.31706838257E+04  0.31706838257E+04  0.00000000000E+00 0. -1.
          1   -1    0    0  501    0 -0.00000000000E+00 -0.00000000000E+00 -0.24531218361E+02  0.24531218361E+02  0.00000000000E+00 0. -1.
         25    2    1    2    0    0  0.74623320088E+01 -0.37389498466E+02  0.12998021344E+04  0.13063553973E+04  0.12500069755E+03 0.  0.
          2    1    1    2  501    0 -0.18045390353E+02 -0.29453141016E+02 -0.61828433374E+01  0.35090613851E+02  0.00000000000E+00 0. -1.
          1    1    1    2  502    0  0.10583058345E+02  0.66842639482E+02  0.18525333162E+04  0.18537690329E+04  0.00000000000E+00 0. -1.
         22    1    3    3    0    0 -0.35914749169E+02 -0.50729297407E+02  0.35045673091E+03  0.35592590670E+03  0.00000000000E+00 0. -1.
         22    1    3    3    0    0  0.43377081178E+02  0.13339798941E+02  0.94934540348E+03  0.95042949056E+03  0.00000000000E+00 0. -1.
</event>
<event>
 7    1  0.6188600E-006  0.9567224E+02  0.7818608E-02  0.1350189E+00
          2   -1    0    0  502    0  0.00000000000E+00  0.00000000000E+00  0.73188167411E+03  0.73188167411E+03  0.00000000000E+00 0. -1.
          1   -1    0    0  501    0 -0.00000000000E+00 -0.00000000000E+00 -0.14873983884E+03  0.14873983884E+03  0.00000000000E+00 0. -1.
         25    2    1    2    0    0  0.26732561229E+02 -0.42185115102E+02  0.22193556477E+03  0.25956626609E+03  0.12500015128E+03 0.  0.
          2    1    1    2  501    0 -0.20275686969E+02  0.97505134168E+02 -0.10895140616E+03  0.14761017437E+03  0.00000000000E+00 0. -1.
          1    1    1    2  502    0 -0.64568742597E+01 -0.55320019065E+02  0.47015767667E+03  0.47344507249E+03  0.00000000000E+00 0. -1.
         22    1    3    3    0    0  0.42884931383E+02 -0.46619525247E+02  0.35963497450E+02  0.72841407337E+02  0.00000000000E+00 0.  1.
         22    1    3    3    0    0 -0.16152370155E+02  0.44344101452E+01  0.18597206732E+03  0.18672485876E+03  0.00000000000E+00 0.  1.
</event>
<event>
 7    1  0.6188600E-006  0.1539624E+03  0.7818608E-02  0.1230463E+00
          2   -1    0    0  502    0  0.00000000000E+00  0.00000000000E+00  0.10778680129E+04  0.10778680129E+04  0.00000000000E+00 0. -1.
          1   -1    0    0  501    0 -0.00000000000E+00 -0.00000000000E+00 -0.71519944671E+03  0.71519944671E+03  0.00000000000E+00 0. -1.
         25    2    1    2    0    0  0.76280897943E+02 -0.22777922796E+03  0.44268611870E+03  0.51893650892E+03  0.12498779348E+03 0.  0.
          2    1    1    2  501    0 -0.50274447349E+02  0.93779225607E+02 -0.66498724991E+03  0.67344643867E+03  0.00000000000E+00 0. -1.
          1    1    1    2  502    0 -0.26006450593E+02  0.13400000235E+03  0.58496969743E+03  0.60068451205E+03  0.00000000000E+00 0. -1.
         22    1    3    3    0    0  0.79111345665E+01 -0.18860999878E+03  0.34659531451E+03  0.39467027976E+03  0.00000000000E+00 0. -1.
         22    1    3    3    0    0  0.68369763376E+02 -0.39169229184E+02  0.96090804194E+02  0.12426622916E+03  0.00000000000E+00 0. -1.
</event>
<event>
 7    1  0.6188600E-006  0.8919198E+02  0.7818608E-02  0.1478264E+00
          2   -1    0    0  502    0  0.00000000000E+00  0.00000000000E+00  0.91702496086E+02  0.91702496086E+02  0.00000000000E+00 0. -1.
          1   -1    0    0  501    0 -0.00000000000E+00 -0.00000000000E+00 -0.11575496170E+04  0.11575496170E+04  0.00000000000E+00 0. -1.
         25    2    1    2    0    0 -0.24393594795E+02  0.83955200205E+02 -0.43693034562E+03  0.46279200419E+03  0.12499915644E+03 0.  0.
          2    1    1    2  501    0  0.21401847027E+02  0.54315309791E+01 -0.68206561164E+03  0.68242291812E+03  0.00000000000E+00 0. -1.
          1    1    1    2  502    0  0.29917477678E+01 -0.89386731184E+02  0.53148836327E+02  0.10403719080E+03  0.00000000000E+00 0. -1.
         22    1    3    3    0    0 -0.50345046981E+02 -0.96940034492E+01 -0.10371464724E+03  0.11569496752E+03  0.00000000000E+00 0. -1.
         22    1    3    3    0    0  0.25951452186E+02  0.93649203654E+02 -0.33321569838E+03  0.34709703667E+03  0.00000000000E+00 0. -1.
</event>
<event>
 7    1  0.6188600E-006  0.3567228E+03  0.7818608E-02  0.1209427E+00
          2   -1    0    0  502    0  0.00000000000E+00  0.00000000000E+00  0.36221939205E+04  0.36221939205E+04  0.00000000000E+00 0. -1.
          1   -1    0    0  501    0 -0.00000000000E+00 -0.00000000000E+00 -0.32303355112E+03  0.32303355112E+03  0.00000000000E+00 0. -1.
         25    2    1    2    0    0 -0.21896275095E+03  0.24493070147E+03  0.71650318581E+03  0.79808363108E+03  0.12499972837E+03 0.  0.
          2    1    1    2  501    0  0.27523902971E+03 -0.23427428583E+03 -0.16610593846E+03  0.39778404602E+03  0.00000000000E+00 0. -1.
          1    1    1    2  502    0 -0.56276278758E+02 -0.10656415645E+02  0.27487631220E+04  0.27493597945E+04  0.00000000000E+00 0. -1.
         22    1    3    3    0    0 -0.15742828338E+02  0.98859878240E+02  0.23469334228E+03  0.25515108677E+03  0.00000000000E+00 0. -1.
         22    1    3    3    0    0 -0.20321992262E+03  0.14607082323E+03  0.48180984354E+03  0.54293254431E+03  0.00000000000E+00 0. -1.
</event>
<event>
 7    1  0.6188600E-006  0.5878278E+02  0.7818608E-02  0.1408524E+00
          2   -1    0    0  502    0  0.00000000000E+00  0.00000000000E+00  0.16713255910E+03  0.16713255910E+03  0.00000000000E+00 0. -1.
          1   -1    0    0  501    0 -0.00000000000E+00 -0.00000000000E+00 -0.63228815942E+03  0.63228815942E+03  0.00000000000E+00 0. -1.
         25    2    1    2    0    0 -0.63254526633E+02  0.39852262356E+02 -0.32236911511E+03  0.35375616940E+03  0.12502896887E+03 0.  0.
          2    1    1    2  501    0  0.53262429358E+02  0.18221120578E+02 -0.28564025711E+03  0.29113442273E+03  0.00000000000E+00 0. -1.
          1    1    1    2  502    0  0.99920972746E+01 -0.58073382934E+02  0.14285377191E+03  0.15453012639E+03  0.00000000000E+00 0. -1.
         22    1    3    3    0    0 -0.37710451980E+02  0.31598928120E+02 -0.32317620425E+03  0.32689972383E+03  0.00000000000E+00 0.  1.
         22    1    3    3    0    0 -0.25544074653E+02  0.82533342363E+01  0.80708913794E+00  0.26856445572E+02  0.00000000000E+00 0.  1.
</event>
<event>
 7    1  0.6188600E-006  0.9155187E+02  0.7818608E-02  0.1323640E+00
          2   -1    0    0  502    0  0.00000000000E+00  0.00000000000E+00  0.10839689740E+04  0.10839689740E+04  0.00000000000E+00 0. -1.
          1   -1    0    0  501    0 -0.00000000000E+00 -0.00000000000E+00 -0.78077091182E+02  0.78077091182E+02  0.00000000000E+00 0. -1.
         25    2    1    2    0    0  0.20272399925E+02  0.13613173357E+02  0.42566209535E+03  0.44431279237E+03  0.12501739620E+03 0.  0.
          2    1    1    2  501    0 -0.67673840391E+02 -0.69568105052E+02 -0.31181367615E+02  0.10193992152E+03  0.00000000000E+00 0. -1.
          1    1    1    2  502    0  0.47401440467E+02  0.55954931695E+02  0.61141115510E+03  0.61579335131E+03  0.00000000000E+00 0. -1.
         22    1    3    3    0    0 -0.60096263742E+01 -0.20331637626E+02  0.54192383947E+01  0.21882852704E+02  0.00000000000E+00 0. -1.
         22    1    3    3    0    0  0.26282026299E+02  0.33944810982E+02  0.42024285696E+03  0.42242993966E+03  0.00000000000E+00 0. -1.
</event>
<event>
 7    1  0.6188600E-006  0.1061109E+03  0.7818608E-02  0.1325463E+00
          2   -1    0    0  502    0  0.00000000000E+00  0.00000000000E+00  0.32726187635E+03  0.32726187635E+03  0.00000000000E+00 0. -1.
          1   -1    0    0  501    0 -0.00000000000E+00 -0.00000000000E+00 -0.27049323431E+04  0.27049323431E+04  0.00000000000E+00 0. -1.
         25    2    1    2    0    0 -0.14110553432E+02  0.48400126206E+02 -0.12830028558E+04  0.12900632405E+04  0.12500062631E+03 0.  0.
          2    1    1    2  501    0  0.23347844460E+02  0.57712795114E+02 -0.14089319226E+04  0.14103067224E+04  0.00000000000E+00 0. -1.
          1    1    1    2  502    0 -0.92372910287E+01 -0.10611292132E+03  0.31426431171E+03  0.33182425654E+03  0.00000000000E+00 0. -1.
         22    1    3    3    0    0 -0.66044262883E+01 -0.37856758955E+02 -0.65415707109E+03  0.65528484364E+03  0.00000000000E+00 0.  1.
         22    1    3    3    0    0 -0.75061271434E+01  0.86256885161E+02 -0.62884578473E+03  0.63477839689E+03  0.00000000000E+00 0.  1.
</event>
<event>
 7    1  0.6188600E-006  0.4365138E+02  0.7818608E-02  0.1527120E+00
          2   -1    0    0  502    0  0.00000000000E+00  0.00000000000E+00  0.45835992652E+03  0.45835992652E+03  0.00000000000E+00 0. -1.
          1   -1    0    0  501    0 -0.00000000000E+00 -0.00000000000E+00 -0.12073736173E+04  0.12073736173E+04  0.00000000000E+00 0. -1.
         25    2    1    2    0    0 -0.21559061358E+02  0.65255051423E+02 -0.40124495503E+02  0.14818039552E+03  0.12499775843E+03 0.  0.
          2    1    1    2  501    0 -0.22377177140E+01 -0.43432795202E+02 -0.11121509053E+04  0.11130009214E+04  0.00000000000E+00 0. -1.
          1    1    1    2  502    0  0.23796779072E+02 -0.21822256222E+02  0.40326170996E+03  0.40455222689E+03  0.00000000000E+00 0. -1.
         22    1    3    3    0    0 -0.63010629935E+01  0.29418322584E+02 -0.84168895303E+02  0.89384249368E+02  0.00000000000E+00 0. -1.
         22    1    3    3    0    0 -0.15257998365E+02  0.35836728840E+02  0.44044399801E+02  0.58796146148E+02  0.00000000000E+00 0. -1.
</event>
<event>
 7    1  0.6188600E-006  0.4273731E+02  0.7818608E-02  0.1508446E+00
          2   -1    0    0  502    0  0.00000000000E+00  0.00000000000E+00  0.17648211135E+03  0.17648211135E+03  0.00000000000E+00 0. -1.
          1   -1    0    0  501    0 -0.00000000000E+00 -0.00000000000E+00 -0.59374368068E+03  0.59374368068E+03  0.00000000000E+00 0. -1.
         25    2    1    2    0    0 -0.65186591564E+02 -0.10894110449E+02 -0.17956239823E+02  0.14254443175E+03  0.12501405965E+03 0.  0.
          2    1    1    2  501    0  0.31980952471E+02  0.28055876847E+02 -0.50952405255E+03  0.51129705033E+03  0.00000000000E+00 0. -1.
          1    1    1    2  502    0  0.33205639092E+02 -0.17161766398E+02  0.11021872304E+03  0.11638430995E+03  0.00000000000E+00 0. -1.
         22    1    3    3    0    0 -0.59451150169E+02  0.39380745418E+02  0.25612243857E+02  0.75771164709E+02  0.00000000000E+00 0.  1.
         22    1    3    3    0    0 -0.57354413951E+01 -0.50274855867E+02 -0.43568483680E+02  0.66773267036E+02  0.00000000000E+00 0.  1.
</event>
<event>
 7    1  0.6188600E-006  0.6917788E+02  0.7818608E-02  0.1411279E+00
          2   -1    0    0  502    0  0.00000000000E+00  0.00000000000E+00  0.63107497555E+03  0.63107497555E+03  0.00000000000E+00 0. -1.
          1   -1    0    0  501    0 -0.00000000000E+00 -0.00000000000E+00 -0.87587784470E+03  0.87587784470E+03  0.00000000000E+00 0. -1.
         25    2    1    2    0    0  0.30417160424E+02 -0.11625152270E+02 -0.16386819348E+03  0.20866438582E+03  0.12501077257E+03 0.  0.
          2    1    1    2  501    0 -0.46960433840E+02  0.55421596434E+02 -0.68679299597E+03  0.69062396064E+03  0.00000000000E+00 0. -1.
          1    1    1    2  502    0  0.16543273416E+02 -0.43796444164E+02  0.60585832031E+03  0.60766447379E+03  0.00000000000E+00 0. -1.
         22    1    3    3    0    0  0.75322705534E+02 -0.85675690353E+01 -0.64336759397E+02  0.99429029050E+02  0.00000000000E+00 0.  1.
         22    1    3    3    0    0 -0.44905545110E+02 -0.30575832342E+01 -0.99531434088E+02  0.10923535677E+03  0.00000000000E+00 0.  1.
</event>
<event>
 7    1  0.6188600E-006  0.7374752E+02  0.7818608E-02  0.1380452E+00
          2   -1    0    0  502    0  0.00000000000E+00  0.00000000000E+00  0.11417184843E+03  0.11417184843E+03  0.00000000000E+00 0. -1.
          1   -1    0    0  501    0 -0.00000000000E+00 -0.00000000000E+00 -0.48423166074E+03  0.48423166074E+03  0.00000000000E+00 0. -1.
         25    2    1    2    0    0  0.50545177994E+02 -0.37951486657E+02 -0.34377787401E+03  0.37121916724E+03  0.12500125242E+03 0.  0.
          2    1    1    2  501    0  0.23311196860E+02  0.51073223252E+02 -0.10461472944E+03  0.11872711421E+03  0.00000000000E+00 0. -1.
          1    1    1    2  502    0 -0.73856374854E+02 -0.13121736595E+02  0.78332791143E+02  0.10845722773E+03  0.00000000000E+00 0. -1.
         22    1    3    3    0    0  0.60864737641E+02  0.32041140766E+02 -0.18577170728E+03  0.19809663858E+03  0.00000000000E+00 0. -1.
         22    1    3    3    0    0 -0.10319559647E+02 -0.69992627423E+02 -0.15800616673E+03  0.17312252866E+03  0.00000000000E+00 0. -1.
</event>
<event>
 7    1  0.6188600E-006  0.1875541E+03  0.7818608E-02  0.1248524E+00
          2   -1    0    0  502    0  0.00000000000E+00  0.00000000000E+00  0.78897418241E+03  0.78897418241E+03  0.00000000000E+00 0. -1.
          1   -1    0    0  501    0 -0.00000000000E+00 -0.00000000000E+00 -0.89855839493E+03  0.89855839493E+03  0.00000000000E+00 0. -1.
         25    2    1    2    0    0  0.86390618008E+02 -0.12032276088E+03 -0.10636197548E+03  0.22108289315E+03  0.12499548052E+03 0.  0.
          2    1    1    2  501    0 -0.15905826824E+03  0.11818514550E+03 -0.71960356953E+03  0.74638901291E+03  0.00000000000E+00 0. -1.
          1    1    1    2  502    0  0.72667650228E+02  0.21376153778E+01  0.71638133249E+03  0.72006067129E+03  0.00000000000E+00 0. -1.
         22    1    3    3    0    0  0.78722629057E+01 -0.78711146922E+02 -0.10594520393E+03  0.13221877101E+03  0.00000000000E+00 0.  1.
         22    1    3    3    0    0  0.78518355102E+02 -0.41611613955E+02 -0.41677154811E+00  0.88864122132E+02  0.00000000000E+00 0.  1.
</event>
<event>
 7    1  0.6188600E-006  0.5094239E+02  0.7818608E-02  0.1561820E+00
          2   -1    0    0  502    0  0.00000000000E+00  0.00000000000E+00  0.97372297354E+03  0.97372297354E+03  0.00000000000E+00 0. -1.
          1   -1    0    0  501    0 -0.00000000000E+00 -0.00000000000E+00 -0.12593979202E+04  0.12593979202E+04  0.00000000000E+00 0. -1.
         25    2    1    2    0    0  0.28747333456E+02  0.10912304817E+02 -0.10584337408E+03  0.16665319222E+03  0.12499991625E+03 0.  0.
          2    1    1    2  501    0 -0.43364492874E+02 -0.27490700930E+02 -0.11224332330E+04  0.11236069510E+04  0.00000000000E+00 0. -1.
          1    1    1    2  502    0  0.14617159418E+02  0.16578396113E+02  0.94260166042E+03  0.94286075048E+03  0.00000000000E+00 0. -1.
         22    1    3    3    0    0  0.63869588395E+02  0.41342389960E+02 -0.39701147457E+02  0.85817822384E+02  0.00000000000E+00 0.  1.
         22    1    3    3    0    0 -0.35122254938E+02 -0.30430085144E+02 -0.66142226627E+02  0.80835369838E+02  0.00000000000E+00 0.  1.
</event>
<event>
 7    1  0.6188600E-006  0.2475737E+03  0.7818608E-02  0.1206168E+00
          2   -1    0    0  502    0  0.00000000000E+00  0.00000000000E+00  0.10957036262E+04  0.10957036262E+04  0.00000000000E+00 0. -1.
          1   -1    0    0  501    0 -0.00000000000E+00 -0.00000000000E+00 -0.50672105035E+03  0.50672105035E+03  0.00000000000E+00 0. -1.
         25    2    1    2    0    0  0.16710428273E+03 -0.27332943762E+03  0.16760986245E+03  0.38255780791E+03  0.12499835049E+03 0.  0.
          2    1    1    2  501    0 -0.54409873248E+02  0.65903144770E+02 -0.37739320508E+03  0.38694869174E+03  0.00000000000E+00 0. -1.
          1    1    1    2  502    0 -0.11269440949E+03  0.20742629285E+03  0.79876591853E+03  0.83291817695E+03  0.00000000000E+00 0. -1.
         22    1    3    3    0    0  0.84864818877E+02 -0.18234136947E+03  0.39049787088E+02  0.20487874066E+03  0.00000000000E+00 0.  1.
         22    1    3    3    0    0  0.82239463857E+02 -0.90988068149E+02  0.12856007536E+03  0.17767906725E+03  0.00000000000E+00 0.  1.
</event>
<event>
 7    1  0.6188600E-006  0.8194738E+02  0.7818608E-02  0.1371453E+00
          2   -1    0    0  502    0  0.00000000000E+00  0.00000000000E+00  0.66649657139E+03  0.66649657139E+03  0.00000000000E+00 0. -1.
          1   -1    0    0  501    0 -0.00000000000E+00 -0.00000000000E+00 -0.30647506582E+03  0.30647506582E+03  0.00000000000E+00 0. -1.
         25    2    1    2    0    0 -0.18648829159E+02  0.39454641420E+02  0.14757982308E+03  0.19826249522E+03  0.12499506099E+03 0.  0.
          2    1    1    2  501    0  0.23177212435E+02  0.49210429267E+02 -0.27445043539E+03  0.27978901159E+03  0.00000000000E+00 0. -1.
          1    1    1    2  502    0 -0.45283832757E+01 -0.88665070686E+02  0.48689211788E+03  0.49492013039E+03  0.00000000000E+00 0. -1.
         22    1    3    3    0    0 -0.33315334634E+02  0.35670908141E+02 -0.10918089398E+01  0.48821278723E+02  0.00000000000E+00 0.  1.
         22    1    3    3    0    0  0.14666505475E+02  0.37837332789E+01  0.14867163202E+03  0.14944121650E+03  0.00000000000E+00 0.  1.
</event>
<event>
 7    1  0.6188600E-006  0.2791530E+02  0.7818608E-02  0.1665543E+00
          2   -1    0    0  502    0  0.00000000000E+00  0.00000000000E+00  0.12849141598E+03  0.12849141598E+03  0.00000000000E+00 0. -1.
          1   -1    0    0  501    0 -0.00000000000E+00 -0.00000000000E+00 -0.12839275129E+04  0.12839275129E+04  0.00000000000E+00 0. -1.
         25    2    1    2    0    0 -0.16370886625E+02 -0.29884001208E+02 -0.33485845726E+03  0.35905024935E+03  0.12500334276E+03 0.  0.
          2    1    1    2  501    0 -0.95938355160E+01  0.19610530124E+02 -0.93516922651E+03  0.93542401978E+03  0.00000000000E+00 0. -1.
          1    1    1    2  502    0  0.25964722141E+02  0.10273471084E+02  0.11459158682E+03  0.11794465979E+03  0.00000000000E+00 0. -1.
         22    1    3    3    0    0 -0.51324717659E+02  0.30202850434E+02 -0.17028764540E+03  0.18040044621E+03  0.00000000000E+00 0. -1.
         22    1    3    3    0    0  0.34953831035E+02 -0.60086851642E+02 -0.16457081186E+03  0.17864980314E+03  0.00000000000E+00 0. -1.
</event>
<event>
 7    1  0.6188600E-006  0.6245735E+02  0.7818608E-02  0.1527066E+00
          2   -1    0    0  502    0  0.00000000000E+00  0.00000000000E+00  0.97787134007E+03  0.97787134007E+03  0.00000000000E+00 0. -1.
          1   -1    0    0  501    0 -0.00000000000E+00 -0.00000000000E+00 -0.41111830636E+03  0.41111830636E+03  0.00000000000E+00 0. -1.
         25    2    1    2    0    0 -0.33374232028E+02 -0.77783569511E+02  0.12002868802E+03  0.19286204951E+03  0.12499904457E+03 0.  0.
          2    1    1    2  501    0  0.23638620082E+02  0.57416942937E+02 -0.37197260594E+03  0.37711948937E+03  0.00000000000E+00 0. -1.
          1    1    1    2  502    0  0.97356119463E+01  0.20366626574E+02  0.81869695162E+03  0.81900810754E+03  0.00000000000E+00 0. -1.
         22    1    3    3    0    0  0.66335175206E+01  0.24337424457E+02 -0.58601724530E+01  0.25897015370E+02  0.00000000000E+00 0. -1.
         22    1    3    3    0    0 -0.40007749549E+02 -0.10212099397E+03  0.12588886048E+03  0.16696503414E+03  0.00000000000E+00 0. -1.
</event>
<event>
 7    1  0.6188600E-006  0.5683195E+02  0.7818608E-02  0.1474534E+00
          2   -1    0    0  502    0  0.00000000000E+00  0.00000000000E+00  0.28164833864E+04  0.28164833864E+04  0.00000000000E+00 0. -1.
          1   -1    0    0  501    0 -0.00000000000E+00 -0.00000000000E+00 -0.88277579081E+02  0.88277579081E+02  0.00000000000E+00 0. -1.
         25    2    1    2    0    0 -0.22917349927E+02 -0.18498796926E+02  0.22477549956E+03  0.25887676100E+03  0.12500296705E+03 0.  0.
          2    1    1    2  501    0  0.57489536571E+02  0.10079137176E+02 -0.59125685017E+02  0.83081179879E+02  0.00000000000E+00 0. -1.
          1    1    1    2  502    0 -0.34572186644E+02  0.84196597501E+01  0.25625559928E+04  0.25628030246E+04  0.00000000000E+00 0. -1.
         22    1    3    3    0    0 -0.18853301796E+02  0.53287344354E+02  0.98629568560E+02  0.11367840539E+03  0.00000000000E+00 0. -1.
         22    1    3    3    0    0 -0.40640481311E+01 -0.71786141281E+02  0.12614593100E+03  0.14519835562E+03  0.00000000000E+00 0. -1.
</event>
<event>
 7    1  0.6188600E-006  0.3462733E+02  0.7818608E-02  0.1562331E+00
          2   -1    0    0  502    0  0.00000000000E+00  0.00000000000E+00  0.19119723926E+04  0.19119723926E+04  0.00000000000E+00 0. -1.
          1   -1    0    0  501    0 -0.00000000000E+00 -0.00000000000E+00 -0.40257430135E+02  0.40257430135E+02  0.00000000000E+00 0. -1.
         25    2    1    2    0    0  0.47551260760E+02 -0.30939446697E+02  0.12912527786E+04  0.12985291154E+04  0.12500301367E+03 0.  0.
          2    1    1    2  501    0 -0.32349403125E+02  0.19967852566E+01 -0.28922691123E+02  0.43439533788E+02  0.00000000000E+00 0. -1.
          1    1    1    2  502    0 -0.15201857636E+02  0.28942661441E+02  0.60938487490E+03  0.61026117350E+03  0.00000000000E+00 0. -1.
         22    1    3    3    0    0 -0.33643985960E+01 -0.57061172663E+02  0.10043312999E+04  0.10059565878E+04  0.00000000000E+00 0. -1.
         22    1    3    3    0    0  0.50915659356E+02  0.26121725966E+02  0.28692147874E+03  0.29257252759E+03  0.00000000000E+00 0. -1.
</event>
<event>
 7    1  0.6188600E-006  0.8490294E+02  0.7818608E-02  0.1332188E+00
          2   -1    0    0  502    0  0.00000000000E+00  0.00000000000E+00  0.10455860924E+04  0.10455860924E+04  0.00000000000E+00 0. -1.
          1   -1    0    0  501    0 -0.00000000000E+00 -0.00000000000E+00 -0.43197548960E+03  0.43197548960E+03  0.00000000000E+00 0. -1.
         25    2    1    2    0    0  0.95131026629E+02  0.12163468704E+03 -0.13213407000E+02  0.19911052418E+03  0.12500198957E+03 0.  0.
          2    1    1    2  501    0 -0.48876233511E+02 -0.64732308081E+02 -0.31932445650E+03  0.32946512173E+03  0.00000000000E+00 0. -1.
          1    1    1    2  502    0 -0.46254793118E+02 -0.56902378956E+02  0.94614846634E+03  0.94898593613E+03  0.00000000000E+00 0. -1.
         22    1    3    3    0    0  0.10966509747E+03  0.79689544797E+02 -0.46834712689E+02  0.14342366425E+03  0.00000000000E+00 0. -1.
         22    1    3    3    0    0 -0.14534070841E+02  0.41945142240E+02  0.33621305689E+02  0.55686859931E+02  0.00000000000E+00 0. -1.
</event>
<event>
 7    1  0.6188600E-006  0.1049482E+03  0.7818608E-02  0.1369159E+00
          2   -1    0    0  502    0  0.00000000000E+00  0.00000000000E+00  0.13350022589E+04  0.13350022589E+04  0.00000000000E+00 0. -1.
          1   -1    0    0  501    0 -0.00000000000E+00 -0.00000000000E+00 -0.54718300918E+02  0.54718300918E+02  0.00000000000E+00 0. -1.
         25    2    1    2    0    0 -0.70032711443E+02 -0.19410572091E+01  0.95479903827E+03  0.96549180233E+03  0.12499947405E+03 0.  0.
          2    1    1    2  501    0  0.10448847205E+03 -0.24262394952E+02  0.12191505484E+02  0.10795896168E+03  0.00000000000E+00 0. -1.
          1    1    1    2  502    0 -0.34455760606E+02  0.26203452161E+02  0.31329341420E+03  0.31626979578E+03  0.00000000000E+00 0. -1.
         22    1    3    3    0    0 -0.15576216313E+02 -0.56819943988E+02  0.27065470557E+03  0.27699294972E+03  0.00000000000E+00 0.  1.
         22    1    3    3    0    0 -0.54456495131E+02  0.54878886779E+02  0.68414433270E+03  0.68849885261E+03  0.00000000000E+00 0.  1.
</event>
<event>
 7    1  0.6188600E-006  0.9875744E+02  0.7818608E-02  0.1431605E+00
          2   -1    0    0  502    0  0.00000000000E+00  0.00000000000E+00  0.27309462272E+03  0.27309462272E+03  0.00000000000E+00 0. -1.
          1   -1    0    0  501    0 -0.00000000000E+00 -0.00000000000E+00 -0.52015680591E+03  0.52015680591E+03  0.00000000000E+00 0. -1.
         25    2    1    2    0    0  0.73799082056E+02 -0.87128454084E+01 -0.55345308179E+02  0.15559606595E+03  0.12499925766E+03 0.  0.
          2    1    1    2  501    0 -0.10167815052E+03  0.55535325612E+01 -0.40751293353E+03  0.42004294900E+03  0.00000000000E+00 0. -1.
          1    1    1    2  502    0  0.27879068463E+02  0.31593128473E+01  0.21579605852E+03  0.21761241368E+03  0.00000000000E+00 0. -1.
         22    1    3    3    0    0 -0.19649371843E+02 -0.29052764328E+02 -0.48312488974E+02  0.59701402997E+02  0.00000000000E+00 0.  1.
         22    1    3    3    0    0  0.93448453899E+02  0.20339918919E+02 -0.70328192048E+01  0.95894662957E+02  0.00000000000E+00 0.  1.
</event>
<event>
 7    1  0.6188600E-006  0.5411130E+02  0.7818608E-02  0.1532488E+00
          2   -1    0    0  502    0  0.00000000000E+00  0.00000000000E+00  0.28268448856E+03  0.28268448856E+03  0.00000000000E+00 0. -1.
          1   -1    0    0  501    0 -0.00000000000E+00 -0.00000000000E+00 -0.19871316854E+03  0.19871316854E+03  0.00000000000E+00 0. -1.
         25    2    1    2    0    0  0.48367928093E+02  0.10451903564E+02  0.11027154376E+03  0.17387536892E+03  0.12499652714E+03 0.  0.
          2    1    1    2  501    0 -0.52503150829E+02  0.14345641847E+02 -0.16128255314E+03  0.17021880106E+03  0.00000000000E+00 0. -1.
          1    1    1    2  502    0  0.41352227357E+01 -0.24797545411E+02  0.13498232939E+03  0.13730348712E+03  0.00000000000E+00 0. -1.
         22    1    3    3    0    0  0.59727047340E+02  0.31518296257E+02  0.70324114582E+01  0.67898291539E+02  0.00000000000E+00 0. -1.
         22    1    3    3    0    0 -0.11359119248E+02 -0.21066392693E+02  0.10323913230E+03  0.10597707738E+03  0.00000000000E+00 0. -1.
</event>
<event>
 7    1  0.6188600E-006  0.1151516E+03  0.7818608E-02  0.1285315E+00
          2   -1    0    0  502    0  0.00000000000E+00  0.00000000000E+00  0.71821657231E+03  0.71821657231E+03  0.00000000000E+00 0. -1.
          1   -1    0    0  501    0 -0.00000000000E+00 -0.00000000000E+00 -0.43081674759E+03  0.43081674759E+03  0.00000000000E+00 0. -1.
         25    2    1    2    0    0 -0.94285196030E+01  0.35606352032E+02  0.13361572616E+03  0.18663989047E+03  0.12499830859E+03 0.  0.
          2    1    1    2  501    0  0.22341104758E+02 -0.11740299846E+03 -0.39228275309E+03  0.41008334199E+03  0.00000000000E+00 0. -1.
          1    1    1    2  502    0 -0.12912585155E+02  0.81796646431E+02  0.54606685164E+03  0.55231008744E+03  0.00000000000E+00 0. -1.
         22    1    3    3    0    0  0.24823422850E+02 -0.40083780441E+02  0.51639340914E+02  0.69925197936E+02  0.00000000000E+00 0.  1.
         22    1    3    3    0    0 -0.34251942453E+02  0.75690132473E+02  0.81976385244E+02  0.11671469253E+03  0.00000000000E+00 0.  1.
</event>
<event>
 7    1  0.6188600E-006  0.1441265E+03  0.7818608E-02  0.1411001E+00
          2   -1    0    0  502    0  0.00000000000E+00  0.00000000000E+00  0.28993518744E+03  0.28993518744E+03  0.00000000000E+00 0. -1.
          1   -1    0    0  501    0 -0.00000000000E+00 -0.00000000000E+00 -0.12984474088E+04  0.12984474088E+04  0.00000000000E+00 0. -1.
         25    2    1    2    0    0  0.29750482178E+02 -0.11918289912E+03  0.11379068005E+02  0.17562389266E+03  0.12499845540E+03 0.  0.
          2    1    1    2  501    0 -0.38632877728E+02  0.13987704016E+03 -0.12113344375E+04  0.12199955758E+04  0.00000000000E+00 0. -1.
          1    1    1    2  502    0  0.88823955501E+01 -0.20694141047E+02  0.19144314817E+03  0.19276312771E+03  0.00000000000E+00 0. -1.
         22    1    3    3    0    0  0.45148006743E+02 -0.37318776020E+02 -0.45996799267E+02  0.74476433181E+02  0.00000000000E+00 0.  1.
         22    1    3    3    0    0 -0.15397524565E+02 -0.81864123096E+02  0.57375867272E+02  0.10114745947E+03  0.00000000000E+00 0.  1.
</event>
<event>
 7    1  0.6188600E-006  0.1258086E+03  0.7818608E-02  0.1376724E+00
          2   -1    0    0  502    0  0.00000000000E+00  0.00000000000E+00  0.64695692197E+03  0.64695692197E+03  0.00000000000E+00 0. -1.
          1   -1    0    0  501    0 -0.00000000000E+00 -0.00000000000E+00 -0.11745180061E+04  0.11745180061E+04  0.00000000000E+00 0. -1.
         25    2    1    2    0    0 -0.11535614688E+03 -0.80759008708E+01 -0.60848849272E+02  0.18083179783E+03  0.12500118340E+03 0.  0.
          2    1    1    2  501    0  0.12427587776E+03 -0.24658183978E+02 -0.10493737379E+04  0.10569946838E+04  0.00000000000E+00 0. -1.
          1    1    1    2  502    0 -0.89197308862E+01  0.32734084849E+02  0.58266150303E+03  0.58364844643E+03  0.00000000000E+00 0. -1.
         22    1    3    3    0    0 -0.16435349968E+02  0.38441560933E+02 -0.57980790403E+02  0.71481790627E+02  0.00000000000E+00 0. -1.
         22    1    3    3    0    0 -0.98920796910E+02 -0.46517461803E+02 -0.28680588693E+01  0.10935000720E+03  0.00000000000E+00 0. -1.
</event>
<event>
 7    1  0.6188600E-006  0.1169711E+03  0.7818608E-02  0.1270289E+00
          2   -1    0    0  502    0  0.00000000000E+00  0.00000000000E+00  0.24693456305E+03  0.24693456305E+03  0.00000000000E+00 0. -1.
          1   -1    0    0  501    0 -0.00000000000E+00 -0.00000000000E+00 -0.11563936111E+04  0.11563936111E+04  0.00000000000E+00 0. -1.
         25    2    1    2    0    0  0.11010147915E+03 -0.17510019022E+02 -0.11108139794E+03  0.20097450857E+03  0.12499095828E+03 0.  0.
          2    1    1    2  501    0 -0.65857701039E+02  0.10055935838E+03 -0.98555265006E+03  0.99285620680E+03  0.00000000000E+00 0. -1.
          1    1    1    2  502    0 -0.44243778113E+02 -0.83049339357E+02  0.18717499989E+03  0.20949745883E+03  0.00000000000E+00 0. -1.
         22    1    3    3    0    0 -0.33400013608E+01  0.38261555396E+02 -0.42026959673E+02  0.56933009492E+02  0.00000000000E+00 0.  1.
         22    1    3    3    0    0  0.11344148051E+03 -0.55771574418E+02 -0.69054438264E+02  0.14404149908E+03  0.00000000000E+00 0.  1.
</event>
<event>
 7    1  0.1218684E-005  0.6036112E+02  0.7818608E-02  0.1407991E+00
          2   -1    0    0  502    0  0.00000000000E+00  0.00000000000E+00  0.23738646131E+04  0.23738646131E+04  0.00000000000E+00 0. -1.
          1   -1    0    0  501    0 -0.00000000000E+00 -0.00000000000E+00 -0.18834636126E+04  0.18834636126E+04  0.00000000000E+00 0. -1.
         25    2    1    2    0    0  0.64624951045E+02 -0.92930043474E+02 -0.40495857836E+03  0.43866542805E+03  0.12499412108E+03 0.  0.
          2    1    1    2  501    0 -0.39918731493E+02  0.37907783744E+02 -0.14607471981E+04  0.14617841434E+04  0.00000000000E+00 0. -1.
          1    1    1    2  502    0 -0.24706219552E+02  0.55022259730E+02  0.23561067770E+04  0.23568786543E+04  0.00000000000E+00 0. -1.
         22    1    3    3    0    0 -0.89146295780E+00 -0.40171714913E+02 -0.30669005515E+03  0.30931109148E+03  0.00000000000E+00 0. -1.
         22    1    3    3    0    0  0.65516414003E+02 -0.52758328561E+02 -0.98268523209E+02  0.12935433657E+03  0.00000000000E+00 0. -1.
</event>
<event>
 7    1  0.6188600E-006  0.8417340E+02  0.7818608E-02  0.1398893E+00
          2   -1    0    0  502    0  0.00000000000E+00  0.00000000000E+00  0.17088620336E+04  0.17088620336E+04  0.00000000000E+00 0. -1.
          1   -1    0    0  501    0 -0.00000000000E+00 -0.00000000000E+00 -0.30533964210E+03  0.30533964210E+03  0.00000000000E+00 0. -1.
         25    2    1    2    0    0 -0.10671152782E+03  0.14147706378E+02  0.10688494547E+03  0.19656461574E+03  0.12500299527E+03 0.  0.
          2    1    1    2  501    0  0.73172632827E+02 -0.40104519876E+02 -0.25352037527E+03  0.26689920829E+03  0.00000000000E+00 0. -1.
          1    1    1    2  502    0  0.33538894995E+02  0.25956813498E+02  0.15501578213E+04  0.15507378516E+04  0.00000000000E+00 0. -1.
         22    1    3    3    0    0 -0.11998763359E+03  0.21174684738E+02  0.12396565713E+03  0.17381853652E+03  0.00000000000E+00 0.  1.
         22    1    3    3    0    0  0.13276105773E+02 -0.70269783605E+01 -0.17080711657E+02  0.22746079224E+02  0.00000000000E+00 0.  1.
</event>
<event>
 7    1  0.6188600E-006  0.1011574E+03  0.7818608E-02  0.1318287E+00
          2   -1    0    0  502    0  0.00000000000E+00  0.00000000000E+00  0.19828128128E+03  0.19828128128E+03  0.00000000000E+00 0. -1.
          1   -1    0    0  501    0 -0.00000000000E+00 -0.00000000000E+00 -0.85226778285E+03  0.85226778285E+03  0.00000000000E+00 0. -1.
         25    2    1    2    0    0 -0.45683620023E+02 -0.33312769799E+02 -0.24702677799E+03  0.28256682243E+03  0.12500018529E+03 0.  0.
          2    1    1    2  501    0  0.58849503247E+02  0.10167299537E+03 -0.57458721185E+03  0.58647346576E+03  0.00000000000E+00 0. -1.
          1    1    1    2  502    0 -0.13165883224E+02 -0.68360225575E+02  0.16762748827E+03  0.18150877594E+03  0.00000000000E+00 0. -1.
         22    1    3    3    0    0  0.33250479948E+02 -0.46490126387E+02 -0.10452099369E+03  0.11912835259E+03  0.00000000000E+00 0. -1.
         22    1    3    3    0    0 -0.78934099971E+02  0.13177356589E+02 -0.14250578430E+03  0.16343846984E+03  0.00000000000E+00 0. -1.
</event>
<event>
 7    1  0.6188600E-006  0.7267089E+02  0.7818608E-02  0.1362314E+00
          2   -1    0    0  502    0  0.00000000000E+00  0.00000000000E+00  0.21730956633E+03  0.21730956633E+03  0.00000000000E+00 0. -1.
          1   -1    0    0  501    0 -0.00000000000E+00 -0.00000000000E+00 -0.17070197798E+04  0.17070197798E+04  0.00000000000E+00 0. -1.
         25    2    1    2    0    0  0.31480831960E+01  0.48571265495E+01 -0.49732944175E+03  0.51283147997E+03  0.12500420435E+03 0.  0.
          2    1    1    2  501    0  0.26960957282E+02 -0.70997161407E+02 -0.11943966541E+04  0.11968086135E+04  0.00000000000E+00 0. -1.
          1    1    1    2  502    0 -0.30109040478E+02  0.66140034857E+02  0.20201588229E+03  0.21468925271E+03  0.00000000000E+00 0. -1.
         22    1    3    3    0    0  0.58701582179E+02 -0.91822851299E+01 -0.34505386033E+03  0.35013191320E+03  0.00000000000E+00 0.  1.
         22    1    3    3    0    0 -0.55553498983E+02  0.14039411679E+02 -0.15227558143E+03  0.16269956677E+03  0.00000000000E+00 0.  1.
</event>
<event>
 7    1  0.6188600E-006  0.1026038E+03  0.7818608E-02  0.1348460E+00
          2   -1    0    0  502    0  0.00000000000E+00  0.00000000000E+00  0.16449909156E+03  0.16449909156E+03  0.00000000000E+00 0. -1.
          1   -1    0    0  501    0 -0.00000000000E+00 -0.00000000000E+00 -0.25858431691E+04  0.25858431691E+04  0.00000000000E+00 0. -1.
         25    2    1    2    0    0 -0.14039911049E+03  0.61772010459E+02 -0.72648998505E+03  0.75295724902E+03  0.12501691473E+03 0.  0.
          2    1    1    2  501    0  0.44864721132E+02 -0.27659515061E+02 -0.18286897460E+04  0.18294491190E+04  0.00000000000E+00 0. -1.
          1    1    1    2  502    0  0.95534389359E+02 -0.34112495398E+02  0.13383565348E+03  0.16793589264E+03  0.00000000000E+00 0. -1.
         22    1    3    3    0    0 -0.11666241326E+03  0.78731086975E+02 -0.37975132970E+03  0.40499354949E+03  0.00000000000E+00 0. -1.
         22    1    3    3    0    0 -0.23736697230E+02 -0.16959076516E+02 -0.34673865535E+03  0.34796369953E+03  0.00000000000E+00 0. -1.
</event>
<event>
 7    1  0.6188600E-006  0.9073975E+02  0.7818608E-02  0.1369391E+00
          2   -1    0    0  502    0  0.00000000000E+00  0.00000000000E+00  0.82222955603E+03  0.82222955603E+03  0.00000000000E+00 0. -1.
          1   -1    0    0  501    0 -0.00000000000E+00 -0.00000000000E+00 -0.68261316168E+02  0.68261316168E+02  0.00000000000E+00 0. -1.
         25    2    1    2    0    0 -0.71431823649E+02  0.44686877973E+02  0.55776267442E+03  0.57777528014E+03  0.12500260347E+03 0.  0.
          2    1    1    2  501    0  0.20033848215E+02  0.45777890732E+02 -0.33761692759E+02  0.60306071436E+02  0.00000000000E+00 0. -1.
          1    1    1    2  502    0  0.51397975434E+02 -0.90464768705E+02  0.22996725820E+03  0.25240952062E+03  0.00000000000E+00 0. -1.
         22    1    3    3    0    0  0.34372231434E+02  0.17438603071E+01  0.92201379128E+02  0.98415373065E+02  0.00000000000E+00 0. -1.
         22    1    3    3    0    0 -0.10580405508E+03  0.42943017666E+02  0.46556129529E+03  0.47935990707E+03  0.00000000000E+00 0. -1.
</event>
<event>
 7    1  0.6188600E-006  0.1948758E+03  0.7818608E-02  0.1206363E+00
          2   -1    0    0  502    0  0.00000000000E+00  0.00000000000E+00  0.16305742840E+04  0.16305742840E+04  0.00000000000E+00 0. -1.
          1   -1    0    0  501    0 -0.00000000000E+00 -0.00000000000E+00 -0.99229351534E+03  0.99229351534E+03  0.00000000000E+00 0. -1.
         25    2    1    2    0    0  0.29352868351E+03 -0.39685892204E+02  0.11386062283E+02  0.32169619923E+03  0.12499897639E+03 0.  0.
          2    1    1    2  501    0 -0.18771148304E+03  0.16420023109E+02 -0.82449050802E+03  0.84574808060E+03  0.00000000000E+00 0. -1.
          1    1    1    2  502    0 -0.10581720047E+03  0.23265869095E+02  0.14513852144E+04  0.14554235195E+04  0.00000000000E+00 0. -1.
         22    1    3    3    0    0  0.66622935081E+02 -0.64967782493E+02  0.74278599816E+01  0.93352029141E+02  0.00000000000E+00 0. -1.
         22    1    3    3    0    0  0.22690574843E+03  0.25281890288E+02  0.39582023018E+01  0.22834417009E+03  0.00000000000E+00 0. -1.
</event>
<event>
 7    1  0.6188600E-006  0.6559011E+02  0.7818608E-02  0.1388748E+00
          2   -1    0    0  502    0  0.00000000000E+00  0.00000000000E+00  0.63913777220E+03  0.63913777220E+03  0.00000000000E+00 0. -1.
          1   -1    0    0  501    0 -0.00000000000E+00 -0.00000000000E+00 -0.76905747055E+03  0.76905747055E+03  0.00000000000E+00 0. -1.
         25    2    1    2    0    0  0.37396637494E+02  0.26919132573E+02  0.45942371137E+01  0.13330040131E+03  0.12499896712E+03 0.  0.
          2    1    1    2  501    0 -0.43717236902E+02  0.39653057969E+02 -0.70150017494E+03  0.70397873352E+03  0.00000000000E+00 0. -1.
          1    1    1    2  502    0  0.63205994081E+01 -0.66572190543E+02  0.56698623947E+03  0.57091610792E+03  0.00000000000E+00 0. -1.
         22    1    3    3    0    0  0.58235781254E+02  0.63317904074E+01 -0.46239936605E+02  0.74629950591E+02  0.00000000000E+00 0.  1.
         22    1    3    3    0    0 -0.20839143760E+02  0.20587342166E+02  0.50834173719E+02  0.58670450720E+02  0.00000000000E+00 0.  1.
</event>
<event>
 7    1  0.6188600E-006  0.6702877E+02  0.7818608E-02  0.1402555E+00
          2   -1    0    0  502    0  0.00000000000E+00  0.00000000000E+00  0.12786485727E+03  0.12786485727E+03  0.00000000000E+00 0. -1.
          1   -1    0    0  501    0 -0.00000000000E+00 -0.00000000000E+00 -0.18579765716E+03  0.18579765716E+03  0.00000000000E+00 0. -1.
         25    2    1    2    0    0 -0.37019781838E+02  0.24616189180E+02 -0.41599325007E+02  0.13904397253E+03  0.12500520564E+03 0.  0.
          2    1    1    2  501    0  0.78227404317E+02  0.66678629918E+01 -0.66249091585E+02  0.10272745163E+03  0.00000000000E+00 0. -1.
          1    1    1    2  502    0 -0.41207622479E+02 -0.31284052172E+02  0.49915616702E+02  0.71891090278E+02  0.00000000000E+00 0. -1.
         22    1    3    3    0    0 -0.11047817768E+02 -0.50059733911E+02 -0.29249589424E+02  0.59021773255E+02  0.00000000000E+00 0. -1.
         22    1    3    3    0    0 -0.25971964069E+02  0.74675923091E+02 -0.12349735583E+02  0.80022199271E+02  0.00000000000E+00 0. -1.
</event>
<event>
 7    1  0.6188600E-006  0.7573569E+02  0.7818608E-02  0.1386455E+00
          2   -1    0    0  502    0  0.00000000000E+00  0.00000000000E+00  0.60670568556E+03  0.60670568556E+03  0.00000000000E+00 0. -1.
          1   -1    0    0  501    0 -0.00000000000E+00 -0.00000000000E+00 -0.48257096459E+03  0.48257096459E+03  0.00000000000E+00 0. -1.
         25    2    1    2    0    0  0.73734400856E+02 -0.95890893332E+02 -0.18647860204E+02  0.17496919869E+03  0.12503860406E+03 0.  0.
          2    1    1    2  501    0 -0.57372989750E+02  0.46459416000E+02 -0.38092749019E+03  0.38801532196E+03  0.00000000000E+00 0. -1.
          1    1    1    2  502    0 -0.16361411105E+02  0.49431477331E+02  0.52371007136E+03  0.52629212950E+03  0.00000000000E+00 0. -1.
         22    1    3    3    0    0 -0.43512940521E+01  0.26450959620E+02  0.67090023256E+01  0.27633272281E+02  0.00000000000E+00 0. -1.
         22    1    3    3    0    0  0.78085694908E+02 -0.12234185295E+03 -0.25356862530E+02  0.14733592641E+03  0.00000000000E+00 0. -1.
</event>
<event>
 7    1  0.6188600E-006  0.2474873E+02  0.7818608E-02  0.1702951E+00
          2   -1    0    0  502    0  0.00000000000E+00  0.00000000000E+00  0.12169200281E+04  0.12169200281E+04  0.00000000000E+00 0. -1.
          1   -1    0    0  501    0 -0.00000000000E+00 -0.00000000000E+00 -0.26823115462E+03  0.26823115462E+03  0.00000000000E+00 0. -1.
         25    2    1    2    0    0 -0.99672870826E+00 -0.39768745036E+02  0.32928863803E+02  0.13524311144E+03  0.12499537020E+03 0.  0.
          2    1    1    2  501    0  0.10694194290E+02  0.17031890651E+02 -0.21647304708E+03  0.21740522350E+03  0.00000000000E+00 0. -1.
          1    1    1    2  502    0 -0.96974655816E+01  0.22736854385E+02  0.11322330567E+04  0.11325028477E+04  0.00000000000E+00 0. -1.
         22    1    3    3    0    0  0.35759594239E+02  0.30739156402E+02  0.29567524910E+02  0.55658627775E+02  0.00000000000E+00 0. -1.
         22    1    3    3    0    0 -0.36756322947E+02 -0.70507901439E+02  0.33613388932E+01  0.79584483670E+02  0.00000000000E+00 0. -1.
</event>
<event>
 7    1  0.6188600E-006  0.5809505E+02  0.7818608E-02  0.1454913E+00
          2   -1    0    0  502    0  0.00000000000E+00  0.00000000000E+00  0.27340847573E+03  0.27340847573E+03  0.00000000000E+00 0. -1.
          1   -1    0    0  501    0 -0.00000000000E+00 -0.00000000000E+00 -0.26426773201E+04  0.26426773201E+04  0.00000000000E+00 0. -1.
         25    2    1    2    0    0 -0.30843583054E+02 -0.56210490018E+01 -0.49423005023E+03  0.51075699498E+03  0.12500577012E+03 0.  0.
          2    1    1    2  501    0  0.39633713183E+02  0.44749374628E+02 -0.21382472711E+04  0.21390826843E+04  0.00000000000E+00 0. -1.
          1    1    1    2  502    0 -0.87901301291E+01 -0.39128325627E+02  0.26320847696E+03  0.26624611659E+03  0.00000000000E+00 0. -1.
         22    1    3    3    0    0 -0.39179751565E+02 -0.34200537041E+02 -0.79750171092E+02  0.95209345422E+02  0.00000000000E+00 0. -1.
         22    1    3    3    0    0  0.83361685104E+01  0.28579488039E+02 -0.41447987914E+03  0.41554764956E+03  0.00000000000E+00 0. -1.
</event>
<event>
 7    1  0.6188600E-006  0.9515518E+02  0.7818608E-02  0.1303946E+00
          2   -1    0    0  502    0  0.00000000000E+00  0.00000000000E+00  0.73470312215E+03  0.73470312215E+03  0.00000000000E+00 0. -1.
          1   -1    0    0  501    0 -0.00000000000E+00 -0.00000000000E+00 -0.55897142880E+03  0.55897142880E+03  0.00000000000E+00 0. -1.
         25    2    1    2    0    0  0.47282050241E+02  0.92676781950E+02 -0.13495707833E+03  0.21135037254E+03  0.12502395288E+03 0.  0.
          2    1    1    2  501    0 -0.84159404587E+02 -0.43938197343E+01 -0.37786825969E+03  0.38715182127E+03  0.00000000000E+00 0. -1.
          1    1    1    2  502    0  0.36877354347E+02 -0.88282962216E+02  0.68855703138E+03  0.69517235714E+03  0.00000000000E+00 0. -1.
         22    1    3    3    0    0 -0.30966899379E+02 -0.10234538148E+02 -0.35746339490E+02  0.48389000973E+02  0.00000000000E+00 0. -1.
         22    1    3    3    0    0  0.78248949620E+02  0.10291132010E+03 -0.99210738843E+02  0.16296137157E+03  0.00000000000E+00 0. -1.
</event>
<event>
 7    1  0.6188600E-006  0.5689680E+02  0.7818608E-02  0.1440454E+00
          2   -1    0    0  502    0  0.00000000000E+00  0.00000000000E+00  0.14939763025E+03  0.14939763025E+03  0.00000000000E+00 0. -1.
          1   -1    0    0  501    0 -0.00000000000E+00 -0.00000000000E+00 -0.30003216212E+03  0.30003216212E+03  0.00000000000E+00 0. -1.
         25    2    1    2    0    0 -0.42820255569E+02 -0.52837493677E+02 -0.77418829546E+02  0.16200014855E+03  0.12499999175E+03 0.  0.
          2    1    1    2  501    0  0.56588324851E+02  0.94005254527E+01 -0.17056009553E+03  0.17994819970E+03  0.00000000000E+00 0. -1.
          1    1    1    2  502    0 -0.13768069282E+02  0.43436968224E+02  0.97344393207E+02  0.10748144411E+03  0.00000000000E+00 0. -1.
         22    1    3    3    0    0  0.66231815305E+01 -0.52894020397E+02  0.16550185084E+02  0.55817134947E+02  0.00000000000E+00 0.  1.
         22    1    3    3    0    0 -0.49443437100E+02  0.56526720542E-01 -0.93969014630E+02  0.10618301360E+03  0.00000000000E+00 0.  1.
</event>
<event>
 7    1  0.6188600E-006  0.4133670E+02  0.7818608E-02  0.1573862E+00
          2   -1    0    0  502    0  0.00000000000E+00  0.00000000000E+00  0.19725283419E+03  0.19725283419E+03  0.00000000000E+00 0. -1.
          1   -1    0    0  501    0 -0.00000000000E+00 -0.00000000000E+00 -0.88671629205E+03  0.88671629205E+03  0.00000000000E+00 0. -1.
         25    2    1    2    0    0  0.81442958599E+01  0.59284250722E+02  0.95896098491E+01  0.13891687531E+03  0.12499994276E+03 0.  0.
          2    1    1    2  501    0 -0.19113467450E+02 -0.36534357836E+02 -0.82023282447E+03  0.82126851290E+03  0.00000000000E+00 0. -1.
          1    1    1    2  502    0  0.10969171590E+02 -0.22749892887E+02  0.12117975676E+03  0.12378373803E+03  0.00000000000E+00 0. -1.
         22    1    3    3    0    0 -0.30153096869E+02  0.50056447062E+02 -0.43470258782E+02  0.72832139484E+02  0.00000000000E+00 0.  1.
         22    1    3    3    0    0  0.38297392729E+02  0.92278036602E+01  0.53059868631E+02  0.66084735828E+02  0.00000000000E+00 0.  1.
</event>
<event>
 7    1  0.6188600E-006  0.1051460E+03  0.7818608E-02  0.1332577E+00
          2   -1    0    0  502    0  0.00000000000E+00  0.00000000000E+00  0.21157767193E+04  0.21157767193E+04  0.00000000000E+00 0. -1.
          1   -1    0    0  501    0 -0.00000000000E+00 -0.00000000000E+00 -0.45703041352E+03  0.45703041352E+03  0.00000000000E+00 0. -1.
         25    2    1    2    0    0  0.88375371272E+02  0.21600364392E+02 -0.16619334699E+02  0.15548881701E+03  0.12499515167E+03 0.  0.
          2    1    1    2  501    0 -0.74201774157E+02 -0.78884348146E+02 -0.36263623804E+03  0.37846226339E+03  0.00000000000E+00 0. -1.
          1    1    1    2  502    0 -0.14173597115E+02  0.57283983754E+02  0.20380018785E+04  0.20388560524E+04  0.00000000000E+00 0. -1.
         22    1    3    3    0    0  0.13044564627E+02  0.62734033368E+02 -0.25996282240E+02  0.69148581325E+02  0.00000000000E+00 0.  1.
         22    1    3    3    0    0  0.75330806645E+02 -0.41133668976E+02  0.93769475417E+01  0.86340235686E+02  0.00000000000E+00 0.  1.
</event>
<event>
 7    1  0.6188600E-006  0.4759154E+02  0.7818608E-02  0.1540289E+00
          2   -1    0    0  502    0  0.00000000000E+00  0.00000000000E+00  0.22953824736E+03  0.22953824736E+03  0.00000000000E+00 0. -1.
          1   -1    0    0  501    0 -0.00000000000E+00 -0.00000000000E+00 -0.14501558786E+04  0.14501558786E+04  0.00000000000E+00 0. -1.
         25    2    1    2    0    0 -0.55266030649E+02 -0.49896280061E+01 -0.11170190828E+03  0.17658482071E+03  0.12500260822E+03 0.  0.
          2    1    1    2  501    0  0.43420783962E+02 -0.19453477073E+02 -0.13046409936E+04  0.13055083012E+04  0.00000000000E+00 0. -1.
          1    1    1    2  502    0  0.11845246687E+02  0.24443105079E+02  0.19572527063E+03  0.19760100409E+03  0.00000000000E+00 0. -1.
         22    1    3    3    0    0  0.33787153725E+02  0.12279908436E+02 -0.65659313758E+02  0.74856618887E+02  0.00000000000E+00 0. -1.
         22    1    3    3    0    0 -0.89053184374E+02 -0.17269536442E+02 -0.46042594523E+02  0.10172820182E+03  0.00000000000E+00 0. -1.
</event>
<event>
 7    1  0.6188600E-006  0.1373608E+03  0.7818608E-02  0.1229679E+00
          2   -1    0    0  502    0  0.00000000000E+00  0.00000000000E+00  0.14510272150E+04  0.14510272150E+04  0.00000000000E+00 0. -1.
          1   -1    0    0  501    0 -0.00000000000E+00 -0.00000000000E+00 -0.16044449092E+03  0.16044449092E+03  0.00000000000E+00 0. -1.
         25    2    1    2    0    0 -0.19525363988E+02 -0.45002204634E+02 -0.67844063697E+02  0.15044601115E+03  0.12499898812E+03 0.  0.
          2    1    1    2  501    0 -0.11891673515E+03  0.17752866423E+02  0.28410017473E+02  0.12354547041E+03  0.00000000000E+00 0. -1.
          1    1    1    2  502    0  0.13844209914E+03  0.27249338211E+02  0.13300167703E+04  0.13374802243E+04  0.00000000000E+00 0. -1.
         22    1    3    3    0    0 -0.49684338407E+02 -0.25590539426E+01 -0.82514057284E+02  0.96351709323E+02  0.00000000000E+00 0. -1.
         22    1    3    3    0    0  0.30158974420E+02 -0.42443150691E+02  0.14669993587E+02  0.54094301830E+02  0.00000000000E+00 0. -1.
</event>
<event>
 7    1  0.6188600E-006  0.4657200E+02  0.7818608E-02  0.1527828E+00
          2   -1    0    0  502    0  0.00000000000E+00  0.00000000000E+00  0.25849061637E+03  0.25849061637E+03  0.00000000000E+00 0. -1.
          1   -1    0    0  501    0 -0.00000000000E+00 -0.00000000000E+00 -0.52745506799E+03  0.52745506799E+03  0.00000000000E+00 0. -1.
         25    2    1    2    0    0 -0.69838330427E+02 -0.28652023579E+02  0.91530114457E+01  0.14630973429E+03  0.12499771949E+03 0.  0.
          2    1    1    2  501    0  0.27980527091E+02  0.11152843557E+02 -0.45552471649E+03  0.45651951015E+03  0.00000000000E+00 0. -1.
          1    1    1    2  502    0  0.41857803336E+02  0.17499180022E+02  0.17740725342E+03  0.18311643992E+03  0.00000000000E+00 0. -1.
         22    1    3    3    0    0 -0.27680936078E+01  0.17754641443E+02  0.51405148839E+02  0.54455293243E+02  0.00000000000E+00 0.  1.
         22    1    3    3    0    0 -0.67070236819E+02 -0.46406665022E+02 -0.42252137394E+02  0.91854441045E+02  0.00000000000E+00 0.  1.
</event>
<event>
 7    1  0.6188600E-006  0.1218009E+03  0.7818608E-02  0.1264528E+00
          2   -1    0    0  502    0  0.00000000000E+00  0.00000000000E+00  0.59294995332E+03  0.59294995332E+03  0.00000000000E+00 0. -1.
          1   -1    0    0  501    0 -0.00000000000E+00 -0.00000000000E+00 -0.15696664251E+04  0.15696664251E+04  0.00000000000E+00 0. -1.
         25    2    1    2    0    0  0.13599593856E+03 -0.43594838052E+02 -0.10278264784E+02  0.19006130655E+03  0.12498900876E+03 0.  0.
          2    1    1    2  501    0 -0.23518511530E+02  0.92628560324E+02 -0.14604295975E+04  0.14635531353E+04  0.00000000000E+00 0. -1.
          1    1    1    2  502    0 -0.11247742703E+03 -0.49033722272E+02  0.49399139053E+03  0.50900193656E+03  0.00000000000E+00 0. -1.
         22    1    3    3    0    0  0.16392891005E+02  0.25730349381E+02  0.33252370974E+02  0.45127573945E+02  0.00000000000E+00 0. -1.
         22    1    3    3    0    0  0.11960304756E+03 -0.69325187433E+02 -0.43530635758E+02  0.14493373261E+03  0.00000000000E+00 0. -1.
</event>
<event>
 7    1  0.6188600E-006  0.6706287E+02  0.7818608E-02  0.1394540E+00
          2   -1    0    0  502    0  0.00000000000E+00  0.00000000000E+00  0.29399643278E+03  0.29399643278E+03  0.00000000000E+00 0. -1.
          1   -1    0    0  501    0 -0.00000000000E+00 -0.00000000000E+00 -0.13975552090E+03  0.13975552090E+03  0.00000000000E+00 0. -1.
         25    2    1    2    0    0 -0.65471681146E+01  0.62451457877E+01  0.53814912656E+01  0.12544685420E+03  0.12500434202E+03 0.  0.
          2    1    1    2  501    0  0.53295408078E+02  0.41838427937E+02 -0.59032023995E+02  0.89864533780E+02  0.00000000000E+00 0. -1.
          1    1    1    2  502    0 -0.46748239963E+02 -0.48083573724E+02  0.20789144461E+03  0.21844056570E+03  0.00000000000E+00 0. -1.
         22    1    3    3    0    0  0.61587608424E+00 -0.58689393821E+02  0.11583259433E+02  0.59824711863E+02  0.00000000000E+00 0. -1.
         22    1    3    3    0    0 -0.71630441988E+01  0.64934539608E+02 -0.62017681669E+01  0.65622142336E+02  0.00000000000E+00 0. -1.
</event>
<event>
 7    1  0.8643763E-006  0.1406249E+03  0.7818608E-02  0.1292189E+00
          2   -1    0    0  502    0  0.00000000000E+00  0.00000000000E+00  0.17143931719E+04  0.17143931719E+04  0.00000000000E+00 0. -1.
          1   -1    0    0  501    0 -0.00000000000E+00 -0.00000000000E+00 -0.12447287895E+04  0.12447287895E+04  0.00000000000E+00 0. -1.
         25    2    1    2    0    0 -0.31525187892E+02  0.13724022698E+03 -0.18866829283E+03  0.26655051695E+03  0.12499894398E+03 0.  0.
          2    1    1    2  501    0  0.89291374591E+02 -0.11069511487E+03 -0.10115400924E+04  0.10214889704E+04  0.00000000000E+00 0. -1.
          1    1    1    2  502    0 -0.57766186699E+02 -0.26545112113E+02  0.16698727676E+04  0.16710824741E+04  0.00000000000E+00 0. -1.
         22    1    3    3    0    0 -0.52530084449E+02  0.85484406939E+02 -0.18514451031E+03  0.21058367292E+03  0.00000000000E+00 0. -1.
         22    1    3    3    0    0  0.21004896558E+02  0.51755820045E+02 -0.35237825162E+01  0.55966844035E+02  0.00000000000E+00 0. -1.
</event>
<event>
 7    1  0.6188600E-006  0.2292123E+03  0.7818608E-02  0.1298443E+00
          2   -1    0    0  502    0  0.00000000000E+00  0.00000000000E+00  0.41984691612E+03  0.41984691612E+03  0.00000000000E+00 0. -1.
          1   -1    0    0  501    0 -0.00000000000E+00 -0.00000000000E+00 -0.68182590939E+03  0.68182590939E+03  0.00000000000E+00 0. -1.
         25    2    1    2    0    0 -0.45024691558E+02  0.25658697904E+03 -0.13013719166E+03  0.31689819102E+03  0.12499869661E+03 0.  0.
          2    1    1    2  501    0  0.91157200155E+01 -0.35655785661E+02 -0.41904131353E+03  0.42065431633E+03  0.00000000000E+00 0. -1.
          1    1    1    2  502    0  0.35908971542E+02 -0.22093119338E+03  0.28719951192E+03  0.36412031816E+03  0.00000000000E+00 0. -1.
         22    1    3    3    0    0  0.76138729721E+00 -0.13501995144E+02 -0.13659232103E+02  0.19221295615E+02  0.00000000000E+00 0. -1.
         22    1    3    3    0    0 -0.45786078855E+02  0.27008897419E+03 -0.11647795956E+03  0.29767689540E+03  0.00000000000E+00 0. -1.
</event>
<event>
 7    1  0.6188600E-006  0.6312612E+02  0.7818608E-02  0.1518382E+00
          2   -1    0    0  502    0  0.00000000000E+00  0.00000000000E+00  0.25960320148E+04  0.25960320148E+04  0.00000000000E+00 0. -1.
          1   -1    0    0  501    0 -0.00000000000E+00 -0.00000000000E+00 -0.36047557024E+03  0.36047557024E+03  0.00000000000E+00 0. -1.
         25    2    1    2    0    0 -0.65890978707E+02  0.54117282639E+02  0.26357134480E+03  0.30391649342E+03  0.12500031927E+03 0.  0.
          2    1    1    2  501    0  0.13868238248E+02 -0.19175579945E+02 -0.33946637481E+03  0.34029024453E+03  0.00000000000E+00 0. -1.
          1    1    1    2  502    0  0.52022740459E+02 -0.34941702695E+02  0.23114514746E+04  0.23123008471E+04  0.00000000000E+00 0. -1.
         22    1    3    3    0    0 -0.61248482163E+02  0.46792675022E+00  0.23521078349E+03  0.24305494892E+03  0.00000000000E+00 0.  1.
         22    1    3    3    0    0 -0.46424965439E+01  0.53649355889E+02  0.28360561305E+02  0.60861544501E+02  0.00000000000E+00 0.  1.
</event>
<event>
 7    1  0.6188600E-006  0.5787680E+02  0.7818608E-02  0.1463804E+00
          2   -1    0    0  502    0  0.00000000000E+00  0.00000000000E+00  0.24772221549E+03  0.24772221549E+03  0.00000000000E+00 0. -1.
          1   -1    0    0  501    0 -0.00000000000E+00 -0.00000000000E+00 -0.18944365929E+04  0.18944365929E+04  0.00000000000E+00 0. -1.
         25    2    1    2    0    0  0.27712406026E+02  0.25893557067E+02 -0.46648710390E+03  0.48443321826E+03  0.12500748418E+03 0.  0.
          2    1    1    2  501    0 -0.59547737704E+02 -0.56343338445E+01 -0.14168504629E+04  0.14181124472E+04  0.00000000000E+00 0. -1.
          1    1    1    2  502    0  0.31835331678E+02 -0.20259223223E+02  0.23662318941E+03  0.23961314287E+03  0.00000000000E+00 0. -1.
         22    1    3    3    0    0 -0.36230443356E+01 -0.76735027271E+01  0.55682703048E+01  0.10149617163E+02  0.00000000000E+00 0. -1.
         22    1    3    3    0    0  0.31335450362E+02  0.33567059794E+02 -0.47205537421E+03  0.47428360110E+03  0.00000000000E+00 0. -1.
</event>
<event>
 7    1  0.6188600E-006  0.3458245E+02  0.7818608E-02  0.1599771E+00
          2   -1    0    0  502    0  0.00000000000E+00  0.00000000000E+00  0.59394188145E+03  0.59394188145E+03  0.00000000000E+00 0. -1.
          1   -1    0    0  501    0 -0.00000000000E+00 -0.00000000000E+00 -0.34156601104E+03  0.34156601104E+03  0.00000000000E+00 0. -1.
         25    2    1    2    0    0 -0.12323827844E+02  0.20032631635E+01 -0.17822998487E+03  0.21805195015E+03  0.12499934265E+03 0.  0.
          2    1    1    2  501    0  0.33255392936E+02 -0.17022066932E+02 -0.14069707201E+03  0.14557244930E+03  0.00000000000E+00 0. -1.
          1    1    1    2  502    0 -0.20931565092E+02  0.15018803769E+02  0.57130292729E+03  0.57188349304E+03  0.00000000000E+00 0. -1.
         22    1    3    3    0    0 -0.19307937965E+02 -0.11249662680E+02 -0.19459026718E+03  0.19586914882E+03  0.00000000000E+00 0. -1.
         22    1    3    3    0    0  0.69841101217E+01  0.13252925844E+02  0.16360282312E+02  0.22182801332E+02  0.00000000000E+00 0. -1.
</event>
<event>
 7    1  0.6188600E-006  0.6708826E+02  0.7818608E-02  0.1382718E+00
          2   -1    0    0  502    0  0.00000000000E+00  0.00000000000E+00  0.15799394594E+04  0.15799394594E+04  0.00000000000E+00 0. -1.
          1   -1    0    0  501    0 -0.00000000000E+00 -0.00000000000E+00 -0.26370649829E+03  0.26370649829E+03  0.00000000000E+00 0. -1.
         25    2    1    2    0    0  0.59234624097E+02  0.55288581626E+02  0.40670075606E+02  0.15440092249E+03  0.12498008588E+03 0.  0.
          2    1    1    2  501    0  0.70779616904E-01 -0.67683194363E+02 -0.20066612475E+03  0.21177325948E+03  0.00000000000E+00 0. -1.
          1    1    1    2  502    0 -0.59305403714E+02  0.12394612737E+02  0.14762290103E+04  0.14774717757E+04  0.00000000000E+00 0. -1.
         22    1    3    3    0    0  0.29040732123E+02  0.80023821147E+02 -0.14968775304E+02  0.86436336730E+02  0.00000000000E+00 0. -1.
         22    1    3    3    0    0  0.30193891974E+02 -0.24735239521E+02  0.55638850910E+02  0.67964585759E+02  0.00000000000E+00 0. -1.
</event>
<event>
 7    1  0.6188600E-006  0.6111206E+02  0.7818608E-02  0.1485537E+00
          2   -1    0    0  502    0  0.00000000000E+00  0.00000000000E+00  0.18015285704E+03  0.18015285704E+03  0.00000000000E+00 0. -1.
          1   -1    0    0  501    0 -0.00000000000E+00 -0.00000000000E+00 -0.11969736992E+03  0.11969736992E+03  0.00000000000E+00 0. -1.
         25    2    1    2    0    0  0.26456668199E+02  0.42505467843E+02  0.57295390537E+02  0.14633486119E+03  0.12499783892E+03 0.  0.
          2    1    1    2  501    0 -0.39504744363E+01 -0.63261631136E+02 -0.57491797788E+02  0.85574219454E+02  0.00000000000E+00 0. -1.
          1    1    1    2  502    0 -0.22506193763E+02  0.20756163293E+02  0.60651894369E+02  0.67941146317E+02  0.00000000000E+00 0. -1.
         22    1    3    3    0    0  0.31107506886E+02 -0.39938056154E+02  0.11506504032E+02  0.51914592834E+02  0.00000000000E+00 0. -1.
         22    1    3    3    0    0 -0.46508386867E+01  0.82443523997E+02  0.45788886506E+02  0.94420268359E+02  0.00000000000E+00 0. -1.
</event>
<event>
 7    1  0.6188600E-006  0.5409424E+02  0.7818608E-02  0.1549755E+00
          2   -1    0    0  502    0  0.00000000000E+00  0.00000000000E+00  0.12751005208E+04  0.12751005208E+04  0.00000000000E+00 0. -1.
          1   -1    0    0  501    0 -0.00000000000E+00 -0.00000000000E+00 -0.67707719676E+02  0.67707719676E+02  0.00000000000E+00 0. -1.
         25    2    1    2    0    0 -0.43246055055E+02 -0.58407760295E+02  0.26445274082E+03  0.30139897185E+03  0.12499760142E+03 0.  0.
          2    1    1    2  501    0  0.19961869137E+02  0.10333903952E+02 -0.45910050982E+02  0.51117497703E+02  0.00000000000E+00 0. -1.
          1    1    1    2  502    0  0.23284185918E+02  0.48073856343E+02  0.98885011130E+03  0.99029177094E+03  0.00000000000E+00 0. -1.
         22    1    3    3    0    0 -0.58272381095E+02 -0.29004146767E+02  0.44189051680E+02  0.78673904292E+02  0.00000000000E+00 0.  1.
         22    1    3    3    0    0  0.15026326040E+02 -0.29403613528E+02  0.22026368914E+03  0.22272506755E+03  0.00000000000E+00 0.  1.
</event>
<event>
 7    1  0.6188600E-006  0.9066894E+02  0.7818608E-02  0.1354445E+00
          2   -1    0    0  502    0  0.00000000000E+00  0.00000000000E+00  0.21271601935E+03  0.21271601935E+03  0.00000000000E+00 0. -1.
          1   -1    0    0  501    0 -0.00000000000E+00 -0.00000000000E+00 -0.91199333982E+03  0.91199333982E+03  0.00000000000E+00 0. -1.
         25    2    1    2    0    0  0.11858346792E+03  0.23518627075E+02 -0.14362833680E+03  0.22554464477E+03  0.12500449178E+03 0.  0.
          2    1    1    2  501    0 -0.47534533404E+02  0.30873639253E+02 -0.71455422208E+03  0.71679875122E+03  0.00000000000E+00 0. -1.
          1    1    1    2  502    0 -0.71048934520E+02 -0.54392266328E+02  0.15890523841E+03  0.18236596318E+03  0.00000000000E+00 0. -1.
         22    1    3    3    0    0  0.10192065461E+02  0.57054879011E+02 -0.31231152921E+02  0.65837089320E+02  0.00000000000E+00 0.  1.
         22    1    3    3    0    0  0.10839140246E+03 -0.33536251936E+02 -0.11239718388E+03  0.15970755545E+03  0.00000000000E+00 0.  1.
</event>
<event>
 7    1  0.6188600E-006  0.1125323E+03  0.7818608E-02  0.1273988E+00
          2   -1    0    0  502    0  0.00000000000E+00  0.00000000000E+00  0.11328376095E+04  0.11328376095E+04  0.00000000000E+00 0. -1.
          1   -1    0    0  501    0 -0.00000000000E+00 -0.00000000000E+00 -0.29861932200E+03  0.29861932200E+03  0.00000000000E+00 0. -1.
         25    2    1    2    0    0 -0.22899475735E+02  0.11164416247E+03  0.23647813926E+03  0.29075013313E+03  0.12499969824E+03 0.  0.
          2    1    1    2  501    0  0.92765005787E+02 -0.17421886836E+02 -0.25916134906E+03  0.27581420066E+03  0.00000000000E+00 0. -1.
          1    1    1    2  502    0 -0.69865530052E+02 -0.94222275639E+02  0.85690149725E+03  0.86489259767E+03  0.00000000000E+00 0. -1.
         22    1    3    3    0    0  0.41802892874E+02  0.26684172997E+02  0.29128096423E+02  0.57514980156E+02  0.00000000000E+00 0.  1.
         22    1    3    3    0    0 -0.64702368609E+02  0.84959989478E+02  0.20735004284E+03  0.23323515297E+03  0.00000000000E+00 0.  1.
</event>
<event>
 7    1  0.6188600E-006  0.1228108E+03  0.7818608E-02  0.1257379E+00
          2   -1    0    0  502    0  0.00000000000E+00  0.00000000000E+00  0.40770777507E+04  0.40770777507E+04  0.00000000000E+00 0. -1.
          1   -1    0    0  501    0 -0.00000000000E+00 -0.00000000000E+00 -0.20083313928E+02  0.20083313928E+02  0.00000000000E+00 0. -1.
         25    2    1    2    0    0 -0.15686568077E+03  0.11283531411E+03  0.13688139988E+04  0.13880252745E+04  0.12499499732E+03 0.  0.
          2    1    1    2  501    0  0.57168856301E+02 -0.92906411444E+02  0.30733678866E+03  0.32612234067E+03  0.00000000000E+00 0. -1.
          1    1    1    2  502    0  0.99696824465E+02 -0.19928902667E+02  0.23808436493E+04  0.23830134494E+04  0.00000000000E+00 0. -1.
         22    1    3    3    0    0 -0.15353055634E+03  0.10836842543E+03  0.13695672512E+04  0.13824000155E+04  0.00000000000E+00 0. -1.
         22    1    3    3    0    0 -0.33351244253E+01  0.44668886793E+01 -0.75325237423E+00  0.56252589758E+01  0.00000000000E+00 0. -1.
</event>
<event>
 7    1  0.6188600E-006  0.5968254E+02  0.7818608E-02  0.1511033E+00
          2   -1    0    0  502    0  0.00000000000E+00  0.00000000000E+00  0.35161312435E+03  0.35161312435E+03  0.00000000000E+00 0. -1.
          1   -1    0    0  501    0 -0.00000000000E+00 -0.00000000000E+00 -0.14216300857E+03  0.14216300857E+03  0.00000000000E+00 0. -1.
         25    2    1    2    0    0 -0.22710293516E+02  0.38487552756E+02  0.80235561397E+02  0.15515832701E+03  0.12505723482E+03 0.  0.
          2    1    1    2  501    0  0.13629923403E+02  0.22493132634E+02 -0.98890277135E+02  0.10232791769E+03  0.00000000000E+00 0. -1.
          1    1    1    2  502    0  0.90803701123E+01 -0.60980685390E+02  0.22810483151E+03  0.23628988821E+03  0.00000000000E+00 0. -1.
         22    1    3    3    0    0 -0.11920530252E+02 -0.41722910222E+02  0.33408534929E+01  0.43520817788E+02  0.00000000000E+00 0.  1.
         22    1    3    3    0    0 -0.10789763264E+02  0.80210462978E+02  0.76894707905E+02  0.11163750923E+03  0.00000000000E+00 0.  1.
</event>
<event>
 7    1  0.6188600E-006  0.1219736E+03  0.7818608E-02  0.1351573E+00
          2   -1    0    0  502    0  0.00000000000E+00  0.00000000000E+00  0.10467835042E+03  0.10467835042E+03  0.00000000000E+00 0. -1.
          1   -1    0    0  501    0 -0.00000000000E+00 -0.00000000000E+00 -0.10197275247E+04  0.10197275247E+04  0.00000000000E+00 0. -1.
         25    2    1    2    0    0 -0.10043162465E+03  0.11647700053E+03 -0.31265425760E+03  0.37017758879E+03  0.12500143826E+03 0.  0.
          2    1    1    2  501    0  0.87506825663E+01 -0.42277767658E+02 -0.63131524792E+03  0.63278979633E+03  0.00000000000E+00 0. -1.
          1    1    1    2  502    0  0.91680942080E+02 -0.74199232872E+02  0.28920331223E+02  0.12143849002E+03  0.00000000000E+00 0. -1.
         22    1    3    3    0    0 -0.11050735333E+03  0.40870259323E+02 -0.22500211922E+03  0.25398465877E+03  0.00000000000E+00 0.  1.
         22    1    3    3    0    0  0.10075728685E+02  0.75606741208E+02 -0.87652138379E+02  0.11619293002E+03  0.00000000000E+00 0.  1.
</event>
<event>
 7    1  0.6188600E-006  0.1155085E+03  0.7818608E-02  0.1346048E+00
          2   -1    0    0  502    0  0.00000000000E+00  0.00000000000E+00  0.32964262395E+04  0.32964262395E+04  0.00000000000E+00 0. -1.
          1   -1    0    0  501    0 -0.00000000000E+00 -0.00000000000E+00 -0.23059470703E+04  0.23059470703E+04  0.00000000000E+00 0. -1.
         25    2    1    2    0    0 -0.11151047921E+03  0.14240330844E+02  0.32519233312E+03  0.36607815745E+03  0.12500315935E+03 0.  0.
          2    1    1    2  501    0  0.11058711663E+03  0.33545532422E+02 -0.22838495852E+04  0.22867714667E+04  0.00000000000E+00 0. -1.
          1    1    1    2  502    0  0.92336258177E+00 -0.47785863267E+02  0.29491364213E+04  0.29495236857E+04  0.00000000000E+00 0. -1.
         22    1    3    3    0    0 -0.10188814073E+03 -0.37231021237E+02  0.26473041822E+03  0.28609357997E+03  0.00000000000E+00 0. -1.
         22    1    3    3    0    0 -0.96223384760E+01  0.51471352081E+02  0.60461914892E+02  0.79984577483E+02  0.00000000000E+00 0. -1.
</event>
<event>
 7    1  0.6188600E-006  0.5122570E+02  0.7818608E-02  0.1473273E+00
          2   -1    0    0  502    0  0.00000000000E+00  0.00000000000E+00  0.11733519266E+04  0.11733519266E+04  0.00000000000E+00 0. -1.
          1   -1    0    0  501    0 -0.00000000000E+00 -0.00000000000E+00 -0.40265474146E+03  0.40265474146E+03  0.00000000000E+00 0. -1.
         25    2    1    2    0    0  0.32138654358E+02 -0.73242858747E+01 -0.94819160286E+02  0.16032022482E+03  0.12500145224E+03 0.  0.
          2    1    1    2  501    0 -0.43777890272E+02 -0.30770390429E+02 -0.27213096535E+03  0.27734199629E+03  0.00000000000E+00 0. -1.
          1    1    1    2  502    0  0.11639235914E+02  0.38094676304E+02  0.11376473108E+04  0.11383444469E+04  0.00000000000E+00 0. -1.
         22    1    3    3    0    0 -0.45033803347E+02  0.11576525707E+02 -0.18172187276E+02  0.49922818247E+02  0.00000000000E+00 0.  1.
         22    1    3    3    0    0  0.77172457705E+02 -0.18900811582E+02 -0.76646973010E+02  0.11039740657E+03  0.00000000000E+00 0.  1.
</event>
<event>
 7    1  0.6188600E-006  0.5042523E+02  0.7818608E-02  0.1495723E+00
          2   -1    0    0  502    0  0.00000000000E+00  0.00000000000E+00  0.11277290329E+04  0.11277290329E+04  0.00000000000E+00 0. -1.
          1   -1    0    0  501    0 -0.00000000000E+00 -0.00000000000E+00 -0.35397981009E+03  0.35397981009E+03  0.00000000000E+00 0. -1.
         25    2    1    2    0    0 -0.46932433990E+02  0.44850078287E+02  0.36153193183E+03  0.38800052194E+03  0.12499953766E+03 0.  0.
          2    1    1    2  501    0 -0.20691370846E+01 -0.34503310995E+02 -0.33903303409E+03  0.34079048989E+03  0.00000000000E+00 0. -1.
          1    1    1    2  502    0  0.49001571075E+02 -0.10346767293E+02  0.75125032504E+03  0.75291783113E+03  0.00000000000E+00 0. -1.
         22    1    3    3    0    0 -0.78513913337E+02  0.60124144533E+00  0.14662183526E+03  0.16632125136E+03  0.00000000000E+00 0. -1.
         22    1    3    3    0    0  0.31581479347E+02  0.44248836842E+02  0.21491009657E+03  0.22167927059E+03  0.00000000000E+00 0. -1.
</event>
<event>
 7    1  0.6188600E-006  0.2346683E+03  0.7818608E-02  0.1235050E+00
          2   -1    0    0  502    0  0.00000000000E+00  0.00000000000E+00  0.14488476534E+04  0.14488476534E+04  0.00000000000E+00 0. -1.
          1   -1    0    0  501    0 -0.00000000000E+00 -0.00000000000E+00 -0.14712733464E+03  0.14712733464E+03  0.00000000000E+00 0. -1.
         25    2    1    2    0    0  0.14247437347E+03  0.21699344289E+03  0.71354502919E+03  0.76951716701E+03  0.12500024118E+03 0.  0.
          2    1    1    2  501    0  0.17783121922E+02 -0.64177988169E+02 -0.90618473633E+02  0.11245782033E+03  0.00000000000E+00 0. -1.
          1    1    1    2  502    0 -0.16025749540E+03 -0.15281545472E+03  0.67879376323E+03  0.71400000073E+03  0.00000000000E+00 0. -1.
         22    1    3    3    0    0  0.19778858511E+02  0.97667146415E+01  0.21205772688E+03  0.21320195001E+03  0.00000000000E+00 0. -1.
         22    1    3    3    0    0  0.12269551496E+03  0.20722672825E+03  0.50148730231E+03  0.55631521700E+03  0.00000000000E+00 0. -1.
</event>
<event>
 7    1  0.6188600E-006  0.3274234E+02  0.7818608E-02  0.1639000E+00
          2   -1    0    0  502    0  0.00000000000E+00  0.00000000000E+00  0.13563027201E+04  0.13563027201E+04  0.00000000000E+00 0. -1.
          1   -1    0    0  501    0 -0.00000000000E+00 -0.00000000000E+00 -0.59496142146E+02  0.59496142146E+02  0.00000000000E+00 0. -1.
         25    2    1    2    0    0  0.12840398234E+02  0.39631557799E+02  0.30959468939E+03  0.33646614777E+03  0.12500024279E+03 0.  0.
          2    1    1    2  501    0 -0.20164507536E+02 -0.77809301940E+01 -0.43251474072E+02  0.48351217650E+02  0.00000000000E+00 0. -1.
          1    1    1    2  502    0  0.73241093025E+01 -0.31850627605E+02  0.10304633626E+04  0.10309814968E+04  0.00000000000E+00 0. -1.
         22    1    3    3    0    0  0.11062046468E+02  0.61661373393E+02  0.30800093023E+03  0.31430728096E+03  0.00000000000E+00 0.  1.
         22    1    3    3    0    0  0.17783517658E+01 -0.22029815593E+02  0.15937591553E+01  0.22158866810E+02  0.00000000000E+00 0.  1.
</event>
<event>
 7    1  0.6188600E-006  0.2301891E+03  0.7818608E-02  0.1325774E+00
          2   -1    0    0  502    0  0.00000000000E+00  0.00000000000E+00  0.18135429124E+04  0.18135429124E+04  0.00000000000E+00 0. -1.
          1   -1    0    0  501    0 -0.00000000000E+00 -0.00000000000E+00 -0.21958514254E+03  0.21958514254E+03  0.00000000000E+00 0. -1.
         25    2    1    2    0    0 -0.24449008489E+03 -0.19530227557E+02  0.39770402496E+03  0.48368321323E+03  0.12499651152E+03 0.  0.
          2    1    1    2  501    0  0.22432251201E+03  0.39837016170E+02 -0.10288860545E+03  0.24998728444E+03  0.00000000000E+00 0. -1.
          1    1    1    2  502    0  0.20167572878E+02 -0.20306788613E+02  0.12991423503E+04  0.12994575572E+04  0.00000000000E+00 0. -1.
         22    1    3    3    0    0 -0.19299748507E+03 -0.67905880465E+02  0.29902057313E+03  0.36231552686E+03  0.00000000000E+00 0. -1.
         22    1    3    3    0    0 -0.51492599812E+02  0.48375652908E+02  0.98683451830E+02  0.12136768637E+03  0.00000000000E+00 0. -1.
</event>
<event>
 7    1  0.6188600E-006  0.1153387E+03  0.7818608E-02  0.1335194E+00
          2   -1    0    0  502    0  0.00000000000E+00  0.00000000000E+00  0.20383863940E+03  0.20383863940E+03  0.00000000000E+00 0. -1.
          1   -1    0    0  501    0 -0.00000000000E+00 -0.00000000000E+00 -0.93911812935E+03  0.93911812935E+03  0.00000000000E+00 0. -1.
         25    2    1    2    0    0 -0.74027371580E+02 -0.10971951541E+03 -0.59043901302E+03  0.61786898689E+03  0.12500173222E+03 0.  0.
          2    1    1    2  501    0 -0.22786091809E+02  0.47385571673E+02 -0.31515019357E+03  0.31950624859E+03  0.00000000000E+00 0. -1.
          1    1    1    2  502    0  0.96813463389E+02  0.62333943742E+02  0.17030971664E+03  0.20558153326E+03  0.00000000000E+00 0. -1.
         22    1    3    3    0    0 -0.78085120667E+02 -0.92223027982E+02 -0.25748442197E+03  0.28443030872E+03  0.00000000000E+00 0. -1.
         22    1    3    3    0    0  0.40577490868E+01 -0.17496487433E+02 -0.33295459105E+03  0.33343867817E+03  0.00000000000E+00 0. -1.
</event>
<event>
 7    1  0.6188600E-006  0.1524442E+03  0.7818608E-02  0.1214356E+00
          2   -1    0    0  502    0  0.00000000000E+00  0.00000000000E+00  0.36671337073E+04  0.36671337073E+04  0.00000000000E+00 0. -1.
          1   -1    0    0  501    0 -0.00000000000E+00 -0.00000000000E+00 -0.26155964233E+04  0.26155964233E+04  0.00000000000E+00 0. -1.
         25    2    1    2    0    0  0.19796870863E+02 -0.16541448251E+03  0.18561203879E+03  0.27898437286E+03  0.12500633679E+03 0.  0.
          2    1    1    2  501    0 -0.12284861501E+03  0.90884759286E+02 -0.25654586641E+04  0.25700058324E+04  0.00000000000E+00 0. -1.
          1    1    1    2  502    0  0.10305174415E+03  0.74529723219E+02  0.34313839093E+04  0.34337399253E+04  0.00000000000E+00 0. -1.
         22    1    3    3    0    0  0.40192732323E+02 -0.14922056595E+02  0.89552447175E+02  0.99286274478E+02  0.00000000000E+00 0. -1.
         22    1    3    3    0    0 -0.20395861460E+02 -0.15049242591E+03  0.96059591613E+02  0.17969809838E+03  0.00000000000E+00 0. -1.
</event>
<event>
 7    1  0.6188600E-006  0.6875540E+02  0.7818608E-02  0.1442596E+00
          2   -1    0    0  502    0  0.00000000000E+00  0.00000000000E+00  0.60357259295E+03  0.60357259295E+03  0.00000000000E+00 0. -1.
          1   -1    0    0  501    0 -0.00000000000E+00 -0.00000000000E+00 -0.16701778818E+04  0.16701778818E+04  0.00000000000E+00 0. -1.
         25    2    1    2    0    0  0.52037001030E+02 -0.15845559089E+02  0.29814522445E+03  0.32783288659E+03  0.12499958179E+03 0.  0.
          2    1    1    2  501    0  0.12942810687E+01 -0.37087724109E+02 -0.16502643549E+04  0.16506815609E+04  0.00000000000E+00 0. -1.
          1    1    1    2  502    0 -0.53331282099E+02  0.52933283198E+02  0.28551384153E+03  0.29523602732E+03  0.00000000000E+00 0. -1.
         22    1    3    3    0    0  0.81127612611E+02 -0.23243292205E+02  0.11724199171E+03  0.14445630751E+03  0.00000000000E+00 0. -1.
         22    1    3    3    0    0 -0.29090611581E+02  0.73977331156E+01  0.18090323274E+03  0.18337657908E+03  0.00000000000E+00 0. -1.
</event>
<event>
 7    1  0.6188600E-006  0.6083998E+02  0.7818608E-02  0.1529598E+00
          2   -1    0    0  502    0  0.00000000000E+00  0.00000000000E+00  0.36915470696E+03  0.36915470696E+03  0.00000000000E+00 0. -1.
          1   -1    0    0  501    0 -0.00000000000E+00 -0.00000000000E+00 -0.50499343179E+03  0.50499343179E+03  0.00000000000E+00 0. -1.
         25    2    1    2    0    0  0.86985102416E+01 -0.39821489526E+02  0.12525852644E+03  0.18159375135E+03  0.12500070790E+03 0.  0.
          2    1    1    2  501    0 -0.55206884604E+00  0.61104956182E+02 -0.47425814571E+03  0.47817874192E+03  0.00000000000E+00 0. -1.
          1    1    1    2  502    0 -0.81464413955E+01 -0.21283466655E+02  0.21316089444E+03  0.21437564548E+03  0.00000000000E+00 0. -1.
         22    1    3    3    0    0  0.57530186132E+02 -0.99476366176E+01  0.10632325518E+03  0.12129844345E+03  0.00000000000E+00 0.  1.
         22    1    3    3    0    0 -0.48831675890E+02 -0.29873852908E+02  0.18935271262E+02  0.60295307907E+02  0.00000000000E+00 0.  1.
</event>
<event>
 7    1  0.6188600E-006  0.1398566E+03  0.7818608E-02  0.1250636E+00
          2   -1    0    0  502    0  0.00000000000E+00  0.00000000000E+00  0.12940648626E+04  0.12940648626E+04  0.00000000000E+00 0. -1.
          1   -1    0    0  501    0 -0.00000000000E+00 -0.00000000000E+00 -0.28908025373E+03  0.28908025373E+03  0.00000000000E+00 0. -1.
         25    2    1    2    0    0 -0.56693437821E+01 -0.22241181649E+03  0.46598841836E+02  0.25941102637E+03  0.12499388372E+03 0.  0.
          2    1    1    2  501    0  0.11967747565E+02  0.12716294884E+03 -0.15805959136E+03  0.20321534627E+03  0.00000000000E+00 0. -1.
          1    1    1    2  502    0 -0.62984037826E+01  0.95248867648E+02  0.11164453584E+04  0.11205187437E+04  0.00000000000E+00 0. -1.
         22    1    3    3    0    0  0.16015578392E+02 -0.18427727245E+03 -0.12976528463E+02  0.18542654120E+03  0.00000000000E+00 0.  1.
         22    1    3    3    0    0 -0.21684922174E+02 -0.38134544046E+02  0.59575370299E+02  0.73984485168E+02  0.00000000000E+00 0.  1.
</event>
<event>
 7    1  0.6188600E-006  0.1520085E+03  0.7818608E-02  0.1317139E+00
          2   -1    0    0  502    0  0.00000000000E+00  0.00000000000E+00  0.15076063280E+04  0.15076063280E+04  0.00000000000E+00 0. -1.
          1   -1    0    0  501    0 -0.00000000000E+00 -0.00000000000E+00 -0.77308386824E+02  0.77308386824E+02  0.00000000000E+00 0. -1.
         25    2    1    2    0    0 -0.17049116268E+03 -0.70715400588E+02  0.26140347177E+03  0.34354650060E+03  0.12499807434E+03 0.  0.
          2    1    1    2  501    0  0.25195263051E+02  0.39447310450E+02 -0.14248078212E+02  0.48927490378E+02  0.00000000000E+00 0. -1.
          1    1    1    2  502    0  0.14529589962E+03  0.31268090139E+02  0.11831425476E+04  0.11924407238E+04  0.00000000000E+00 0. -1.
         22    1    3    3    0    0 -0.16877850301E+03 -0.67062448894E+02  0.27489172984E+03  0.32946778031E+03  0.00000000000E+00 0.  1.
         22    1    3    3    0    0 -0.17126596699E+01 -0.36529516940E+01 -0.13488258068E+02  0.14078720287E+02  0.00000000000E+00 0.  1.
</event>
<event>
 7    1  0.6188600E-006  0.9977803E+02  0.7818608E-02  0.1336572E+00
          2   -1    0    0  502    0  0.00000000000E+00  0.00000000000E+00  0.28781161750E+03  0.28781161750E+03  0.00000000000E+00 0. -1.
          1   -1    0    0  501    0 -0.00000000000E+00 -0.00000000000E+00 -0.16971868236E+04  0.16971868236E+04  0.00000000000E+00 0. -1.
         25    2    1    2    0    0  0.10024396155E+03  0.12272529511E+03 -0.46896532515E+03  0.51054860609E+03  0.12498421138E+03 0.  0.
          2    1    1    2  501    0 -0.41396270617E+02 -0.43505588153E+02 -0.11975336310E+04  0.11990384418E+04  0.00000000000E+00 0. -1.
          1    1    1    2  502    0 -0.58847690934E+02 -0.79219706961E+02  0.25712375005E+03  0.27541139327E+03  0.00000000000E+00 0. -1.
         22    1    3    3    0    0  0.10285267229E+03  0.14438209717E+03 -0.38593447505E+03  0.42470022512E+03  0.00000000000E+00 0.  1.
         22    1    3    3    0    0 -0.26087107422E+01 -0.21656802056E+02 -0.83030850094E+02  0.85848380965E+02  0.00000000000E+00 0.  1.
</event>
<event>
 7    1  0.6188600E-006  0.1037464E+03  0.7818608E-02  0.1343000E+00
          2   -1    0    0  502    0  0.00000000000E+00  0.00000000000E+00  0.17005889138E+04  0.17005889138E+04  0.00000000000E+00 0. -1.
          1   -1    0    0  501    0 -0.00000000000E+00 -0.00000000000E+00 -0.44693459688E+03  0.44693459688E+03  0.00000000000E+00 0. -1.
         25    2    1    2    0    0  0.14206845576E+00 -0.10092754402E+03 -0.26168530320E+02  0.16277662443E+03  0.12500019262E+03 0.  0.
          2    1    1    2  501    0  0.53564876203E+02  0.90943511103E+02 -0.34409093547E+03  0.35991455937E+03  0.00000000000E+00 0. -1.
          1    1    1    2  502    0 -0.53706944659E+02  0.99840329129E+01  0.16239137827E+04  0.16248323268E+04  0.00000000000E+00 0. -1.
         22    1    3    3    0    0  0.29713230912E+02 -0.24654335143E+01 -0.49099813575E+02  0.57443416913E+02  0.00000000000E+00 0.  1.
         22    1    3    3    0    0 -0.29571162456E+02 -0.98462110502E+02  0.22931283254E+02  0.10533320751E+03  0.00000000000E+00 0.  1.
</event>
<event>
 7    1  0.6188600E-006  0.7160027E+02  0.7818608E-02  0.1394981E+00
          2   -1    0    0  502    0  0.00000000000E+00  0.00000000000E+00  0.11675228129E+04  0.11675228129E+04  0.00000000000E+00 0. -1.
          1   -1    0    0  501    0 -0.00000000000E+00 -0.00000000000E+00 -0.16836397299E+03  0.16836397299E+03  0.00000000000E+00 0. -1.
         25    2    1    2    0    0  0.15780729462E+02  0.71879060608E+02  0.43693186852E+02  0.15148083347E+03  0.12498686954E+03 0.  0.
          2    1    1    2  501    0  0.42252361635E+02 -0.29327510720E+02 -0.10741403652E+03  0.11909298967E+03  0.00000000000E+00 0. -1.
          1    1    1    2  502    0 -0.58033091096E+02 -0.42551549888E+02  0.10628796896E+04  0.10653129628E+04  0.00000000000E+00 0. -1.
         22    1    3    3    0    0  0.48554698517E+01 -0.31835027615E+02  0.33863068968E+02  0.46730632466E+02  0.00000000000E+00 0.  1.
         22    1    3    3    0    0  0.10925259610E+02  0.10371408822E+03  0.98301178840E+01  0.10475020101E+03  0.00000000000E+00 0.  1.
</event>
<event>
 7    1  0.6188600E-006  0.4252415E+02  0.7818608E-02  0.1572767E+00
          2   -1    0    0  502    0  0.00000000000E+00  0.00000000000E+00  0.35620640246E+03  0.35620640246E+03  0.00000000000E+00 0. -1.
          1   -1    0    0  501    0 -0.00000000000E+00 -0.00000000000E+00 -0.18367940240E+03  0.18367940240E+03  0.00000000000E+00 0. -1.
         25    2    1    2    0    0  0.29895984942E+02  0.37647493185E+02  0.71916208205E+02  0.15200997811E+03  0.12499595507E+03 0.  0.
          2    1    1    2  501    0 -0.55969652122E+01 -0.42184856545E+02 -0.13983295904E+03  0.14616478569E+03  0.00000000000E+00 0. -1.
          1    1    1    2  502    0 -0.24299019730E+02  0.45373633597E+01  0.24044375090E+03  0.24171104106E+03  0.00000000000E+00 0. -1.
         22    1    3    3    0    0  0.53062946231E+02  0.73315486524E+02  0.40597761970E+02  0.99191809661E+02  0.00000000000E+00 0.  1.
         22    1    3    3    0    0 -0.23166961289E+02 -0.35667993339E+02  0.31318446235E+02  0.52818168453E+02  0.00000000000E+00 0.  1.
</event>
<event>
 7    1  0.6188600E-006  0.7137703E+02  0.7818608E-02  0.1383871E+00
          2   -1    0    0  502    0  0.00000000000E+00  0.00000000000E+00  0.36386442584E+03  0.36386442584E+03  0.00000000000E+00 0. -1.
          1   -1    0    0  501    0 -0.00000000000E+00 -0.00000000000E+00 -0.24223572275E+03  0.24223572275E+03  0.00000000000E+00 0. -1.
         25    2    1    2    0    0 -0.39488458090E+02  0.98294822038E+02 -0.69099441246E+02  0.17782444523E+03  0.12500236070E+03 0.  0.
          2    1    1    2  501    0 -0.15711944716E+02 -0.54183714664E+02 -0.10770805195E+03  0.12158850520E+03  0.00000000000E+00 0. -1.
          1    1    1    2  502    0  0.55200402806E+02 -0.44111107374E+02  0.29843619628E+03  0.30668719816E+03  0.00000000000E+00 0. -1.
         22    1    3    3    0    0 -0.63288281849E+02  0.10301321100E+02 -0.57142604076E+02  0.85888305586E+02  0.00000000000E+00 0.  1.
         22    1    3    3    0    0  0.23799823760E+02  0.87993500938E+02 -0.11956837170E+02  0.91936139648E+02  0.00000000000E+00 0.  1.
</event>
<event>
 7    1  0.6188600E-006  0.6557557E+02  0.7818608E-02  0.1427336E+00
          2   -1    0    0  502    0  0.00000000000E+00  0.00000000000E+00  0.24075780505E+03  0.24075780505E+03  0.00000000000E+00 0. -1.
          1   -1    0    0  501    0 -0.00000000000E+00 -0.00000000000E+00 -0.17116228292E+04  0.17116228292E+04  0.00000000000E+00 0. -1.
         25    2    1    2    0    0 -0.33206950365E+02 -0.69289913187E+02 -0.43856135851E+02  0.15313256804E+03  0.12498971606E+03 0.  0.
          2    1    1    2  501    0 -0.23750764980E+02  0.36617616105E+02 -0.16070314328E+04  0.16076240153E+04  0.00000000000E+00 0. -1.
          1    1    1    2  502    0  0.56957715345E+02  0.32672297083E+02  0.18002254452E+03  0.19162405086E+03  0.00000000000E+00 0. -1.
         22    1    3    3    0    0  0.11500673829E+02 -0.74002998506E+02  0.17655407273E+02  0.76944283039E+02  0.00000000000E+00 0. -1.
         22    1    3    3    0    0 -0.44707624194E+02  0.47130853182E+01 -0.61511543124E+02  0.76188285004E+02  0.00000000000E+00 0. -1.
</event>
<event>
 7    1  0.6188600E-006  0.8836948E+02  0.7818608E-02  0.1375814E+00
          2   -1    0    0  502    0  0.00000000000E+00  0.00000000000E+00  0.13626219521E+04  0.13626219521E+04  0.00000000000E+00 0. -1.
          1   -1    0    0  501    0 -0.00000000000E+00 -0.00000000000E+00 -0.21948445966E+04  0.21948445966E+04  0.00000000000E+00 0. -1.
         25    2    1    2    0    0 -0.47378356012E+02  0.14522510940E+02 -0.23738180969E+01  0.13448822026E+03  0.12500333769E+03 0.  0.
          2    1    1    2  501    0  0.66283638247E+02 -0.59363412521E+02 -0.21250255801E+04  0.21268876913E+04  0.00000000000E+00 0. -1.
          1    1    1    2  502    0 -0.18905282235E+02  0.44840901581E+02  0.12951767538E+04  0.12960906371E+04  0.00000000000E+00 0. -1.
         22    1    3    3    0    0  0.96842809958E+01 -0.22017587065E+02  0.45538612803E+02  0.51500725185E+02  0.00000000000E+00 0. -1.
         22    1    3    3    0    0 -0.57062637008E+02  0.36540098005E+02 -0.47912430900E+02  0.82987495078E+02  0.00000000000E+00 0. -1.
</event>
<event>
 7    1  0.6188600E-006  0.8306951E+02  0.7818608E-02  0.1390844E+00
          2   -1    0    0  502    0  0.00000000000E+00  0.00000000000E+00  0.30149806926E+02  0.30149806926E+02  0.00000000000E+00 0. -1.
          1   -1    0    0  501    0 -0.00000000000E+00 -0.00000000000E+00 -0.33782092440E+04  0.33782092440E+04  0.00000000000E+00 0. -1.
         25    2    1    2    0    0  0.44834119123E+02  0.73246564648E+01 -0.67639638798E+03  0.68934714162E+03  0.12499463653E+03 0.  0.
          2    1    1    2  501    0  0.42371143593E+02 -0.17449608824E+02 -0.26130519492E+04  0.26134537096E+04  0.00000000000E+00 0. -1.
          1    1    1    2  502    0 -0.87205262716E+02  0.10124952359E+02 -0.58611099874E+02  0.10555819975E+03  0.00000000000E+00 0. -1.
         22    1    3    3    0    0  0.80701357569E+02  0.32404596513E+02 -0.50607078356E+03  0.51348846624E+03  0.00000000000E+00 0. -1.
         22    1    3    3    0    0 -0.35867238445E+02 -0.25079940048E+02 -0.17032560441E+03  0.17585867538E+03  0.00000000000E+00 0. -1.
</event>
<event>
 7    1  0.6188600E-006  0.2042750E+03  0.7818608E-02  0.1322498E+00
          2   -1    0    0  502    0  0.00000000000E+00  0.00000000000E+00  0.69018981225E+03  0.69018981225E+03  0.00000000000E+00 0. -1.
          1   -1    0    0  501    0 -0.00000000000E+00 -0.00000000000E+00 -0.24754144921E+04  0.24754144921E+04  0.00000000000E+00 0. -1.
         25    2    1    2    0    0 -0.17457811418E+02 -0.20685688109E+03  0.81488820785E+02  0.25565750711E+03  0.12500315435E+03 0.  0.
          2    1    1    2  501    0  0.33023500885E+02  0.34400173530E+01 -0.23682613925E+04  0.23684941225E+04  0.00000000000E+00 0. -1.
          1    1    1    2  502    0 -0.15565689467E+02  0.20341686373E+03  0.50154789185E+03  0.54145267471E+03  0.00000000000E+00 0. -1.
         22    1    3    3    0    0  0.69656027574E+01 -0.16844648241E+03  0.11059600764E+03  0.20162890161E+03  0.00000000000E+00 0. -1.
         22    1    3    3    0    0 -0.24423414175E+02 -0.38410398679E+02 -0.29107186853E+02  0.54028605508E+02  0.00000000000E+00 0. -1.
</event>
<event>
 7    1  0.6188600E-006  0.1653823E+03  0.7818608E-02  0.1213732E+00
          2   -1    0    0  502    0  0.00000000000E+00  0.00000000000E+00  0.35999092891E+04  0.35999092891E+04  0.00000000000E+00 0. -1.
          1   -1    0    0  501    0 -0.00000000000E+00 -0.00000000000E+00 -0.33587014048E+03  0.33587014048E+03  0.00000000000E+00 0. -1.
         25    2    1    2    0    0  0.92356407071E+02 -0.10883124763E+02  0.20350384637E+03  0.25629194227E+03  0.12499438329E+03 0.  0.
          2    1    1    2  501    0 -0.14877906791E+03 -0.92762111757E+02 -0.28351922713E+03  0.33335142504E+03  0.00000000000E+00 0. -1.
          1    1    1    2  502    0  0.56422660835E+02  0.10364523652E+03  0.33440545294E+04  0.33461360623E+04  0.00000000000E+00 0. -1.
         22    1    3    3    0    0  0.19098991967E+02 -0.21144590795E+02 -0.10109138605E+02  0.30233423514E+02  0.00000000000E+00 0. -1.
         22    1    3    3    0    0  0.73257415104E+02  0.10261466032E+02  0.21361298497E+03  0.22605851876E+03  0.00000000000E+00 0. -1.
</event>
<event>
 7    1  0.6188600E-006  0.1327336E+03  0.7818608E-02  0.1291169E+00
          2   -1    0    0  502    0  0.00000000000E+00  0.00000000000E+00  0.95240587602E+03  0.95240587602E+03  0.00000000000E+00 0. -1.
          1   -1    0    0  501    0 -0.00000000000E+00 -0.00000000000E+00 -0.63350137001E+03  0.63350137001E+03  0.00000000000E+00 0. -1.
         25    2    1    2    0    0  0.74547726035E+02 -0.11324031027E+03  0.19264044791E+02  0.18540952759E+03  0.12499943270E+03 0.  0.
          2    1    1    2  501    0 -0.96193310211E+01  0.13343919532E+03 -0.54090596968E+03  0.55720536467E+03  0.00000000000E+00 0. -1.
          1    1    1    2  502    0 -0.64928395014E+02 -0.20198885049E+02  0.84054643090E+03  0.84329235377E+03  0.00000000000E+00 0. -1.
         22    1    3    3    0    0  0.15341084462E+02 -0.39223719426E+02  0.67112523782E+02  0.79233451815E+02  0.00000000000E+00 0.  1.
         22    1    3    3    0    0  0.59206641573E+02 -0.74016590842E+02 -0.47848478991E+02  0.10617607578E+03  0.00000000000E+00 0.  1.
</event>
<event>
 7    1  0.6188600E-006  0.8147435E+02  0.7818608E-02  0.1418833E+00
          2   -1    0    0  502    0  0.00000000000E+00  0.00000000000E+00  0.13271356646E+04  0.13271356646E+04  0.00000000000E+00 0. -1.
          1   -1    0    0  501    0 -0.00000000000E+00 -0.00000000000E+00 -0.46572440833E+03  0.46572440833E+03  0.00000000000E+00 0. -1.
         25    2    1    2    0    0  0.10942893349E+03  0.18640167115E+02 -0.52775423018E+02  0.17530467084E+03  0.12499734010E+03 0.  0.
          2    1    1    2  501    0 -0.34935831694E+02  0.13605878763E+02 -0.34937911755E+03  0.35138497414E+03  0.00000000000E+00 0. -1.
          1    1    1    2  502    0 -0.74493101792E+02 -0.32246045879E+02  0.12635657969E+04  0.12661704280E+04  0.00000000000E+00 0. -1.
         22    1    3    3    0    0 -0.43530768077E+01  0.18246225927E+02  0.29453136779E+02  0.34919354295E+02  0.00000000000E+00 0. -1.
         22    1    3    3    0    0  0.11378201029E+03  0.39394118842E+00 -0.82228559797E+02  0.14038531655E+03  0.00000000000E+00 0. -1.
</event>
<event>
 7    1  0.6188600E-006  0.2650365E+02  0.7818608E-02  0.1645990E+00
          2   -1    0    0  502    0  0.00000000000E+00  0.00000000000E+00  0.36237624806E+03  0.36237624806E+03  0.00000000000E+00 0. -1.
          1   -1    0    0  501    0 -0.00000000000E+00 -0.00000000000E+00 -0.74315622610E+03  0.74315622610E+03  0.00000000000E+00 0. -1.
         25    2    1    2    0    0  0.42658729125E+02  0.66885854997E+01  0.18137296045E+03  0.22445761421E+03  0.12498226053E+03 0.  0.
          2    1    1    2  501    0 -0.24091373356E+02  0.11020156524E+02 -0.72033667985E+03  0.72082367501E+03  0.00000000000E+00 0. -1.
          1    1    1    2  502    0 -0.18567355769E+02 -0.17708742023E+02  0.15818374136E+03  0.16025118494E+03  0.00000000000E+00 0. -1.
         22    1    3    3    0    0  0.44088360480E+02  0.58700363013E+02  0.69573381638E+02  0.10114332198E+03  0.00000000000E+00 0. -1.
         22    1    3    3    0    0 -0.14296313553E+01 -0.52011777514E+02  0.11179957881E+03  0.12331429223E+03  0.00000000000E+00 0. -1.
</event>
<event>
 7    1  0.6188600E-006  0.3532985E+02  0.7818608E-02  0.1589406E+00
          2   -1    0    0  502    0  0.00000000000E+00  0.00000000000E+00  0.11949283147E+04  0.11949283147E+04  0.00000000000E+00 0. -1.
          1   -1    0    0  501    0 -0.00000000000E+00 -0.00000000000E+00 -0.33409823648E+03  0.33409823648E+03  0.00000000000E+00 0. -1.
         25    2    1    2    0    0  0.25123596761E+02  0.41306019697E+02  0.11692515553E+03  0.17785903214E+03  0.12499984376E+03 0.  0.
          2    1    1    2  501    0  0.10426433305E+01 -0.35277660051E+02 -0.30243288744E+03  0.30448522429E+03  0.00000000000E+00 0. -1.
          1    1    1    2  502    0 -0.26166240092E+02 -0.60283596461E+01  0.10463378101E+04  0.10466822947E+04  0.00000000000E+00 0. -1.
         22    1    3    3    0    0 -0.67359980488E+01  0.33707793942E+02  0.13578204214E+03  0.14006552755E+03  0.00000000000E+00 0. -1.
         22    1    3    3    0    0  0.31859594810E+02  0.75982257552E+01 -0.18856886607E+02  0.37793504582E+02  0.00000000000E+00 0. -1.
</event>
<event>
 7    1  0.6188600E-006  0.4833748E+02  0.7818608E-02  0.1482628E+00
          2   -1    0    0  502    0  0.00000000000E+00  0.00000000000E+00  0.10647082861E+04  0.10647082861E+04  0.00000000000E+00 0. -1.
          1   -1    0    0  501    0 -0.00000000000E+00 -0.00000000000E+00 -0.12103332536E+03  0.12103332536E+03  0.00000000000E+00 0. -1.
         25    2    1    2    0    0 -0.52777423623E+01  0.10661860363E+02  0.22750825983E+03  0.25986016617E+03  0.12500307131E+03 0.  0.
          2    1    1    2  501    0  0.29241146231E+01  0.39397965548E+02 -0.10034051921E+03  0.10783770181E+03  0.00000000000E+00 0. -1.
          1    1    1    2  502    0  0.23536277391E+01 -0.50059825911E+02  0.81650722016E+03  0.81804374352E+03  0.00000000000E+00 0. -1.
         22    1    3    3    0    0 -0.43839964546E+02 -0.33742415985E+02  0.16503225443E+03  0.17405785857E+03  0.00000000000E+00 0. -1.
         22    1    3    3    0    0  0.38562222184E+02  0.44404276348E+02  0.62476005399E+02  0.85802307593E+02  0.00000000000E+00 0. -1.
</event>
<event>
 7    1  0.6188600E-006  0.5720330E+02  0.7818608E-02  0.1430757E+00
          2   -1    0    0  502    0  0.00000000000E+00  0.00000000000E+00  0.81582518101E+02  0.81582518101E+02  0.00000000000E+00 0. -1.
          1   -1    0    0  501    0 -0.00000000000E+00 -0.00000000000E+00 -0.81527293162E+03  0.81527293162E+03  0.00000000000E+00 0. -1.
         25    2    1    2    0    0  0.35639121235E+02  0.81924829296E+02 -0.16833621275E+03  0.22791303986E+03  0.12500179437E+03 0.  0.
          2    1    1    2  501    0  0.83193656851E+01 -0.48036144725E+02 -0.60100203349E+03  0.60297605865E+03  0.00000000000E+00 0. -1.
          1    1    1    2  502    0 -0.43958486920E+02 -0.33888684571E+02  0.35647832725E+02  0.65966351212E+02  0.00000000000E+00 0. -1.
         22    1    3    3    0    0  0.30603222980E+02  0.65726916496E+02 -0.18826471119E+03  0.20174287172E+03  0.00000000000E+00 0. -1.
         22    1    3    3    0    0  0.50358982546E+01  0.16197912801E+02  0.19928498441E+02  0.26170168140E+02  0.00000000000E+00 0. -1.
</event>
<event>
 7    1  0.6188600E-006  0.2580166E+02  0.7818608E-02  0.1682374E+00
          2   -1    0    0  502    0  0.00000000000E+00  0.00000000000E+00  0.17803593433E+04  0.17803593433E+04  0.00000000000E+00 0. -1.
          1   -1    0    0  501    0 -0.00000000000E+00 -0.00000000000E+00 -0.15607925590E+04  0.15607925590E+04  0.00000000000E+00 0. -1.
         25    2    1    2    0    0 -0.43988475099E+02  0.16435355706E+01  0.95219580271E+03  0.96137381614E+03  0.12500032201E+03 0.  0.
          2    1    1    2  501    0  0.20383236534E+02  0.69587708210E+01 -0.15559373954E+04  0.15560864627E+04  0.00000000000E+00 0. -1.
          1    1    1    2  502    0  0.23605238565E+02 -0.86023063916E+01  0.82330837704E+03  0.82369162352E+03  0.00000000000E+00 0. -1.
         22    1    3    3    0    0 -0.74263161859E+02 -0.28025349880E+02  0.41598819606E+03  0.42349334907E+03  0.00000000000E+00 0.  1.
         22    1    3    3    0    0  0.30274686760E+02  0.29668885450E+02  0.53620760666E+03  0.53788046707E+03  0.00000000000E+00 0.  1.
</event>
<event>
 7    1  0.6634380E-006  0.1646855E+03  0.7818608E-02  0.1295508E+00
          2   -1    0    0  502    0  0.00000000000E+00  0.00000000000E+00  0.15279302156E+04  0.15279302156E+04  0.00000000000E+00 0. -1.
          1   -1    0    0  501    0 -0.00000000000E+00 -0.00000000000E+00 -0.92806878411E+03  0.92806878411E+03  0.00000000000E+00 0. -1.
         25    2    1    2    0    0  0.13069616250E+03 -0.19389477348E+02 -0.25891221078E+03  0.31641895514E+03  0.12501193367E+03 0.  0.
          2    1    1    2  501    0  0.19894268481E+02 -0.48729624394E+02 -0.63475519701E+03  0.63693368441E+03  0.00000000000E+00 0. -1.
          1    1    1    2  502    0 -0.15059043098E+03  0.68119101742E+02  0.14935288393E+04  0.15026463602E+04  0.00000000000E+00 0. -1.
         22    1    3    3    0    0  0.91685510290E+02  0.48291855074E+02 -0.14125682758E+03  0.17519083139E+03  0.00000000000E+00 0. -1.
         22    1    3    3    0    0  0.39010652206E+02 -0.67681332423E+02 -0.11765538319E+03  0.14122812375E+03  0.00000000000E+00 0. -1.
</event>
<event>
 7    1  0.6188600E-006  0.3658470E+02  0.7818608E-02  0.1540508E+00
          2   -1    0    0  502    0  0.00000000000E+00  0.00000000000E+00  0.21809143530E+04  0.21809143530E+04  0.00000000000E+00 0. -1.
          1   -1    0    0  501    0 -0.00000000000E+00 -0.00000000000E+00 -0.76171460366E+03  0.76171460366E+03  0.00000000000E+00 0. -1.
         25    2    1    2    0    0  0.15959835308E+02 -0.40529442319E+02  0.27310434169E+03  0.30349058703E+03  0.12499281151E+03 0.  0.
          2    1    1    2  501    0 -0.34196643696E+02  0.86904401203E+01 -0.74592659451E+03  0.74676061666E+03  0.00000000000E+00 0. -1.
          1    1    1    2  502    0  0.18236808388E+02  0.31839002199E+02  0.18920220022E+04  0.18923777530E+04  0.00000000000E+00 0. -1.
         22    1    3    3    0    0 -0.99053654678E+01 -0.82453917763E+02  0.17570513268E+03  0.19434263163E+03  0.00000000000E+00 0.  1.
         22    1    3    3    0    0  0.25865200776E+02  0.41924475444E+02  0.97399209003E+02  0.10914795539E+03  0.00000000000E+00 0.  1.
</event>
<event>
 7    1  0.6188600E-006  0.6531132E+02  0.7818608E-02  0.1387869E+00
          2   -1    0    0  502    0  0.00000000000E+00  0.00000000000E+00  0.48467252624E+03  0.48467252624E+03  0.00000000000E+00 0. -1.
          1   -1    0    0  501    0 -0.00000000000E+00 -0.00000000000E+00 -0.58700149289E+02  0.58700149289E+02  0.00000000000E+00 0. -1.
         25    2    1    2    0    0 -0.13506074170E+02  0.31951978578E+02  0.24843989271E+03  0.28026937181E+03  0.12500079004E+03 0.  0.
          2    1    1    2  501    0 -0.39776699391E+02 -0.58866138860E+02 -0.48399306399E+01  0.71209781964E+02  0.00000000000E+00 0. -1.
          1    1    1    2  502    0  0.53282773561E+02  0.26914160282E+02  0.18237241488E+03  0.19189352175E+03  0.00000000000E+00 0. -1.
         22    1    3    3    0    0  0.35543820727E+02 -0.32686564618E+02  0.83704555858E+02  0.96634504033E+02  0.00000000000E+00 0.  1.
         22    1    3    3    0    0 -0.49049894897E+02  0.64638543196E+02  0.16473533686E+03  0.18363486778E+03  0.00000000000E+00 0.  1.
</event>
<event>
 7    1  0.6188600E-006  0.5397486E+02  0.7818608E-02  0.1457267E+00
          2   -1    0    0  502    0  0.00000000000E+00  0.00000000000E+00  0.30730441514E+04  0.30730441514E+04  0.00000000000E+00 0. -1.
          1   -1    0    0  501    0 -0.00000000000E+00 -0.00000000000E+00 -0.37081158462E+03  0.37081158462E+03  0.00000000000E+00 0. -1.
         25    2    1    2    0    0  0.64765920949E+02  0.66993797552E+02  0.36815986451E+02  0.16019841404E+03  0.12500128630E+03 0.  0.
          2    1    1    2  501    0 -0.28659472441E+02 -0.44710407875E+02 -0.30668685674E+03  0.31125104663E+03  0.00000000000E+00 0. -1.
          1    1    1    2  502    0 -0.36106448508E+02 -0.22283389677E+02  0.29721034371E+04  0.29724062753E+04  0.00000000000E+00 0. -1.
         22    1    3    3    0    0 -0.22481457604E+02 -0.19330173846E+02  0.21254805730E+02  0.36480656840E+02  0.00000000000E+00 0.  1.
         22    1    3    3    0    0  0.87247378553E+02  0.86323971398E+02  0.15561180721E+02  0.12371775720E+03  0.00000000000E+00 0.  1.
</event>
<event>
 7    1  0.6188600E-006  0.4604674E+02  0.7818608E-02  0.1486044E+00
          2   -1    0    0  502    0  0.00000000000E+00  0.00000000000E+00  0.56334507993E+03  0.56334507993E+03  0.00000000000E+00 0. -1.
          1   -1    0    0  501    0 -0.00000000000E+00 -0.00000000000E+00 -0.64420011781E+03  0.64420011781E+03  0.00000000000E+00 0. -1.
         25    2    1    2    0    0 -0.33297535607E+02 -0.41677343753E+01  0.27510932665E+02  0.13231970696E+03  0.12500223017E+03 0.  0.
          2    1    1    2  501    0  0.19301392634E+02  0.42160686730E+02 -0.59003677222E+03  0.59185594517E+03  0.00000000000E+00 0. -1.
          1    1    1    2  502    0  0.13996142974E+02 -0.37992952355E+02  0.48167080167E+03  0.48336954561E+03  0.00000000000E+00 0. -1.
         22    1    3    3    0    0 -0.17114586445E+02 -0.51602861573E+02  0.53143051664E+02  0.76025971430E+02  0.00000000000E+00 0.  1.
         22    1    3    3    0    0 -0.16182949163E+02  0.47435127198E+02 -0.25632118999E+02  0.56293735533E+02  0.00000000000E+00 0.  1.
</event>
<event>
 7    1  0.6188600E-006  0.4742359E+02  0.7818608E-02  0.1493451E+00
          2   -1    0    0  502    0  0.00000000000E+00  0.00000000000E+00  0.39125760967E+03  0.39125760967E+03  0.00000000000E+00 0. -1.
          1   -1    0    0  501    0 -0.00000000000E+00 -0.00000000000E+00 -0.47897837350E+03  0.47897837350E+03  0.00000000000E+00 0. -1.
         25    2    1    2    0    0 -0.73863470221E+02  0.36004035113E+02  0.65288010632E+02  0.16321912058E+03  0.12500341680E+03 0.  0.
          2    1    1    2  501    0  0.29787523112E+02 -0.22509061208E+02 -0.42727544623E+03  0.42890355713E+03  0.00000000000E+00 0. -1.
          1    1    1    2  502    0  0.44075947109E+02 -0.13494973905E+02  0.27426667177E+03  0.27811330547E+03  0.00000000000E+00 0. -1.
         22    1    3    3    0    0 -0.90131866844E+02  0.38738784043E+02  0.23259971456E+01  0.98131835164E+02  0.00000000000E+00 0. -1.
         22    1    3    3    0    0  0.16268396623E+02 -0.27347489298E+01  0.62962013487E+02  0.65087285415E+02  0.00000000000E+00 0. -1.
</event>
<event>
 7    1  0.6188600E-006  0.1676340E+03  0.7818608E-02  0.1251265E+00
          2   -1    0    0  502    0  0.00000000000E+00  0.00000000000E+00  0.20484777614E+04  0.20484777614E+04  0.00000000000E+00 0. -1.
          1   -1    0    0  501    0 -0.00000000000E+00 -0.00000000000E+00 -0.15136513211E+03  0.15136513211E+03  0.00000000000E+00 0. -1.
         25    2    1    2    0    0  0.22742190618E+03 -0.70783760713E+02  0.30514026569E+03  0.40677542563E+03  0.12499840383E+03 0.  0.
          2    1    1    2  501    0 -0.67979347230E+02  0.40523330306E+02 -0.80413488833E+02  0.11282579995E+03  0.00000000000E+00 0. -1.
          1    1    1    2  502    0 -0.15944255895E+03  0.30260430407E+02  0.16723858525E+04  0.16802416680E+04  0.00000000000E+00 0. -1.
         22    1    3    3    0    0  0.13259324477E+03 -0.10119924805E+03  0.21765522328E+03  0.27421898655E+03  0.00000000000E+00 0.  1.
         22    1    3    3    0    0  0.94828661414E+02  0.30415487339E+02  0.87485042404E+02  0.13255643907E+03  0.00000000000E+00 0.  1.
</event>
<event>
 7    1  0.6188600E-006  0.1049108E+03  0.7818608E-02  0.1336360E+00
          2   -1    0    0  502    0  0.00000000000E+00  0.00000000000E+00  0.14800093971E+04  0.14800093971E+04  0.00000000000E+00 0. -1.
          1   -1    0    0  501    0 -0.00000000000E+00 -0.00000000000E+00 -0.82250531609E+02  0.82250531609E+02  0.00000000000E+00 0. -1.
         25    2    1    2    0    0  0.74844115236E+02 -0.12131234048E+03  0.73358057648E+03  0.75768334283E+03  0.12500104108E+03 0.  0.
          2    1    1    2  501    0 -0.34021725573E+01  0.57119887841E+02 -0.54789411837E+02  0.79222067724E+02  0.00000000000E+00 0. -1.
          1    1    1    2  502    0 -0.71441942679E+02  0.64192452637E+02  0.71896770084E+03  0.72535451815E+03  0.00000000000E+00 0. -1.
         22    1    3    3    0    0  0.34622539142E+02 -0.38836315193E+02  0.54991817072E+03  0.55237394407E+03  0.00000000000E+00 0. -1.
         22    1    3    3    0    0  0.40221576094E+02 -0.82476025285E+02  0.18366240576E+03  0.20530939876E+03  0.00000000000E+00 0. -1.
</event>
<event>
 7    1  0.6188600E-006  0.9872278E+02  0.7818608E-02  0.1443275E+00
          2   -1    0    0  502    0  0.00000000000E+00  0.00000000000E+00  0.11200031178E+04  0.11200031178E+04  0.00000000000E+00 0. -1.
          1   -1    0    0  501    0 -0.00000000000E+00 -0.00000000000E+00 -0.56503486601E+03  0.56503486601E+03  0.00000000000E+00 0. -1.
         25    2    1    2    0    0  0.78186485731E+02  0.78017344337E+02  0.96142416513E+03  0.97578878781E+03  0.12501000178E+03 0.  0.
          2    1    1    2  501    0 -0.53006630114E+02 -0.83236879882E+02 -0.55235522277E+03  0.56110103647E+03  0.00000000000E+00 0. -1.
          1    1    1    2  502    0 -0.25179855617E+02  0.52195355449E+01  0.14589930939E+03  0.14814815949E+03  0.00000000000E+00 0. -1.
         22    1    3    3    0    0  0.61396325641E+02 -0.21603073253E+02  0.33386589790E+03  0.34015090674E+03  0.00000000000E+00 0. -1.
         22    1    3    3    0    0  0.16790160090E+02  0.99620417590E+02  0.62755826724E+03  0.63563788107E+03  0.00000000000E+00 0. -1.
</event>
<event>
 7    1  0.6188600E-006  0.7109727E+02  0.7818608E-02  0.1451325E+00
          2   -1    0    0  502    0  0.00000000000E+00  0.00000000000E+00  0.47533224646E+03  0.47533224646E+03  0.00000000000E+00 0. -1.
          1   -1    0    0  501    0 -0.00000000000E+00 -0.00000000000E+00 -0.10178411996E+03  0.10178411996E+03  0.00000000000E+00 0. -1.
         25    2    1    2    0    0  0.37071278803E+02  0.18987772441E+02  0.11098438930E+03  0.17227156782E+03  0.12500057278E+03 0.  0.
          2    1    1    2  501    0 -0.67217784727E+02 -0.33922550662E+02 -0.50060292914E+02  0.90415722934E+02  0.00000000000E+00 0. -1.
          1    1    1    2  502    0  0.30146505925E+02  0.14934778221E+02  0.31262403011E+03  0.31442907567E+03  0.00000000000E+00 0. -1.
         22    1    3    3    0    0 -0.32269709664E+02 -0.30922718020E+02  0.51381123097E+02  0.68099695023E+02  0.00000000000E+00 0.  1.
         22    1    3    3    0    0  0.69340988466E+02  0.49910490461E+02  0.59603266201E+02  0.10417187279E+03  0.00000000000E+00 0.  1.
</event>
<event>
 7    1  0.6941877E-006  0.1260758E+03  0.7818608E-02  0.1260917E+00
          2   -1    0    0  502    0  0.00000000000E+00  0.00000000000E+00  0.10158628474E+04  0.10158628474E+04  0.00000000000E+00 0. -1.
          1   -1    0    0  501    0 -0.00000000000E+00 -0.00000000000E+00 -0.15382516454E+04  0.15382516454E+04  0.00000000000E+00 0. -1.
         25    2    1    2    0    0  0.18243890220E+03  0.39690616491E+02 -0.38061620663E+03  0.44198767032E+03  0.12500042355E+03 0.  0.
          2    1    1    2  501    0 -0.94218777338E+02 -0.76645733932E+02 -0.11213411518E+04  0.11278996965E+04  0.00000000000E+00 0. -1.
          1    1    1    2  502    0 -0.88220124861E+02  0.36955117441E+02  0.97956856037E+03  0.98422712602E+03  0.00000000000E+00 0. -1.
         22    1    3    3    0    0  0.13007550069E+03 -0.27872731285E+02 -0.17916656717E+03  0.22315282615E+03  0.00000000000E+00 0. -1.
         22    1    3    3    0    0  0.52363401513E+02  0.67563347776E+02 -0.20144963946E+03  0.21883484416E+03  0.00000000000E+00 0. -1.
</event>
<event>
 7    1  0.6188600E-006  0.1416543E+03  0.7818608E-02  0.1373412E+00
          2   -1    0    0  502    0  0.00000000000E+00  0.00000000000E+00  0.83636275228E+03  0.83636275228E+03  0.00000000000E+00 0. -1.
          1   -1    0    0  501    0 -0.00000000000E+00 -0.00000000000E+00 -0.12807827598E+03  0.12807827598E+03  0.00000000000E+00 0. -1.
         25    2    1    2    0    0 -0.11310903412E+03 -0.99210658493E+02  0.16661118224E+03  0.25694340805E+03  0.12499688211E+03 0.  0.
          2    1    1    2  501    0  0.84618812104E+02  0.11133658436E+03 -0.23218546631E+02  0.14175781914E+03  0.00000000000E+00 0. -1.
          1    1    1    2  502    0  0.28490222017E+02 -0.12125925868E+02  0.56489184069E+03  0.56573980106E+03  0.00000000000E+00 0. -1.
         22    1    3    3    0    0 -0.81637554056E+02 -0.85641732730E+02  0.18380960907E+03  0.21859819076E+03  0.00000000000E+00 0. -1.
         22    1    3    3    0    0 -0.31471480066E+02 -0.13568925763E+02 -0.17198426830E+02  0.38345217294E+02  0.00000000000E+00 0. -1.
</event>
<event>
 7    1  0.6188600E-006  0.8098279E+02  0.7818608E-02  0.1358336E+00
          2   -1    0    0  502    0  0.00000000000E+00  0.00000000000E+00  0.14353531334E+04  0.14353531334E+04  0.00000000000E+00 0. -1.
          1   -1    0    0  501    0 -0.00000000000E+00 -0.00000000000E+00 -0.53463868765E+03  0.53463868765E+03  0.00000000000E+00 0. -1.
         25    2    1    2    0    0 -0.34998298072E+02 -0.43533790919E+01  0.18945719693E+03  0.22970074554E+03  0.12499828101E+03 0.  0.
          2    1    1    2  501    0 -0.37338215301E+02  0.48751867184E+02 -0.51120797216E+03  0.51488297474E+03  0.00000000000E+00 0. -1.
          1    1    1    2  502    0  0.72336513373E+02 -0.44398488092E+02  0.12224652210E+04  0.12254081007E+04  0.00000000000E+00 0. -1.
         22    1    3    3    0    0  0.15726247409E+02  0.34312507355E+02  0.15005724449E+03  0.15473150824E+03  0.00000000000E+00 0.  1.
         22    1    3    3    0    0 -0.50724545481E+02 -0.38665886447E+02  0.39399952441E+02  0.74969237300E+02  0.00000000000E+00 0.  1.
</event>
<event>
 7    1  0.6188600E-006  0.4963512E+02  0.7818608E-02  0.1550843E+00
          2   -1    0    0  502    0  0.00000000000E+00  0.00000000000E+00  0.13662187982E+03  0.13662187982E+03  0.00000000000E+00 0. -1.
          1   -1    0    0  501    0 -0.00000000000E+00 -0.00000000000E+00 -0.30815459049E+03  0.30815459049E+03  0.00000000000E+00 0. -1.
         25    2    1    2    0    0  0.20252500304E+02 -0.33943243898E+02 -0.37594870244E+02  0.13638657358E+03  0.12500246241E+03 0.  0.
          2    1    1    2  501    0 -0.23706636137E+01  0.50437130819E+02 -0.21650425284E+03  0.22231422741E+03  0.00000000000E+00 0. -1.
          1    1    1    2  502    0 -0.17881836691E+02 -0.16493886921E+02  0.82566412420E+02  0.86075669321E+02  0.00000000000E+00 0. -1.
         22    1    3    3    0    0  0.53705663957E+02 -0.33195249255E+02 -0.66841122679E+02  0.91945410952E+02  0.00000000000E+00 0. -1.
         22    1    3    3    0    0 -0.33453163653E+02 -0.74799464292E+00  0.29246252435E+02  0.44441162629E+02  0.00000000000E+00 0. -1.
</event>
<event>
 7    1  0.6188600E-006  0.8162687E+02  0.7818608E-02  0.1503552E+00
          2   -1    0    0  502    0  0.00000000000E+00  0.00000000000E+00  0.45444939449E+03  0.45444939449E+03  0.00000000000E+00 0. -1.
          1   -1    0    0  501    0 -0.00000000000E+00 -0.00000000000E+00 -0.20531630955E+03  0.20531630955E+03  0.00000000000E+00 0. -1.
         25    2    1    2    0    0  0.86128711250E+02  0.47698860591E+02 -0.11469127059E+03  0.19614356400E+03  0.12499949578E+03 0.  0.
          2    1    1    2  501    0 -0.20232576390E+02 -0.23510570250E+00 -0.43661774484E+02  0.48122374974E+02  0.00000000000E+00 0. -1.
          1    1    1    2  502    0 -0.65896134860E+02 -0.47463754888E+02  0.40748613001E+03  0.41549976507E+03  0.00000000000E+00 0. -1.
         22    1    3    3    0    0  0.11036501994E+03  0.14701907032E+02 -0.10712909752E+03  0.15450963475E+03  0.00000000000E+00 0. -1.
         22    1    3    3    0    0 -0.24236308687E+02  0.32996953559E+02 -0.75621730769E+01  0.41633929247E+02  0.00000000000E+00 0. -1.
</event>
<event>
 7    1  0.6188600E-006  0.4435533E+02  0.7818608E-02  0.1497908E+00
          2   -1    0    0  502    0  0.00000000000E+00  0.00000000000E+00  0.24384154420E+04  0.24384154420E+04  0.00000000000E+00 0. -1.
          1   -1    0    0  501    0 -0.00000000000E+00 -0.00000000000E+00 -0.12768723372E+03  0.12768723372E+03  0.00000000000E+00 0. -1.
         25    2    1    2    0    0 -0.75910339953E+01  0.75837882175E+01  0.60455969568E+03  0.61744048099E+03  0.12500073711E+03 0.  0.
          2    1    1    2  501    0 -0.43841415936E+01 -0.44391940895E+02 -0.11693152631E+03  0.12515129627E+03  0.00000000000E+00 0. -1.
          1    1    1    2  502    0  0.11975175589E+02  0.36808152677E+02  0.18231000390E+04  0.18235108985E+04  0.00000000000E+00 0. -1.
         22    1    3    3    0    0 -0.58181500198E+02 -0.23735212966E+02  0.24168354704E+03  0.24971861006E+03  0.00000000000E+00 0. -1.
         22    1    3    3    0    0  0.50590466203E+02  0.31319001183E+02  0.36287614865E+03  0.36772187093E+03  0.00000000000E+00 0. -1.
</event>
<event>
 7    1  0.6188600E-006  0.5767820E+02  0.7818608E-02  0.1548135E+00
          2   -1    0    0  502    0  0.00000000000E+00  0.00000000000E+00  0.27963802459E+04  0.27963802459E+04  0.00000000000E+00 0. -1.
          1   -1    0    0  501    0 -0.00000000000E+00 -0.00000000000E+00 -0.18856065101E+02  0.18856065101E+02  0.00000000000E+00 0. -1.
         25    2    1    2    0    0  0.37474212343E+02 -0.11125597758E+01  0.58755773586E+03  0.60187576968E+03  0.12499917907E+03 0.  0.
          2    1    1    2  501    0  0.21301511145E+02 -0.18373656077E+00 -0.12657077845E+01  0.21339872360E+02  0.00000000000E+00 0. -1.
          1    1    1    2  502    0 -0.58775723487E+02  0.12962963366E+01  0.21912321528E+04  0.21920206690E+04  0.00000000000E+00 0. -1.
         22    1    3    3    0    0  0.18451463321E+02  0.33441459946E+02  0.53398112547E+03  0.53534533724E+03  0.00000000000E+00 0.  1.
         22    1    3    3    0    0  0.19022749022E+02 -0.34554019722E+02  0.53576610394E+02  0.66530432440E+02  0.00000000000E+00 0.  1.
</event>
<event>
 7    1  0.6188600E-006  0.2404395E+03  0.7818608E-02  0.1151522E+00
          2   -1    0    0  502    0  0.00000000000E+00  0.00000000000E+00  0.19325487510E+04  0.19325487510E+04  0.00000000000E+00 0. -1.
          1   -1    0    0  501    0 -0.00000000000E+00 -0.00000000000E+00 -0.13744017322E+04  0.13744017322E+04  0.00000000000E+00 0. -1.
         25    2    1    2    0    0 -0.14400881277E+03  0.21055056577E+03  0.38448646375E+03  0.47804652015E+03  0.12501422206E+03 0.  0.
          2    1    1    2  501    0  0.23031276958E+03 -0.72405021190E+02 -0.13121580879E+04  0.13341833857E+04  0.00000000000E+00 0. -1.
          1    1    1    2  502    0 -0.86303956815E+02 -0.13814554458E+03  0.14858186430E+04  0.14947205773E+04  0.00000000000E+00 0. -1.
         22    1    3    3    0    0 -0.13435402687E+03  0.13753004625E+03  0.34377855997E+03  0.39388985320E+03  0.00000000000E+00 0. -1.
         22    1    3    3    0    0 -0.96547858968E+01  0.73020519523E+02  0.40707903785E+02  0.84156666953E+02  0.00000000000E+00 0. -1.
</event>
<event>
 7    1  0.6188600E-006  0.8782693E+02  0.7818608E-02  0.1395539E+00
          2   -1    0    0  502    0  0.00000000000E+00  0.00000000000E+00  0.53093700700E+03  0.53093700700E+03  0.00000000000E+00 0. -1.
          1   -1    0    0  501    0 -0.00000000000E+00 -0.00000000000E+00 -0.13565659328E+03  0.13565659328E+03  0.00000000000E+00 0. -1.
         25    2    1    2    0    0  0.26709607998E+02  0.91701014565E+02  0.27270917329E+02  0.15966061979E+03  0.12500132539E+03 0.  0.
          2    1    1    2  501    0 -0.41440027354E+02 -0.50309425789E+01 -0.58271617705E+02  0.71681013388E+02  0.00000000000E+00 0. -1.
          1    1    1    2  502    0  0.14730419357E+02 -0.86670071986E+02  0.42628111409E+03  0.43525196710E+03  0.00000000000E+00 0. -1.
         22    1    3    3    0    0  0.29474844663E+01 -0.26713548923E+02 -0.16105944467E+02  0.31332136983E+02  0.00000000000E+00 0. -1.
         22    1    3    3    0    0  0.23762123531E+02  0.11841456349E+03  0.43376861795E+02  0.12832848281E+03  0.00000000000E+00 0. -1.
</event>
<event>
 7    1  0.6188600E-006  0.5829089E+02  0.7818608E-02  0.1452075E+00
          2   -1    0    0  502    0  0.00000000000E+00  0.00000000000E+00  0.53206983064E+02  0.53206983064E+02  0.00000000000E+00 0. -1.
          1   -1    0    0  501    0 -0.00000000000E+00 -0.00000000000E+00 -0.79022319769E+03  0.79022319769E+03  0.00000000000E+00 0. -1.
         25    2    1    2    0    0  0.14893746293E+02 -0.12323775625E+02 -0.62953945875E+03  0.64211976433E+03  0.12499664993E+03 0.  0.
          2    1    1    2  501    0  0.22276422387E+02 -0.34192642656E+02 -0.13106030551E+03  0.13726681860E+03  0.00000000000E+00 0. -1.
          1    1    1    2  502    0 -0.37170168680E+02  0.46516418281E+02  0.23583549638E+02  0.64043597830E+02  0.00000000000E+00 0. -1.
         22    1    3    3    0    0  0.89788166529E+01  0.18797335964E+02 -0.12554914243E+02  0.24322517540E+02  0.00000000000E+00 0. -1.
         22    1    3    3    0    0  0.59149296402E+01 -0.31121111589E+02 -0.61698454451E+03  0.61779724679E+03  0.00000000000E+00 0. -1.
</event>
<event>
 7    1  0.6188600E-006  0.1053638E+03  0.7818608E-02  0.1406206E+00
          2   -1    0    0  502    0  0.00000000000E+00  0.00000000000E+00  0.83389251084E+03  0.83389251084E+03  0.00000000000E+00 0. -1.
          1   -1    0    0  501    0 -0.00000000000E+00 -0.00000000000E+00 -0.11064024915E+04  0.11064024915E+04  0.00000000000E+00 0. -1.
         25    2    1    2    0    0  0.80375891529E+02  0.18113530748E+02  0.26192455390E+03  0.30169258231E+03  0.12500223339E+03 0.  0.
          2    1    1    2  501    0 -0.10558208329E+03  0.15708432062E+01 -0.10834865044E+04  0.10886197909E+04  0.00000000000E+00 0. -1.
          1    1    1    2  502    0  0.25206191766E+02 -0.19684373954E+02  0.54905196989E+03  0.54998262911E+03  0.00000000000E+00 0. -1.
         22    1    3    3    0    0 -0.27699687868E+02 -0.18432897661E+02  0.83804294894E+02  0.90167645344E+02  0.00000000000E+00 0.  1.
         22    1    3    3    0    0  0.10807557940E+03  0.36546428409E+02  0.17812025901E+03  0.21152493697E+03  0.00000000000E+00 0.  1.
</event>
<event>
 7    1  0.6188600E-006  0.9244516E+02  0.7818608E-02  0.1374741E+00
          2   -1    0    0  502    0  0.00000000000E+00  0.00000000000E+00  0.44899438637E+02  0.44899438637E+02  0.00000000000E+00 0. -1.
          1   -1    0    0  501    0 -0.00000000000E+00 -0.00000000000E+00 -0.74298228879E+03  0.74298228879E+03  0.00000000000E+00 0. -1.
         25    2    1    2    0    0  0.11527118552E+03 -0.13215436255E+02 -0.41622793459E+03  0.44981419159E+03  0.12500007783E+03 0.  0.
          2    1    1    2  501    0 -0.36615027001E+02 -0.29354997016E+02 -0.22988691472E+03  0.23462815179E+03  0.00000000000E+00 0. -1.
          1    1    1    2  502    0 -0.78656158514E+02  0.42570433271E+02 -0.51968000846E+02  0.10343938405E+03  0.00000000000E+00 0. -1.
         22    1    3    3    0    0  0.11121093905E+03 -0.70741402961E+01 -0.16873218942E+03  0.20220897154E+03  0.00000000000E+00 0.  1.
         22    1    3    3    0    0  0.40602464635E+01 -0.61412959592E+01 -0.24749574517E+03  0.24760522005E+03  0.00000000000E+00 0.  1.
</event>
<event>
 7    1  0.6188600E-006  0.3650529E+02  0.7818608E-02  0.1617666E+00
          2   -1    0    0  502    0  0.00000000000E+00  0.00000000000E+00  0.18610401033E+04  0.18610401033E+04  0.00000000000E+00 0. -1.
          1   -1    0    0  501    0 -0.00000000000E+00 -0.00000000000E+00 -0.10233213265E+02  0.10233213265E+02  0.00000000000E+00 0. -1.
         25    2    1    2    0    0  0.23465556812E+02 -0.29317280274E+02  0.10118632075E+04  0.10202474119E+04  0.12500998135E+03 0.  0.
          2    1    1    2  501    0 -0.35185912100E+02  0.10769448378E+02  0.51599953183E+02  0.63376530334E+02  0.00000000000E+00 0. -1.
          1    1    1    2  502    0  0.11720355288E+02  0.18547831897E+02  0.78734372931E+03  0.78764937433E+03  0.00000000000E+00 0. -1.
         22    1    3    3    0    0  0.94613996068E+01 -0.46414821027E+02  0.98176183363E+03  0.98290393817E+03  0.00000000000E+00 0.  1.
         22    1    3    3    0    0  0.14004157205E+02  0.17097540753E+02  0.30101373887E+02  0.37343473710E+02  0.00000000000E+00 0.  1.
</event>
<event>
 7    1  0.6188600E-006  0.6218705E+02  0.7818608E-02  0.1448143E+00
          2   -1    0    0  502    0  0.00000000000E+00  0.00000000000E+00  0.73307423342E+01  0.73307423342E+01  0.00000000000E+00 0. -1.
          1   -1    0    0  501    0 -0.00000000000E+00 -0.00000000000E+00 -0.22441755754E+04  0.22441755754E+04  0.00000000000E+00 0. -1.
         25    2    1    2    0    0  0.15102565597E+02 -0.37760675264E+02 -0.11205978909E+04  0.11282792936E+04  0.12498229961E+03 0.  0.
          2    1    1    2  501    0  0.22851596480E+02 -0.32067056292E+02 -0.22285505357E+03  0.22630701815E+03  0.00000000000E+00 0. -1.
          1    1    1    2  502    0 -0.37954162076E+02  0.69827731556E+02 -0.89339188853E+03  0.89692000591E+03  0.00000000000E+00 0. -1.
         22    1    3    3    0    0  0.33109918454E+02 -0.65990649214E+02 -0.10107107665E+04  0.10134038119E+04  0.00000000000E+00 0.  1.
         22    1    3    3    0    0 -0.18007352857E+02  0.28229973950E+02 -0.10988712443E+03  0.11487548173E+03  0.00000000000E+00 0.  1.
</event>
<event>
 7    1  0.6188600E-006  0.5463707E+02  0.7818608E-02  0.1422214E+00
          2   -1    0    0  502    0  0.00000000000E+00  0.00000000000E+00  0.14778595562E+04  0.14778595562E+04  0.00000000000E+00 0. -1.
          1   -1    0    0  501    0 -0.00000000000E+00 -0.00000000000E+00 -0.36832893726E+02  0.36832893726E+02  0.00000000000E+00 0. -1.
         25    2    1    2    0    0 -0.14963420677E+02  0.16297061716E+02  0.16258352585E+03  0.20627435939E+03  0.12500484105E+03 0.  0.
          2    1    1    2  501    0  0.44608395075E+02  0.31264566198E+02  0.37323001189E+02  0.66033237301E+02  0.00000000000E+00 0. -1.
          1    1    1    2  502    0 -0.29644974397E+02 -0.47561627914E+02  0.12411201354E+04  0.12423848532E+04  0.00000000000E+00 0. -1.
         22    1    3    3    0    0  0.35083380143E+02 -0.38891144025E+02  0.63775079965E+02  0.82526513742E+02  0.00000000000E+00 0. -1.
         22    1    3    3    0    0 -0.50046800820E+02  0.55188205741E+02  0.98808445885E+02  0.12374784565E+03  0.00000000000E+00 0. -1.
</event>
<event>
 7    1  0.6188600E-006  0.4851662E+02  0.7818608E-02  0.1460450E+00
          2   -1    0    0  502    0  0.00000000000E+00  0.00000000000E+00  0.19375671021E+04  0.19375671021E+04  0.00000000000E+00 0. -1.
          1   -1    0    0  501    0 -0.00000000000E+00 -0.00000000000E+00 -0.35763017556E+03  0.35763017556E+03  0.00000000000E+00 0. -1.
         25    2    1    2    0    0  0.36954099442E+01  0.71973431925E+01 -0.11792244220E+02  0.12581682072E+03  0.12500143018E+03 0.  0.
          2    1    1    2  501    0  0.23939885511E+02 -0.44123024813E+02 -0.28635917156E+03  0.29072587531E+03  0.00000000000E+00 0. -1.
          1    1    1    2  502    0 -0.27635295455E+02  0.36925681621E+02  0.18780883423E+04  0.18786545816E+04  0.00000000000E+00 0. -1.
         22    1    3    3    0    0 -0.12747408469E+02 -0.41961613239E+02 -0.46122022671E+02  0.63643651557E+02  0.00000000000E+00 0. -1.
         22    1    3    3    0    0  0.16442818414E+02  0.49158956431E+02  0.34329778451E+02  0.62173169159E+02  0.00000000000E+00 0. -1.
</event>
<event>
 7    1  0.6188600E-006  0.5498236E+02  0.7818608E-02  0.1469585E+00
          2   -1    0    0  502    0  0.00000000000E+00  0.00000000000E+00  0.42748416903E+03  0.42748416903E+03  0.00000000000E+00 0. -1.
          1   -1    0    0  501    0 -0.00000000000E+00 -0.00000000000E+00 -0.46168932745E+03  0.46168932745E+03  0.00000000000E+00 0. -1.
         25    2    1    2    0    0 -0.62149001317E+02 -0.33908481042E+02  0.19736637026E+03  0.24411245594E+03  0.12500049434E+03 0.  0.
          2    1    1    2  501    0  0.35755021241E+02 -0.13168404815E+02 -0.43394488877E+03  0.43561450265E+03  0.00000000000E+00 0. -1.
          1    1    1    2  502    0  0.26393980075E+02  0.47076885857E+02  0.20237336008E+03  0.20944653790E+03  0.00000000000E+00 0. -1.
         22    1    3    3    0    0 -0.10018749255E+01  0.14049617893E+02 -0.13421623051E+02  0.19455988323E+02  0.00000000000E+00 0. -1.
         22    1    3    3    0    0 -0.61147126391E+02 -0.47958098935E+02  0.21078799331E+03  0.22465646762E+03  0.00000000000E+00 0. -1.
</event>
<event>
 7    1  0.6188600E-006  0.6950039E+02  0.7818608E-02  0.1488620E+00
          2   -1    0    0  502    0  0.00000000000E+00  0.00000000000E+00  0.10743670977E+04  0.10743670977E+04  0.00000000000E+00 0. -1.
          1   -1    0    0  501    0 -0.00000000000E+00 -0.00000000000E+00 -0.57887781031E+02  0.57887781031E+02  0.00000000000E+00 0. -1.
         25    2    1    2    0    0 -0.88706870956E+01 -0.44065202257E+02  0.67244893687E+03  0.68544672958E+03  0.12501685988E+03 0.  0.
          2    1    1    2  501    0  0.22168052902E+02  0.66809958337E+02 -0.26594503826E+02  0.75247994898E+02  0.00000000000E+00 0. -1.
          1    1    1    2  502    0 -0.13297365806E+02 -0.22744756080E+02  0.37062488358E+03  0.37156015421E+03  0.00000000000E+00 0. -1.
         22    1    3    3    0    0  0.92577444126E-01  0.71120516563E+01 -0.32026393411E+01  0.78004325582E+01  0.00000000000E+00 0. -1.
         22    1    3    3    0    0 -0.89632645397E+01 -0.51177253914E+02  0.67565157621E+03  0.67764629702E+03  0.00000000000E+00 0. -1.
</event>
<event>
 7    1  0.6188600E-006  0.5668144E+02  0.7818608E-02  0.1552763E+00
          2   -1    0    0  502    0  0.00000000000E+00  0.00000000000E+00  0.10936164042E+04  0.10936164042E+04  0.00000000000E+00 0. -1.
          1   -1    0    0  501    0 -0.00000000000E+00 -0.00000000000E+00 -0.13666501935E+04  0.13666501935E+04  0.00000000000E+00 0. -1.
         25    2    1    2    0    0  0.46988856945E+02 -0.55863780739E+02 -0.11720323905E+04  0.11809373800E+04  0.12499782639E+03 0.  0.
          2    1    1    2  501    0 -0.23820328143E+01  0.20907131597E+02 -0.18884334193E+03  0.19001207862E+03  0.00000000000E+00 0. -1.
          1    1    1    2  502    0 -0.44606824130E+02  0.34956649142E+02  0.10878419432E+04  0.10893171390E+04  0.00000000000E+00 0. -1.
         22    1    3    3    0    0  0.66352892544E+02  0.17698634204E+02 -0.56334341029E+03  0.56751365262E+03  0.00000000000E+00 0. -1.
         22    1    3    3    0    0 -0.19364035600E+02 -0.73562414942E+02 -0.60868898017E+03  0.61342372741E+03  0.00000000000E+00 0. -1.
</event>
<event>
 7    1  0.6188600E-006  0.7944304E+02  0.7818608E-02  0.1468671E+00
          2   -1    0    0  502    0  0.00000000000E+00  0.00000000000E+00  0.95029939772E+03  0.95029939772E+03  0.00000000000E+00 0. -1.
          1   -1    0    0  501    0 -0.00000000000E+00 -0.00000000000E+00 -0.10152216542E+04  0.10152216542E+04  0.00000000000E+00 0. -1.
         25    2    1    2    0    0 -0.39141280441E+02 -0.41796838740E+02  0.30119860254E+03  0.33109610897E+03  0.12500007855E+03 0.  0.
          2    1    1    2  501    0 -0.14568715775E+02 -0.22189165213E+02 -0.99734424425E+03  0.99769742310E+03  0.00000000000E+00 0. -1.
          1    1    1    2  502    0  0.53709996215E+02  0.63986003953E+02  0.63122338526E+03  0.63672751982E+03  0.00000000000E+00 0. -1.
         22    1    3    3    0    0  0.24118524797E+02 -0.24043748346E+02  0.23631081396E+03  0.23875218506E+03  0.00000000000E+00 0.  1.
         22    1    3    3    0    0 -0.63259805237E+02 -0.17753090394E+02  0.64887788578E+02  0.92343923913E+02  0.00000000000E+00 0.  1.
</event>
<event>
 7    1  0.6188600E-006  0.3729369E+02  0.7818608E-02  0.1562306E+00
          2   -1    0    0  502    0  0.00000000000E+00  0.00000000000E+00  0.10408016896E+03  0.10408016896E+03  0.00000000000E+00 0. -1.
          1   -1    0    0  501    0 -0.00000000000E+00 -0.00000000000E+00 -0.12670702015E+04  0.12670702015E+04  0.00000000000E+00 0. -1.
         25    2    1    2    0    0 -0.41800739907E+02 -0.52333452925E+02 -0.47507476733E+03  0.49579028908E+03  0.12500353612E+03 0.  0.
          2    1    1    2  501    0  0.20681432667E+02  0.21867756687E+02 -0.77766956269E+03  0.77825180320E+03  0.00000000000E+00 0. -1.
          1    1    1    2  502    0  0.21119307240E+02  0.30465696239E+02  0.89754297454E+02  0.97108278211E+02  0.00000000000E+00 0. -1.
         22    1    3    3    0    0  0.22100668680E+02 -0.65742646860E+02 -0.32177118969E+03  0.32916140978E+03  0.00000000000E+00 0.  1.
         22    1    3    3    0    0 -0.63901408586E+02  0.13409193935E+02 -0.15330357764E+03  0.16662887930E+03  0.00000000000E+00 0.  1.
</event>
<event>
 7    1  0.6188600E-006  0.1202816E+03  0.7818608E-02  0.1284130E+00
          2   -1    0    0  502    0  0.00000000000E+00  0.00000000000E+00  0.38122699599E+03  0.38122699599E+03  0.00000000000E+00 0. -1.
          1   -1    0    0  501    0 -0.00000000000E+00 -0.00000000000E+00 -0.27148128188E+03  0.27148128188E+03  0.00000000000E+00 0. -1.
         25    2    1    2    0    0  0.93407588236E+01 -0.69764134408E+02  0.46495410622E+02  0.15080195084E+03  0.12500048377E+03 0.  0.
          2    1    1    2  501    0 -0.81646353580E+02  0.10439304260E+03 -0.19259847412E+03  0.23379094642E+03  0.00000000000E+00 0. -1.
          1    1    1    2  502    0  0.72305594756E+02 -0.34628908193E+02  0.25584877760E+03  0.26811538061E+03  0.00000000000E+00 0. -1.
         22    1    3    3    0    0 -0.17889468585E+02  0.23097594665E+02  0.45443423679E+02  0.54024408569E+02  0.00000000000E+00 0.  1.
         22    1    3    3    0    0  0.27230227409E+02 -0.92861729074E+02  0.10519869431E+01  0.96777542270E+02  0.00000000000E+00 0.  1.
</event>
<event>
 7    1  0.6188600E-006  0.1397595E+03  0.7818608E-02  0.1250497E+00
          2   -1    0    0  502    0  0.00000000000E+00  0.00000000000E+00  0.23691522506E+03  0.23691522506E+03  0.00000000000E+00 0. -1.
          1   -1    0    0  501    0 -0.00000000000E+00 -0.00000000000E+00 -0.15766960152E+04  0.15766960152E+04  0.00000000000E+00 0. -1.
         25    2    1    2    0    0 -0.82205202580E+00 -0.75930130154E+02  0.57258838415E+02  0.15706517952E+03  0.12499934242E+03 0.  0.
          2    1    1    2  501    0  0.90193586928E+02  0.11002916527E+03 -0.15053412699E+04  0.15120494830E+04  0.00000000000E+00 0. -1.
          1    1    1    2  502    0 -0.89371534902E+02 -0.34099035118E+02  0.10830164135E+03  0.14449657769E+03  0.00000000000E+00 0. -1.
         22    1    3    3    0    0  0.42138737529E+01  0.13076880374E+02  0.66068207334E+02  0.67481623814E+02  0.00000000000E+00 0.  1.
         22    1    3    3    0    0 -0.50359257787E+01 -0.89007010528E+02 -0.88093689187E+01  0.89583555703E+02  0.00000000000E+00 0.  1.
</event>
<event>
 7    1  0.6188600E-006  0.1390302E+03  0.7818608E-02  0.1372314E+00
          2   -1    0    0  502    0  0.00000000000E+00  0.00000000000E+00  0.12964539312E+04  0.12964539312E+04  0.00000000000E+00 0. -1.
          1   -1    0    0  501    0 -0.00000000000E+00 -0.00000000000E+00 -0.64722674338E+02  0.64722674338E+02  0.00000000000E+00 0. -1.
         25    2    1    2    0    0  0.10920291118E+03 -0.11637526347E+03  0.73238442320E+03  0.75992167981E+03  0.12500215337E+03 0.  0.
          2    1    1    2  501    0 -0.77604896960E+02  0.11250111770E+03  0.42252654348E+02  0.14305351557E+03  0.00000000000E+00 0. -1.
          1    1    1    2  502    0 -0.31598014220E+02  0.38741457641E+01  0.45709417931E+03  0.45820141016E+03  0.00000000000E+00 0. -1.
         22    1    3    3    0    0 -0.13598162669E+02 -0.18577767293E+02  0.28245213917E+03  0.28338887485E+03  0.00000000000E+00 0.  1.
         22    1    3    3    0    0  0.12280107385E+03 -0.97797496173E+02  0.44993228403E+03  0.47653280496E+03  0.00000000000E+00 0.  1.
</event>
<event>
 7    1  0.6188600E-006  0.7254411E+02  0.7818608E-02  0.1382515E+00
          2   -1    0    0  502    0  0.00000000000E+00  0.00000000000E+00  0.48969514505E+03  0.48969514505E+03  0.00000000000E+00 0. -1.
          1   -1    0    0  501    0 -0.00000000000E+00 -0.00000000000E+00 -0.40718410760E+04  0.40718410760E+04  0.00000000000E+00 0. -1.
         25    2    1    2    0    0  0.18478569692E+02 -0.24076601509E+01 -0.38280767845E+02  0.13205191928E+03  0.12500015133E+03 0.  0.
          2    1    1    2  501    0 -0.63423437140E+02  0.36018994798E+02 -0.39845613540E+04  0.39852288622E+04  0.00000000000E+00 0. -1.
          1    1    1    2  502    0  0.44944867447E+02 -0.33611334648E+02  0.44069619089E+03  0.44425543957E+03  0.00000000000E+00 0. -1.
         22    1    3    3    0    0 -0.19797963675E+02  0.45010616814E+02  0.14678193143E+02  0.51316316563E+02  0.00000000000E+00 0. -1.
         22    1    3    3    0    0  0.38276533368E+02 -0.47418276965E+02 -0.52958960987E+02  0.80735602715E+02  0.00000000000E+00 0. -1.
</event>
<event>
 7    1  0.6188600E-006  0.5910725E+02  0.7818608E-02  0.1445174E+00
          2   -1    0    0  502    0  0.00000000000E+00  0.00000000000E+00  0.27168042341E+04  0.27168042341E+04  0.00000000000E+00 0. -1.
          1   -1    0    0  501    0 -0.00000000000E+00 -0.00000000000E+00 -0.32540244913E+03  0.32540244913E+03  0.00000000000E+00 0. -1.
         25    2    1    2    0    0  0.68566283220E+02 -0.73100435011E+02  0.47379629230E+02  0.16710701593E+03  0.12503966057E+03 0.  0.
          2    1    1    2  501    0 -0.38871649336E+02  0.42907416191E+02 -0.26220879570E+03  0.26852468048E+03  0.00000000000E+00 0. -1.
          1    1    1    2  502    0 -0.29694633885E+02  0.30193018821E+02  0.26062309515E+04  0.26065749868E+04  0.00000000000E+00 0. -1.
         22    1    3    3    0    0  0.48442742322E+01  0.97189201585E+01 -0.33340423985E+02  0.35064344759E+02  0.00000000000E+00 0. -1.
         22    1    3    3    0    0  0.63722008988E+02 -0.82819355170E+02  0.80720053215E+02  0.13204267118E+03  0.00000000000E+00 0. -1.
</event>
<event>
 7    1  0.6188600E-006  0.1044290E+03  0.7818608E-02  0.1465990E+00
          2   -1    0    0  502    0  0.00000000000E+00  0.00000000000E+00  0.12203053369E+04  0.12203053369E+04  0.00000000000E+00 0. -1.
          1   -1    0    0  501    0 -0.00000000000E+00 -0.00000000000E+00 -0.39162962523E+03  0.39162962523E+03  0.00000000000E+00 0. -1.
         25    2    1    2    0    0  0.90945703117E+02 -0.67642727653E+02  0.55432402860E+03  0.57943656528E+03  0.12499977994E+03 0.  0.
          2    1    1    2  501    0 -0.93067042876E+02  0.47166082554E+02 -0.37172688120E+03  0.38609194245E+03  0.00000000000E+00 0. -1.
          1    1    1    2  502    0  0.21213397590E+01  0.20476645098E+02  0.64607856427E+03  0.64640645440E+03  0.00000000000E+00 0. -1.
         22    1    3    3    0    0  0.65528192203E+02 -0.95614877050E+00  0.43865222706E+03  0.44352072612E+03  0.00000000000E+00 0. -1.
         22    1    3    3    0    0  0.25417510914E+02 -0.66686578882E+02  0.11567180154E+03  0.13591583916E+03  0.00000000000E+00 0. -1.
</event>
<event>
 7    1  0.6188600E-006  0.2675045E+02  0.7818608E-02  0.1664955E+00
          2   -1    0    0  502    0  0.00000000000E+00  0.00000000000E+00  0.16942391403E+04  0.16942391403E+04  0.00000000000E+00 0. -1.
          1   -1    0    0  501    0 -0.00000000000E+00 -0.00000000000E+00 -0.56532222089E+02  0.56532222089E+02  0.00000000000E+00 0. -1.
         25    2    1    2    0    0 -0.38811848842E+02 -0.14092519303E+02  0.14191009591E+04  0.14251942721E+04  0.12500488915E+03 0.  0.
          2    1    1    2  501    0  0.22416482688E+02 -0.44632499589E+01 -0.50448960634E+02  0.55385168821E+02  0.00000000000E+00 0. -1.
          1    1    1    2  502    0  0.16395366154E+02  0.18555769261E+02  0.26905491973E+03  0.27019192148E+03  0.00000000000E+00 0. -1.
         22    1    3    3    0    0 -0.53435985464E+02  0.45083622033E+02  0.68037715360E+03  0.68395980047E+03  0.00000000000E+00 0. -1.
         22    1    3    3    0    0  0.14624136623E+02 -0.59176141335E+02  0.73872380552E+03  0.74123447162E+03  0.00000000000E+00 0. -1.
</event>
<event>
 7    1  0.6188600E-006  0.7843960E+02  0.7818608E-02  0.1345467E+00
          2   -1    0    0  502    0  0.00000000000E+00  0.00000000000E+00  0.42280954737E+03  0.42280954737E+03  0.00000000000E+00 0. -1.
          1   -1    0    0  501    0 -0.00000000000E+00 -0.00000000000E+00 -0.22317127323E+03  0.22317127323E+03  0.00000000000E+00 0. -1.
         25    2    1    2    0    0 -0.21555254429E+00  0.40679098755E+02  0.77434380429E+02  0.15256576517E+03  0.12500157555E+03 0.  0.
          2    1    1    2  501    0 -0.70434028020E+02 -0.44120497685E+02 -0.17189318780E+03  0.19093150246E+03  0.00000000000E+00 0. -1.
          1    1    1    2  502    0  0.70649580565E+02  0.34413989298E+01  0.29409708152E+03  0.30248355297E+03  0.00000000000E+00 0. -1.
         22    1    3    3    0    0  0.17509369202E+02  0.82897172875E+02  0.58802003441E+02  0.10313192953E+03  0.00000000000E+00 0. -1.
         22    1    3    3    0    0 -0.17724921746E+02 -0.42218074119E+02  0.18632376988E+02  0.49433835634E+02  0.00000000000E+00 0. -1.
</event>
<event>
 7    1  0.6188600E-006  0.1656747E+03  0.7818608E-02  0.1250566E+00
          2   -1    0    0  502    0  0.00000000000E+00  0.00000000000E+00  0.39489244938E+03  0.39489244938E+03  0.00000000000E+00 0. -1.
          1   -1    0    0  501    0 -0.00000000000E+00 -0.00000000000E+00 -0.61269855088E+03  0.61269855088E+03  0.00000000000E+00 0. -1.
         25    2    1    2    0    0 -0.47843597908E+02  0.13608191079E+03 -0.15082194830E+02  0.19146761493E+03  0.12500031464E+03 0.  0.
          2    1    1    2  501    0  0.71969441903E+02  0.36370446690E+02 -0.48107830235E+03  0.48778965032E+03  0.00000000000E+00 0. -1.
          1    1    1    2  502    0 -0.24125843995E+02 -0.17245235748E+03  0.27835439569E+03  0.32833373502E+03  0.00000000000E+00 0. -1.
         22    1    3    3    0    0  0.11595390431E+02  0.19598685556E+02 -0.50999656891E+02  0.55852722027E+02  0.00000000000E+00 0. -1.
         22    1    3    3    0    0 -0.59438988339E+02  0.11648322523E+03  0.35917462061E+02  0.13561489290E+03  0.00000000000E+00 0. -1.
</event>
<event>
 7    1  0.6362224E-006  0.5817825E+02  0.7818608E-02  0.1453109E+00
          2   -1    0    0  502    0  0.00000000000E+00  0.00000000000E+00  0.11114985547E+04  0.11114985547E+04  0.00000000000E+00 0. -1.
          1   -1    0    0  501    0 -0.00000000000E+00 -0.00000000000E+00 -0.84219927407E+03  0.84219927407E+03  0.00000000000E+00 0. -1.
         25    2    1    2    0    0 -0.88872094535E+02  0.38443792038E+02 -0.40313161206E+03  0.43302919095E+03  0.12499203670E+03 0.  0.
          2    1    1    2  501    0  0.32516283705E+02 -0.24276276820E+02 -0.42237594926E+03  0.42432073816E+03  0.00000000000E+00 0. -1.
          1    1    1    2  502    0  0.56355810830E+02 -0.14167515217E+02  0.10948068420E+04  0.10963478997E+04  0.00000000000E+00 0. -1.
         22    1    3    3    0    0 -0.23323393550E+01  0.40208381458E+01  0.92013314367E+01  0.10308804318E+02  0.00000000000E+00 0. -1.
         22    1    3    3    0    0 -0.86539755180E+02  0.34422953892E+02 -0.41233294350E+03  0.42272038664E+03  0.00000000000E+00 0. -1.
</event>
<event>
 7    1  0.6188600E-006  0.1172252E+03  0.7818608E-02  0.1295134E+00
          2   -1    0    0  502    0  0.00000000000E+00  0.00000000000E+00  0.30751314417E+04  0.30751314417E+04  0.00000000000E+00 0. -1.
          1   -1    0    0  501    0 -0.00000000000E+00 -0.00000000000E+00 -0.12477868863E+04  0.12477868863E+04  0.00000000000E+00 0. -1.
         25    2    1    2    0    0  0.64915797512E+01  0.10523186538E+03  0.59960680140E+03  0.62150533943E+03  0.12499873818E+03 0.  0.
          2    1    1    2  501    0  0.67165843727E+02 -0.96267786588E+02 -0.12334921607E+04  0.12390648279E+04  0.00000000000E+00 0. -1.
          1    1    1    2  502    0 -0.73657423479E+02 -0.89640787927E+01  0.24612299147E+04  0.24623481606E+04  0.00000000000E+00 0. -1.
         22    1    3    3    0    0 -0.94874042698E+01  0.92875884761E+02  0.19297181676E+03  0.21436898767E+03  0.00000000000E+00 0. -1.
         22    1    3    3    0    0  0.15978984021E+02  0.12355980620E+02  0.40663498464E+03  0.40713635176E+03  0.00000000000E+00 0. -1.
</event>
<event>
 7    1  0.6188600E-006  0.1092642E+03  0.7818608E-02  0.1377774E+00
          2   -1    0    0  502    0  0.00000000000E+00  0.00000000000E+00  0.46843938451E+03  0.46843938451E+03  0.00000000000E+00 0. -1.
          1   -1    0    0  501    0 -0.00000000000E+00 -0.00000000000E+00 -0.11902123102E+04  0.11902123102E+04  0.00000000000E+00 0. -1.
         25    2    1    2    0    0 -0.10931747659E+03  0.79918206761E+02  0.17009628646E+02  0.18507015126E+03  0.12499761183E+03 0.  0.
          2    1    1    2  501    0  0.11148307750E+02 -0.37091259622E+02 -0.10980275996E+04  0.10987104513E+04  0.00000000000E+00 0. -1.
          1    1    1    2  502    0  0.98169168837E+02 -0.42826947139E+02  0.35924504531E+03  0.37487109210E+03  0.00000000000E+00 0. -1.
         22    1    3    3    0    0 -0.76317129206E+02  0.11135903757E+03 -0.35967925882E+01  0.13504842233E+03  0.00000000000E+00 0. -1.
         22    1    3    3    0    0 -0.33000347381E+02 -0.31440830806E+02  0.20606421235E+02  0.50021728930E+02  0.00000000000E+00 0. -1.
</event>
<event>
 7    1  0.6188600E-006  0.9801045E+02  0.7818608E-02  0.1393591E+00
          2   -1    0    0  502    0  0.00000000000E+00  0.00000000000E+00  0.11986462489E+04  0.11986462489E+04  0.00000000000E+00 0. -1.
          1   -1    0    0  501    0 -0.00000000000E+00 -0.00000000000E+00 -0.10383251203E+04  0.10383251203E+04  0.00000000000E+00 0. -1.
         25    2    1    2    0    0 -0.68225101756E+02  0.28294890289E+02  0.95256479883E+02  0.17364258105E+03  0.12499073433E+03 0.  0.
          2    1    1    2  501    0  0.73181499092E+02 -0.65963219924E+02 -0.99636259146E+03  0.10012217995E+04  0.00000000000E+00 0. -1.
          1    1    1    2  502    0 -0.49563973359E+01  0.37668329636E+02  0.10614272402E+04  0.10621069886E+04  0.00000000000E+00 0. -1.
         22    1    3    3    0    0 -0.15150650549E+02  0.62548033676E+02  0.89467627427E+02  0.11021004984E+03  0.00000000000E+00 0. -1.
         22    1    3    3    0    0 -0.53074451207E+02 -0.34253143388E+02  0.57888524554E+01  0.63432531209E+02  0.00000000000E+00 0. -1.
</event>
<event>
 7    1  0.6188600E-006  0.4922742E+02  0.7818608E-02  0.1487439E+00
          2   -1    0    0  502    0  0.00000000000E+00  0.00000000000E+00  0.50521421412E+02  0.50521421412E+02  0.00000000000E+00 0. -1.
          1   -1    0    0  501    0 -0.00000000000E+00 -0.00000000000E+00 -0.83960525071E+03  0.83960525071E+03  0.00000000000E+00 0. -1.
         25    2    1    2    0    0  0.17759362055E+02  0.41966303468E+02 -0.57038145139E+03  0.58569273175E+03  0.12499764142E+03 0.  0.
          2    1    1    2  501    0 -0.49552806788E+02 -0.22071385466E+02 -0.24985647968E+03  0.25567731060E+03  0.00000000000E+00 0. -1.
          1    1    1    2  502    0  0.31793444733E+02 -0.19894918002E+02  0.31154101771E+02  0.48756629780E+02  0.00000000000E+00 0. -1.
         22    1    3    3    0    0 -0.53133346874E+02  0.15815224089E+02 -0.29328152396E+03  0.29847500090E+03  0.00000000000E+00 0.  1.
         22    1    3    3    0    0  0.70892708929E+02  0.26151079379E+02 -0.27709992743E+03  0.28721773085E+03  0.00000000000E+00 0.  1.
</event>
<event>
 7    1  0.6188600E-006  0.3442768E+02  0.7818608E-02  0.1554658E+00
          2   -1    0    0  502    0  0.00000000000E+00  0.00000000000E+00  0.23102299180E+04  0.23102299180E+04  0.00000000000E+00 0. -1.
          1   -1    0    0  501    0 -0.00000000000E+00 -0.00000000000E+00 -0.43895093976E+03  0.43895093976E+03  0.00000000000E+00 0. -1.
         25    2    1    2    0    0 -0.84120313417E+01 -0.73405951175E+01  0.52059872169E+03  0.53551197264E+03  0.12500158882E+03 0.  0.
          2    1    1    2  501    0 -0.20426500660E+02  0.27463466570E+02 -0.43064177192E+03  0.43199979126E+03  0.00000000000E+00 0. -1.
          1    1    1    2  502    0  0.28838532001E+02 -0.20122871452E+02  0.17813220285E+04  0.17816690939E+04  0.00000000000E+00 0. -1.
         22    1    3    3    0    0 -0.65426919241E+02 -0.81450904772E+00  0.22170294261E+03  0.23115695955E+03  0.00000000000E+00 0.  1.
         22    1    3    3    0    0  0.57014887899E+02 -0.65260860698E+01  0.29889577908E+03  0.30435501309E+03  0.00000000000E+00 0.  1.
</event>
<event>
 7    1  0.6188600E-006  0.5107523E+02  0.7818608E-02  0.1525265E+00
          2   -1    0    0  502    0  0.00000000000E+00  0.00000000000E+00  0.24556372141E+04  0.24556372141E+04  0.00000000000E+00 0. -1.
          1   -1    0    0  501    0 -0.00000000000E+00 -0.00000000000E+00 -0.11214510314E+02  0.11214510314E+02  0.00000000000E+00 0. -1.
         25    2    1    2    0    0  0.36512678566E+02  0.31350865338E+02  0.10374295421E+04  0.10460436945E+04  0.12502521105E+03 0.  0.
          2    1    1    2  501    0 -0.15423159209E+02 -0.49671958589E+02  0.93300407655E+02  0.10681827268E+03  0.00000000000E+00 0. -1.
          1    1    1    2  502    0 -0.21089519357E+02  0.18321093252E+02  0.13136927540E+04  0.13139897573E+04  0.00000000000E+00 0. -1.
         22    1    3    3    0    0  0.60192519775E+02  0.63201222578E+02  0.84932956955E+03  0.85380223218E+03  0.00000000000E+00 0. -1.
         22    1    3    3    0    0 -0.23679841208E+02 -0.31850357241E+02  0.18809997259E+03  0.19224146229E+03  0.00000000000E+00 0. -1.
</event>
<event>
 7    1  0.6188600E-006  0.5895944E+02  0.7818608E-02  0.1438930E+00
          2   -1    0    0  502    0  0.00000000000E+00  0.00000000000E+00  0.97960640336E+02  0.97960640336E+02  0.00000000000E+00 0. -1.
          1   -1    0    0  501    0 -0.00000000000E+00 -0.00000000000E+00 -0.11950054170E+04  0.11950054170E+04  0.00000000000E+00 0. -1.
         25    2    1    2    0    0  0.23364118354E+02 -0.24853651273E+02 -0.25480957130E+03  0.28586049201E+03  0.12499886903E+03 0.  0.
          2    1    1    2  501    0 -0.61220922887E+02  0.15076106157E+01 -0.91757533856E+03  0.91961664634E+03  0.00000000000E+00 0. -1.
          1    1    1    2  502    0  0.37856804533E+02  0.23346040657E+02  0.75340133232E+02  0.87488918951E+02  0.00000000000E+00 0. -1.
         22    1    3    3    0    0 -0.18318654163E+01 -0.14758609214E+02 -0.25809157648E+03  0.25851969776E+03  0.00000000000E+00 0.  1.
         22    1    3    3    0    0  0.25195983770E+02 -0.10095042058E+02  0.32820051843E+01  0.27340794252E+02  0.00000000000E+00 0.  1.
</event>
<event>
 7    1  0.6188600E-006  0.6209709E+02  0.7818608E-02  0.1395714E+00
          2   -1    0    0  502    0  0.00000000000E+00  0.00000000000E+00  0.14126787259E+04  0.14126787259E+04  0.00000000000E+00 0. -1.
          1   -1    0    0  501    0 -0.00000000000E+00 -0.00000000000E+00 -0.14592512051E+04  0.14592512051E+04  0.00000000000E+00 0. -1.
         25    2    1    2    0    0  0.41766056166E+02  0.37500125746E+02  0.46426097106E+03  0.48406185805E+03  0.12500788089E+03 0.  0.
          2    1    1    2  501    0  0.21437112192E+02 -0.54923488157E+02 -0.14476050039E+04  0.14488051583E+04  0.00000000000E+00 0. -1.
          1    1    1    2  502    0 -0.63203168358E+02  0.17423362411E+02  0.93677155362E+03  0.93906291467E+03  0.00000000000E+00 0. -1.
         22    1    3    3    0    0  0.33329081485E+02  0.41449254207E+02  0.47007928729E+03  0.47307864535E+03  0.00000000000E+00 0.  1.
         22    1    3    3    0    0  0.84369746808E+01 -0.39491284610E+01 -0.58183162291E+01  0.10983212695E+02  0.00000000000E+00 0.  1.
</event>
<event>
 7    1  0.6188600E-006  0.1609924E+03  0.7818608E-02  0.1192962E+00
          2   -1    0    0  502    0  0.00000000000E+00  0.00000000000E+00  0.14332952387E+03  0.14332952387E+03  0.00000000000E+00 0. -1.
          1   -1    0    0  501    0 -0.00000000000E+00 -0.00000000000E+00 -0.26299437170E+04  0.26299437170E+04  0.00000000000E+00 0. -1.
         25    2    1    2    0    0  0.39771810957E+02 -0.32067522645E+02 -0.13991101806E+03  0.19444934259E+03  0.12500132360E+03 0.  0.
          2    1    1    2  501    0  0.10248945432E+03 -0.12415495845E+03 -0.23615322372E+04  0.23670135296E+04  0.00000000000E+00 0. -1.
          1    1    1    2  502    0 -0.14226126528E+03  0.15622248109E+03  0.14829062135E+02  0.21181036868E+03  0.00000000000E+00 0. -1.
         22    1    3    3    0    0  0.31014096097E+02 -0.57057495394E+02 -0.15203615459E+03  0.16532520752E+03  0.00000000000E+00 0.  1.
         22    1    3    3    0    0  0.87577148605E+01  0.24989972749E+02  0.12125136533E+02  0.29124135070E+02  0.00000000000E+00 0.  1.
</event>
<event>
 7    1  0.6188600E-006  0.1014276E+03  0.7818608E-02  0.1373151E+00
          2   -1    0    0  502    0  0.00000000000E+00  0.00000000000E+00  0.24466274237E+04  0.24466274237E+04  0.00000000000E+00 0. -1.
          1   -1    0    0  501    0 -0.00000000000E+00 -0.00000000000E+00 -0.99483679903E+03  0.99483679903E+03  0.00000000000E+00 0. -1.
         25    2    1    2    0    0 -0.43964940721E+02 -0.13268326249E+03  0.48297416388E+03  0.51809771446E+03  0.12499373824E+03 0.  0.
          2    1    1    2  501    0  0.24251554132E+02  0.35915660436E+02 -0.97554081834E+03  0.97650292411E+03  0.00000000000E+00 0. -1.
          1    1    1    2  502    0  0.19713386589E+02  0.96767602052E+02  0.19443572791E+04  0.19468635841E+04  0.00000000000E+00 0. -1.
         22    1    3    3    0    0 -0.68256753248E+02 -0.14043848354E+03  0.45059281810E+03  0.47688136863E+03  0.00000000000E+00 0. -1.
         22    1    3    3    0    0  0.24291812527E+02  0.77552210486E+01  0.32381345780E+02  0.41216345833E+02  0.00000000000E+00 0. -1.
</event>
<event>
 7    1  0.6188600E-006  0.9281385E+02  0.7818608E-02  0.1303969E+00
          2   -1    0    0  502    0  0.00000000000E+00  0.00000000000E+00  0.48942342352E+03  0.48942342352E+03  0.00000000000E+00 0. -1.
          1   -1    0    0  501    0 -0.00000000000E+00 -0.00000000000E+00 -0.96018227659E+03  0.96018227659E+03  0.00000000000E+00 0. -1.
         25    2    1    2    0    0 -0.13778648037E+03 -0.72162824502E+02 -0.12672102245E+03  0.23638093940E+03  0.12500057427E+03 0.  0.
          2    1    1    2  501    0  0.46181420049E+02  0.73000850767E+02 -0.77136590377E+03  0.77618760959E+03  0.00000000000E+00 0. -1.
          1    1    1    2  502    0  0.91605060325E+02 -0.83802626524E+00  0.42732807314E+03  0.43703715112E+03  0.00000000000E+00 0. -1.
         22    1    3    3    0    0 -0.25600550563E+02 -0.43370135733E+02 -0.10785334427E+03  0.11903235162E+03  0.00000000000E+00 0. -1.
         22    1    3    3    0    0 -0.11218592981E+03 -0.28792688770E+02 -0.18867678178E+02  0.11734858778E+03  0.00000000000E+00 0. -1.
</event>
<event>
 7    1  0.6188600E-006  0.9552528E+02  0.7818608E-02  0.1418677E+00
          2   -1    0    0  502    0  0.00000000000E+00  0.00000000000E+00  0.20835680100E+04  0.20835680100E+04  0.00000000000E+00 0. -1.
          1   -1    0    0  501    0 -0.00000000000E+00 -0.00000000000E+00 -0.18452494216E+03  0.18452494216E+03  0.00000000000E+00 0. -1.
         25    2    1    2    0    0  0.19590034195E+01  0.82285341352E+02  0.36250724775E+03  0.39218766845E+03  0.12499979005E+03 0.  0.
          2    1    1    2  501    0  0.30669508217E+02  0.91854783496E+01 -0.16677901213E+03  0.16982411676E+03  0.00000000000E+00 0. -1.
          1    1    1    2  502    0 -0.32628511636E+02 -0.91470819701E+02  0.17033148322E+04  0.17060811669E+04  0.00000000000E+00 0. -1.
         22    1    3    3    0    0 -0.42264003731E+02  0.94113554997E+02  0.23268214415E+03  0.25452816632E+03  0.00000000000E+00 0.  1.
         22    1    3    3    0    0  0.44223007151E+02 -0.11828213645E+02  0.12982510361E+03  0.13765950213E+03  0.00000000000E+00 0.  1.
</event>
<event>
 7    1  0.6188600E-006  0.1245418E+03  0.7818608E-02  0.1237603E+00
          2   -1    0    0  502    0  0.00000000000E+00  0.00000000000E+00  0.41050696207E+03  0.41050696207E+03  0.00000000000E+00 0. -1.
          1   -1    0    0  501    0 -0.00000000000E+00 -0.00000000000E+00 -0.58174316397E+03  0.58174316397E+03  0.00000000000E+00 0. -1.
         25    2    1    2    0    0 -0.43124986142E+02  0.99938397651E+01  0.69013607163E+02  0.14949364377E+03  0.12500332112E+03 0.  0.
          2    1    1    2  501    0  0.94419487912E+01 -0.12989423354E+03 -0.52025217537E+03  0.53630587194E+03  0.00000000000E+00 0. -1.
          1    1    1    2  502    0  0.33683037350E+02  0.11990039377E+03  0.28000236631E+03  0.30645061033E+03  0.00000000000E+00 0. -1.
         22    1    3    3    0    0  0.19718845784E+02  0.39389053920E+02 -0.91406731950E+01  0.44987579999E+02  0.00000000000E+00 0. -1.
         22    1    3    3    0    0 -0.62843831925E+02 -0.29395214155E+02  0.78154280358E+02  0.10450606377E+03  0.00000000000E+00 0. -1.
</event>
<event>
 7    1  0.6188600E-006  0.1605137E+03  0.7818608E-02  0.1248451E+00
          2   -1    0    0  502    0  0.00000000000E+00  0.00000000000E+00  0.85636601423E+03  0.85636601423E+03  0.00000000000E+00 0. -1.
          1   -1    0    0  501    0 -0.00000000000E+00 -0.00000000000E+00 -0.99315110133E+03  0.99315110133E+03  0.00000000000E+00 0. -1.
         25    2    1    2    0    0  0.26010680017E+02  0.13621980493E+03 -0.54005020945E+03  0.57141058036E+03  0.12499372738E+03 0.  0.
          2    1    1    2  501    0  0.34774983795E+02 -0.19564615498E+03 -0.41252970884E+03  0.45789461466E+03  0.00000000000E+00 0. -1.
          1    1    1    2  502    0 -0.60785663812E+02  0.59426350046E+02  0.81579483119E+03  0.82021192054E+03  0.00000000000E+00 0. -1.
         22    1    3    3    0    0  0.72126574035E+02  0.10701165650E+03 -0.32871274224E+03  0.35313708983E+03  0.00000000000E+00 0.  1.
         22    1    3    3    0    0 -0.46115894018E+02  0.29208148437E+02 -0.21133746721E+03  0.21827349052E+03  0.00000000000E+00 0.  1.
</event>
<event>
 7    1  0.6188600E-006  0.1457588E+03  0.7818608E-02  0.1293701E+00
          2   -1    0    0  502    0  0.00000000000E+00  0.00000000000E+00  0.22160581791E+04  0.22160581791E+04  0.00000000000E+00 0. -1.
          1   -1    0    0  501    0 -0.00000000000E+00 -0.00000000000E+00 -0.60498387342E+02  0.60498387342E+02  0.00000000000E+00 0. -1.
         25    2    1    2    0    0  0.52484568793E+01  0.10940149785E+03  0.29734884539E+03  0.34064199146E+03  0.12499758582E+03 0.  0.
          2    1    1    2  501    0  0.51834436582E+02  0.31153068929E+02 -0.10221558321E+02  0.61333537107E+02  0.00000000000E+00 0. -1.
          1    1    1    2  502    0 -0.57082893462E+02 -0.14055456678E+03  0.18684325047E+04  0.18745810379E+04  0.00000000000E+00 0. -1.
         22    1    3    3    0    0 -0.71022216943E+01  0.29582286663E+02 -0.20964374271E+01  0.30495053486E+02  0.00000000000E+00 0. -1.
         22    1    3    3    0    0  0.12350678574E+02  0.79819211190E+02  0.29944528282E+03  0.31014693798E+03  0.00000000000E+00 0. -1.
</event>
<event>
 7    1  0.6188600E-006  0.5632693E+02  0.7818608E-02  0.1422959E+00
          2   -1    0    0  502    0  0.00000000000E+00  0.00000000000E+00  0.31191988788E+02  0.31191988788E+02  0.00000000000E+00 0. -1.
          1   -1    0    0  501    0 -0.00000000000E+00 -0.00000000000E+00 -0.14135951183E+04  0.14135951183E+04  0.00000000000E+00 0. -1.
         25    2    1    2    0    0  0.90841051075E+02  0.17914417491E+02 -0.50315251221E+03  0.52664925060E+03  0.12499583876E+03 0.  0.
          2    1    1    2  501    0 -0.39225921565E+02 -0.34951551967E+02 -0.85826742120E+03  0.85987397344E+03  0.00000000000E+00 0. -1.
          1    1    1    2  502    0 -0.51615129509E+02  0.17037134476E+02 -0.20983196063E+02  0.58263883002E+02  0.00000000000E+00 0. -1.
         22    1    3    3    0    0 -0.17903290148E+02  0.38585840422E+02 -0.18377130176E+03  0.18863002473E+03  0.00000000000E+00 0.  1.
         22    1    3    3    0    0  0.10874434122E+03 -0.20671422931E+02 -0.31938121045E+03  0.33801922587E+03  0.00000000000E+00 0.  1.
</event>
<event>
 7    1  0.6188600E-006  0.8986263E+02  0.7818608E-02  0.1387375E+00
          2   -1    0    0  502    0  0.00000000000E+00  0.00000000000E+00  0.28243075966E+04  0.28243075966E+04  0.00000000000E+00 0. -1.
          1   -1    0    0  501    0 -0.00000000000E+00 -0.00000000000E+00 -0.34309234582E+03  0.34309234582E+03  0.00000000000E+00 0. -1.
         25    2    1    2    0    0 -0.65189495754E+02  0.32879994409E+02  0.70220084841E+02  0.16089242493E+03  0.12499899077E+03 0.  0.
          2    1    1    2  501    0  0.91360505646E+02  0.19400440116E+01 -0.29056527654E+03  0.30459593840E+03  0.00000000000E+00 0. -1.
          1    1    1    2  502    0 -0.26171009892E+02 -0.34820038421E+02  0.27015604424E+04  0.27019115791E+04  0.00000000000E+00 0. -1.
         22    1    3    3    0    0 -0.74584293255E+02 -0.15418717217E+02  0.80292463267E+02  0.11066812232E+03  0.00000000000E+00 0. -1.
         22    1    3    3    0    0  0.93947975011E+01  0.48298711627E+02 -0.10072378426E+02  0.50224302604E+02  0.00000000000E+00 0. -1.
</event>
<event>
 7    1  0.6188600E-006  0.1343676E+03  0.7818608E-02  0.1375485E+00
          2   -1    0    0  502    0  0.00000000000E+00  0.00000000000E+00  0.17661763736E+03  0.17661763736E+03  0.00000000000E+00 0. -1.
          1   -1    0    0  501    0 -0.00000000000E+00 -0.00000000000E+00 -0.67943874766E+03  0.67943874766E+03  0.00000000000E+00 0. -1.
         25    2    1    2    0    0  0.93423098664E+02  0.10605139932E+03 -0.29613398964E+03  0.35113090023E+03  0.12499117815E+03 0.  0.
          2    1    1    2  501    0  0.15573530926E+02 -0.28058742684E+02 -0.32473946922E+03  0.32632123862E+03  0.00000000000E+00 0. -1.
          1    1    1    2  502    0 -0.10899662959E+03 -0.77992656631E+02  0.11805234856E+03  0.17860424617E+03  0.00000000000E+00 0. -1.
         22    1    3    3    0    0 -0.71492884552E+01 -0.22887089699E+02 -0.52383997965E+02  0.57610888234E+02  0.00000000000E+00 0.  1.
         22    1    3    3    0    0  0.10057238712E+03  0.12893848901E+03 -0.24374999167E+03  0.29352001199E+03  0.00000000000E+00 0.  1.
</event>
<event>
 7    1  0.6188600E-006  0.6418050E+02  0.7818608E-02  0.1410529E+00
          2   -1    0    0  502    0  0.00000000000E+00  0.00000000000E+00  0.59672001591E+03  0.59672001591E+03  0.00000000000E+00 0. -1.
          1   -1    0    0  501    0 -0.00000000000E+00 -0.00000000000E+00 -0.16696996684E+03  0.16696996684E+03  0.00000000000E+00 0. -1.
         25    2    1    2    0    0  0.40263936234E+01  0.62327752672E+02  0.84706723655E+02  0.16340256081E+03  0.12499682895E+03 0.  0.
          2    1    1    2  501    0  0.46355611562E+02 -0.20676087336E+02 -0.12019820952E+03  0.13047587088E+03  0.00000000000E+00 0. -1.
          1    1    1    2  502    0 -0.50382005185E+02 -0.41651665336E+02  0.46524153494E+03  0.46981155105E+03  0.00000000000E+00 0. -1.
         22    1    3    3    0    0 -0.51941963303E+02 -0.11944172915E+01  0.15981281361E+02  0.54358031039E+02  0.00000000000E+00 0. -1.
         22    1    3    3    0    0  0.55968356927E+02  0.63522169963E+02  0.68725442294E+02  0.10904452977E+03  0.00000000000E+00 0. -1.
</event>
<event>
 7    1  0.6188600E-006  0.6022760E+02  0.7818608E-02  0.1416849E+00
          2   -1    0    0  502    0  0.00000000000E+00  0.00000000000E+00  0.13028965593E+04  0.13028965593E+04  0.00000000000E+00 0. -1.
          1   -1    0    0  501    0 -0.00000000000E+00 -0.00000000000E+00 -0.21555963182E+03  0.21555963182E+03  0.00000000000E+00 0. -1.
         25    2    1    2    0    0 -0.89396676139E+01  0.40173673943E+01 -0.50655122007E+02  0.13523746078E+03  0.12500868975E+03 0.  0.
          2    1    1    2  501    0 -0.51492723614E+02  0.86481512606E+00 -0.11644095017E+03  0.12732141755E+03  0.00000000000E+00 0. -1.
          1    1    1    2  502    0  0.60432391228E+02 -0.48821825203E+01  0.12544329996E+04  0.12558973128E+04  0.00000000000E+00 0. -1.
         22    1    3    3    0    0  0.91825781023E+01  0.49733566978E+02 -0.66522116518E+02  0.83563983935E+02  0.00000000000E+00 0. -1.
         22    1    3    3    0    0 -0.18122245716E+02 -0.45716199584E+02  0.15866994511E+02  0.51673476843E+02  0.00000000000E+00 0. -1.
</event>
<event>
 7    1  0.6188600E-006  0.9171744E+02  0.7818608E-02  0.1319347E+00
          2   -1    0    0  502    0  0.00000000000E+00  0.00000000000E+00  0.16741423224E+04  0.16741423224E+04  0.00000000000E+00 0. -1.
          1   -1    0    0  501    0 -0.00000000000E+00 -0.00000000000E+00 -0.63755539611E+03  0.63755539611E+03  0.00000000000E+00 0. -1.
         25    2    1    2    0    0 -0.75171342730E+02 -0.79429593691E+02  0.47750115050E+03  0.50556177609E+03  0.12500227831E+03 0.  0.
          2    1    1    2  501    0  0.12778190092E+00  0.91799820440E+02 -0.61891321452E+03  0.62568425781E+03  0.00000000000E+00 0. -1.
          1    1    1    2  502    0  0.75043560829E+02 -0.12370226749E+02  0.11779989903E+04  0.11804516846E+04  0.00000000000E+00 0. -1.
         22    1    3    3    0    0 -0.11002996846E+03 -0.51859176478E+02  0.35160484499E+03  0.37205098463E+03  0.00000000000E+00 0. -1.
         22    1    3    3    0    0  0.34858625726E+02 -0.27570417214E+02  0.12589630552E+03  0.13351079146E+03  0.00000000000E+00 0. -1.
</event>
<event>
 7    1  0.6188600E-006  0.4118408E+02  0.7818608E-02  0.1525757E+00
          2   -1    0    0  502    0  0.00000000000E+00  0.00000000000E+00  0.91929330202E+02  0.91929330202E+02  0.00000000000E+00 0. -1.
          1   -1    0    0  501    0 -0.00000000000E+00 -0.00000000000E+00 -0.14212390353E+04  0.14212390353E+04  0.00000000000E+00 0. -1.
         25    2    1    2    0    0 -0.25638852781E+02  0.41668191959E+01  0.73411959016E+01  0.12788072207E+03  0.12499949107E+03 0.  0.
          2    1    1    2  501    0 -0.17071490830E+02 -0.30017763089E+02 -0.13348854541E+04  0.13353320476E+04  0.00000000000E+00 0. -1.
          1    1    1    2  502    0  0.42710343611E+02  0.25850943893E+02 -0.17654469438E+01  0.49955595827E+02  0.00000000000E+00 0. -1.
         22    1    3    3    0    0 -0.73619893964E+02 -0.11509044758E+02 -0.84494888164E+01  0.74991604596E+02  0.00000000000E+00 0. -1.
         22    1    3    3    0    0  0.47981041183E+02  0.15675863954E+02  0.15790684718E+02  0.52889117478E+02  0.00000000000E+00 0. -1.
</event>
<event>
 7    1  0.6188600E-006  0.1265900E+03  0.7818608E-02  0.1389927E+00
          2   -1    0    0  502    0  0.00000000000E+00  0.00000000000E+00  0.30951423715E+03  0.30951423715E+03  0.00000000000E+00 0. -1.
          1   -1    0    0  501    0 -0.00000000000E+00 -0.00000000000E+00 -0.31540424229E+03  0.31540424229E+03  0.00000000000E+00 0. -1.
         25    2    1    2    0    0  0.12375508703E+03 -0.76036720012E+02  0.11938390546E+03  0.22579494544E+03  0.12503573948E+03 0.  0.
          2    1    1    2  501    0 -0.11607116767E+03  0.46735186129E+02 -0.24528042803E+03  0.27535283177E+03  0.00000000000E+00 0. -1.
          1    1    1    2  502    0 -0.76839193636E+01  0.29301533884E+02  0.12000651744E+03  0.12377070224E+03  0.00000000000E+00 0. -1.
         22    1    3    3    0    0  0.37358068973E+02  0.31548680179E+02  0.10466026583E+02  0.50004822276E+02  0.00000000000E+00 0.  1.
         22    1    3    3    0    0  0.86397018056E+02 -0.10758540019E+03  0.10891787887E+03  0.17579012316E+03  0.00000000000E+00 0.  1.
</event>
<event>
 7    1  0.6188600E-006  0.5086529E+02  0.7818608E-02  0.1487917E+00
          2   -1    0    0  502    0  0.00000000000E+00  0.00000000000E+00  0.11906759605E+04  0.11906759605E+04  0.00000000000E+00 0. -1.
          1   -1    0    0  501    0 -0.00000000000E+00 -0.00000000000E+00 -0.17994094836E+03  0.17994094836E+03  0.00000000000E+00 0. -1.
         25    2    1    2    0    0  0.24258039094E+02 -0.31901738494E+02  0.37709945141E+01  0.13132286535E+03  0.12500120473E+03 0.  0.
          2    1    1    2  501    0  0.55175791832E+01  0.52447770950E+02 -0.10987152899E+03  0.12187274199E+03  0.00000000000E+00 0. -1.
          1    1    1    2  502    0 -0.29775618277E+02 -0.20546032455E+02  0.11168355466E+04  0.11174213015E+04  0.00000000000E+00 0. -1.
         22    1    3    3    0    0  0.52025367920E+02 -0.39702750888E+02  0.46136051975E+02  0.80071734258E+02  0.00000000000E+00 0. -1.
         22    1    3    3    0    0 -0.27767328826E+02  0.78010123940E+01 -0.42365057461E+02  0.51251131092E+02  0.00000000000E+00 0. -1.
</event>
<event>
 7    1  0.6188600E-006  0.1254147E+03  0.7818608E-02  0.1282526E+00
          2   -1    0    0  502    0  0.00000000000E+00  0.00000000000E+00  0.57587384382E+03  0.57587384382E+03  0.00000000000E+00 0. -1.
          1   -1    0    0  501    0 -0.00000000000E+00 -0.00000000000E+00 -0.50470713251E+03  0.50470713251E+03  0.00000000000E+00 0. -1.
         25    2    1    2    0    0 -0.11837066207E+03  0.60300040164E+02  0.19067892668E+03  0.26387669218E+03  0.12499898845E+03 0.  0.
          2    1    1    2  501    0 -0.93378544177E+01 -0.77504824965E+02 -0.45274370872E+03  0.45942470460E+03  0.00000000000E+00 0. -1.
          1    1    1    2  502    0  0.12770851648E+03  0.17204784801E+02  0.33323149335E+03  0.35727957955E+03  0.00000000000E+00 0. -1.
         22    1    3    3    0    0  0.19362032275E+02 -0.13249078975E+02  0.11238456792E+02  0.26014021192E+02  0.00000000000E+00 0.  1.
         22    1    3    3    0    0 -0.13773269434E+03  0.73549119139E+02  0.17944046989E+03  0.23786267099E+03  0.00000000000E+00 0.  1.
</event>
<event>
 7    1  0.6188600E-006  0.1408739E+03  0.7818608E-02  0.1269267E+00
          2   -1    0    0  502    0  0.00000000000E+00  0.00000000000E+00  0.71116039561E+02  0.71116039561E+02  0.00000000000E+00 0. -1.
          1   -1    0    0  501    0 -0.00000000000E+00 -0.00000000000E+00 -0.73870180621E+03  0.73870180621E+03  0.00000000000E+00 0. -1.
         25    2    1    2    0    0  0.40670961041E+02 -0.14718075000E+03 -0.46264665384E+03  0.50297119679E+03  0.12498719232E+03 0.  0.
          2    1    1    2  501    0 -0.78274037679E+02  0.99978242155E+01 -0.11172543945E+03  0.13678214534E+03  0.00000000000E+00 0. -1.
          1    1    1    2  502    0  0.37603076638E+02  0.13718292578E+03 -0.93213673353E+02  0.17006450364E+03  0.00000000000E+00 0. -1.
         22    1    3    3    0    0 -0.30120860030E+02 -0.10177386347E+03 -0.32260232126E+03  0.33961366753E+03  0.00000000000E+00 0.  1.
         22    1    3    3    0    0  0.70791821071E+02 -0.45406886530E+02 -0.14004433258E+03  0.16335752925E+03  0.00000000000E+00 0.  1.
</event>
<event>
 7    1  0.6188600E-006  0.1885048E+03  0.7818608E-02  0.1256997E+00
          2   -1    0    0  502    0  0.00000000000E+00  0.00000000000E+00  0.13836869650E+04  0.13836869650E+04  0.00000000000E+00 0. -1.
          1   -1    0    0  501    0 -0.00000000000E+00 -0.00000000000E+00 -0.47454634230E+03  0.47454634230E+03  0.00000000000E+00 0. -1.
         25    2    1    2    0    0  0.27614473888E+02 -0.12755251107E+03  0.70113040566E+02  0.19383854175E+03  0.12500135824E+03 0.  0.
          2    1    1    2  501    0  0.29027875050E+02 -0.59816182651E+02 -0.40228560722E+03  0.40774293742E+03  0.00000000000E+00 0. -1.
          1    1    1    2  502    0 -0.56642348938E+02  0.18736869372E+03  0.12413131893E+04  0.12566518281E+04  0.00000000000E+00 0. -1.
         22    1    3    3    0    0  0.55655631808E+02 -0.93590278033E+02 -0.24949974330E+01  0.10891700742E+03  0.00000000000E+00 0. -1.
         22    1    3    3    0    0 -0.28041157920E+02 -0.33962233034E+02  0.72608037999E+02  0.84921534326E+02  0.00000000000E+00 0. -1.
</event>
<event>
 7    1  0.6188600E-006  0.3340821E+02  0.7818608E-02  0.1582335E+00
          2   -1    0    0  502    0  0.00000000000E+00  0.00000000000E+00  0.15894603026E+03  0.15894603026E+03  0.00000000000E+00 0. -1.
          1   -1    0    0  501    0 -0.00000000000E+00 -0.00000000000E+00 -0.16675295862E+03  0.16675295862E+03  0.00000000000E+00 0. -1.
         25    2    1    2    0    0  0.14588041965E+02 -0.57050321303E+01  0.96713283209E+02  0.15882098571E+03  0.12500115196E+03 0.  0.
          2    1    1    2  501    0 -0.26033351352E+02 -0.21650751540E+02 -0.12586587616E+03  0.13034074269E+03  0.00000000000E+00 0. -1.
          1    1    1    2  502    0  0.11445309387E+02  0.27355783670E+02  0.21345664590E+02  0.36537260488E+02  0.00000000000E+00 0. -1.
         22    1    3    3    0    0 -0.11295341971E+02 -0.48771615124E+02  0.96342790767E+02  0.10857342458E+03  0.00000000000E+00 0.  1.
         22    1    3    3    0    0  0.25883383936E+02  0.43066582993E+02  0.37049244203E+00  0.50247561128E+02  0.00000000000E+00 0.  1.
</event>
<event>
 7    1  0.6188600E-006  0.1208247E+03  0.7818608E-02  0.1356293E+00
          2   -1    0    0  502    0  0.00000000000E+00  0.00000000000E+00  0.20232005260E+04  0.20232005260E+04  0.00000000000E+00 0. -1.
          1   -1    0    0  501    0 -0.00000000000E+00 -0.00000000000E+00 -0.44915617489E+03  0.44915617489E+03  0.00000000000E+00 0. -1.
         25    2    1    2    0    0 -0.12725385370E+02 -0.14888321978E+03 -0.52391906188E+01  0.19488661816E+03  0.12500078502E+03 0.  0.
          2    1    1    2  501    0 -0.24046486002E+02  0.34281309735E+02 -0.34595155822E+03  0.34847657357E+03  0.00000000000E+00 0. -1.
          1    1    1    2  502    0  0.36771871371E+02  0.11460191005E+03  0.19252351000E+04  0.19289935092E+04  0.00000000000E+00 0. -1.
         22    1    3    3    0    0  0.35614017824E+02 -0.52804744215E+02  0.43166890929E+02  0.76942054493E+02  0.00000000000E+00 0.  1.
         22    1    3    3    0    0 -0.48339403194E+02 -0.96078475566E+02 -0.48406081548E+02  0.11794456367E+03  0.00000000000E+00 0.  1.
</event>
<event>
 7    1  0.6188600E-006  0.7531986E+02  0.7818608E-02  0.1399519E+00
          2   -1    0    0  502    0  0.00000000000E+00  0.00000000000E+00  0.16710446422E+03  0.16710446422E+03  0.00000000000E+00 0. -1.
          1   -1    0    0  501    0 -0.00000000000E+00 -0.00000000000E+00 -0.71193919142E+03  0.71193919142E+03  0.00000000000E+00 0. -1.
         25    2    1    2    0    0 -0.80913015126E+01  0.45041333692E+02 -0.19808966680E+03  0.23865926872E+03  0.12499815819E+03 0.  0.
          2    1    1    2  501    0 -0.27057283863E+02 -0.76484832174E+02 -0.48632854776E+03  0.49304916847E+03  0.00000000000E+00 0. -1.
          1    1    1    2  502    0  0.35148585375E+02  0.31443498482E+02  0.13958348736E+03  0.14733521845E+03  0.00000000000E+00 0. -1.
         22    1    3    3    0    0  0.53002367031E+02  0.31278020192E+02 -0.55293009325E+02  0.82733804085E+02  0.00000000000E+00 0. -1.
         22    1    3    3    0    0 -0.61093668544E+02  0.13763313500E+02 -0.14279665748E+03  0.15592546463E+03  0.00000000000E+00 0. -1.
</event>
<event>
 7    1  0.6188600E-006  0.1574301E+03  0.7818608E-02  0.1294901E+00
          2   -1    0    0  502    0  0.00000000000E+00  0.00000000000E+00  0.38512539454E+03  0.38512539454E+03  0.00000000000E+00 0. -1.
          1   -1    0    0  501    0 -0.00000000000E+00 -0.00000000000E+00 -0.53067739382E+03  0.53067739382E+03  0.00000000000E+00 0. -1.
         25    2    1    2    0    0  0.66872619075E+02 -0.93657052494E+02 -0.87040505425E+01  0.17012620161E+03  0.12499429313E+03 0.  0.
          2    1    1    2  501    0  0.17044490500E+02 -0.52682292465E+02 -0.41591523899E+03  0.41958482411E+03  0.00000000000E+00 0. -1.
          1    1    1    2  502    0 -0.83917109575E+02  0.14633934496E+03  0.27906729026E+03  0.32609176263E+03  0.00000000000E+00 0. -1.
         22    1    3    3    0    0  0.64102885695E+02 -0.30013604001E+02 -0.56434144925E+02  0.90525184854E+02  0.00000000000E+00 0.  1.
         22    1    3    3    0    0  0.27697333802E+01 -0.63643448494E+02  0.47730094382E+02  0.79601016758E+02  0.00000000000E+00 0.  1.
</event>
<event>
 7    1  0.6188600E-006  0.2789064E+03  0.7818608E-02  0.1209656E+00
          2   -1    0    0  502    0  0.00000000000E+00  0.00000000000E+00  0.36148099124E+03  0.36148099124E+03  0.00000000000E+00 0. -1.
          1   -1    0    0  501    0 -0.00000000000E+00 -0.00000000000E+00 -0.28770055637E+04  0.28770055637E+04  0.00000000000E+00 0. -1.
         25    2    1    2    0    0  0.20485302079E+03 -0.75940562701E+02 -0.41064983754E+03  0.48165319275E+03  0.12499911928E+03 0.  0.
          2    1    1    2  501    0  0.73057010494E+02  0.17585628988E+01 -0.23667274872E+04  0.23678554471E+04  0.00000000000E+00 0. -1.
          1    1    1    2  502    0 -0.27791003128E+03  0.74181999802E+02  0.26185275231E+03  0.38897791515E+03  0.00000000000E+00 0. -1.
         22    1    3    3    0    0 -0.38417932427E+01  0.93212033406E+01 -0.84930024184E+02  0.85526330536E+02  0.00000000000E+00 0. -1.
         22    1    3    3    0    0  0.20869481403E+03 -0.85261766042E+02 -0.32571981335E+03  0.39612686221E+03  0.00000000000E+00 0. -1.
</event>
<event>
 7    1  0.6188600E-006  0.8628848E+02  0.7818608E-02  0.1390348E+00
          2   -1    0    0  502    0  0.00000000000E+00  0.00000000000E+00  0.10407548388E+04  0.10407548388E+04  0.00000000000E+00 0. -1.
          1   -1    0    0  501    0 -0.00000000000E+00 -0.00000000000E+00 -0.19715232917E+03  0.19715232917E+03  0.00000000000E+00 0. -1.
         25    2    1    2    0    0 -0.10168174032E+03 -0.12423530945E+02  0.35944746171E+03  0.39410782092E+03  0.12499990537E+03 0.  0.
          2    1    1    2  501    0  0.72793143720E+02  0.45995410399E+02 -0.16872068621E+03  0.18942304375E+03  0.00000000000E+00 0. -1.
          1    1    1    2  502    0  0.28888596600E+02 -0.33571879454E+02  0.65287573409E+03  0.65437630326E+03  0.00000000000E+00 0. -1.
         22    1    3    3    0    0 -0.40430367423E+02 -0.22911302503E+01  0.13578695729E+02  0.42711179631E+02  0.00000000000E+00 0.  1.
         22    1    3    3    0    0 -0.61251372897E+02 -0.10132400695E+02  0.34586876598E+03  0.35139664129E+03  0.00000000000E+00 0.  1.
</event>
<event>
 7    1  0.6188600E-006  0.7065623E+02  0.7818608E-02  0.1375478E+00
          2   -1    0    0  502    0  0.00000000000E+00  0.00000000000E+00  0.39396757624E+04  0.39396757624E+04  0.00000000000E+00 0. -1.
          1   -1    0    0  501    0 -0.00000000000E+00 -0.00000000000E+00 -0.12448433085E+04  0.12448433085E+04  0.00000000000E+00 0. -1.
         25    2    1    2    0    0  0.15325034423E+02  0.10877080871E+03  0.34093251539E+03  0.37937109618E+03  0.12498601144E+03 0.  0.
          2    1    1    2  501    0  0.27303683764E+02 -0.65094768546E+02 -0.12243471975E+04  0.12263803978E+04  0.00000000000E+00 0. -1.
          1    1    1    2  502    0 -0.42628718187E+02 -0.43676040165E+02  0.35782471359E+04  0.35787675770E+04  0.00000000000E+00 0. -1.
         22    1    3    3    0    0  0.63729979372E+02  0.38263015133E+02  0.10692631051E+03  0.13022597466E+03  0.00000000000E+00 0. -1.
         22    1    3    3    0    0 -0.48404944949E+02  0.70507793578E+02  0.23400620489E+03  0.24914512152E+03  0.00000000000E+00 0. -1.
</event>
<event>
 7    1  0.6188600E-006  0.3066754E+02  0.7818608E-02  0.1637381E+00
          2   -1    0    0  502    0  0.00000000000E+00  0.00000000000E+00  0.13405176189E+04  0.13405176189E+04  0.00000000000E+00 0. -1.
          1   -1    0    0  501    0 -0.00000000000E+00 -0.00000000000E+00 -0.42113390246E+03  0.42113390246E+03  0.00000000000E+00 0. -1.
         25    2    1    2    0    0 -0.69574098066E+01 -0.44017516228E+01  0.12658705380E+04  0.12720538947E+04  0.12500044441E+03 0.  0.
          2    1    1    2  501    0  0.30234980558E+02  0.51936896708E+01 -0.41556643789E+03  0.41669724353E+03  0.00000000000E+00 0. -1.
          1    1    1    2  502    0 -0.23277570751E+02 -0.79193804793E+00  0.69079616339E+02  0.72900383123E+02  0.00000000000E+00 0. -1.
         22    1    3    3    0    0  0.26471959796E+01  0.48921561555E+02  0.97176372878E+03  0.97299798119E+03  0.00000000000E+00 0.  1.
         22    1    3    3    0    0 -0.96046057863E+01 -0.53323313177E+02  0.29410680918E+03  0.29905591348E+03  0.00000000000E+00 0.  1.
</event>
<event>
 7    1  0.6188600E-006  0.8503834E+02  0.7818608E-02  0.1385003E+00
          2   -1    0    0  502    0  0.00000000000E+00  0.00000000000E+00  0.71716400916E+03  0.71716400916E+03  0.00000000000E+00 0. -1.
          1   -1    0    0  501    0 -0.00000000000E+00 -0.00000000000E+00 -0.50365669032E+03  0.50365669032E+03  0.00000000000E+00 0. -1.
         25    2    1    2    0    0 -0.54983810744E+02 -0.21947769168E+02 -0.12836769081E+03  0.18870037938E+03  0.12499858047E+03 0.  0.
          2    1    1    2  501    0  0.91010615688E+02 -0.81122790704E+01 -0.33825251962E+03  0.35037623816E+03  0.00000000000E+00 0. -1.
          1    1    1    2  502    0 -0.36026804944E+02  0.30060048239E+02  0.68012752927E+03  0.68174408193E+03  0.00000000000E+00 0. -1.
         22    1    3    3    0    0 -0.21402021686E+02  0.27200658855E+02 -0.12430800734E+03  0.12903644083E+03  0.00000000000E+00 0.  1.
         22    1    3    3    0    0 -0.33581789058E+02 -0.49148428023E+02 -0.40596834757E+01  0.59663938551E+02  0.00000000000E+00 0.  1.
</event>
<event>
 7    1  0.6188600E-006  0.1252123E+03  0.7818608E-02  0.1436019E+00
          2   -1    0    0  502    0  0.00000000000E+00  0.00000000000E+00  0.64284940474E+03  0.64284940474E+03  0.00000000000E+00 0. -1.
          1   -1    0    0  501    0 -0.00000000000E+00 -0.00000000000E+00 -0.59664782275E+03  0.59664782275E+03  0.00000000000E+00 0. -1.
         25    2    1    2    0    0  0.14014614869E+03  0.15476345893E+02  0.24270458188E+02  0.18998693868E+03  0.12500208580E+03 0.  0.
          2    1    1    2  501    0 -0.18903019057E+02  0.10042678246E+02 -0.50639669406E+03  0.50684888406E+03  0.00000000000E+00 0. -1.
          1    1    1    2  502    0 -0.12124312963E+03 -0.25519024139E+02  0.52832781786E+03  0.54266140475E+03  0.00000000000E+00 0. -1.
         22    1    3    3    0    0  0.26551426001E+02  0.60088389912E+02  0.16304603960E+02  0.67686283213E+02  0.00000000000E+00 0. -1.
         22    1    3    3    0    0  0.11359472269E+03 -0.44612044019E+02  0.79658542284E+01  0.12230065547E+03  0.00000000000E+00 0. -1.
</event>
<event>
 7    1  0.6188600E-006  0.5647056E+02  0.7818608E-02  0.1505206E+00
          2   -1    0    0  502    0  0.00000000000E+00  0.00000000000E+00  0.23232569411E+03  0.23232569411E+03  0.00000000000E+00 0. -1.
          1   -1    0    0  501    0 -0.00000000000E+00 -0.00000000000E+00 -0.16703772142E+04  0.16703772142E+04  0.00000000000E+00 0. -1.
         25    2    1    2    0    0 -0.69408561350E+02 -0.11323217692E+02 -0.95784461498E+03  0.96852253423E+03  0.12499531674E+03 0.  0.
          2    1    1    2  501    0  0.53120091474E+02 -0.12572311786E+02 -0.70521346696E+03  0.70732301046E+03  0.00000000000E+00 0. -1.
          1    1    1    2  502    0  0.16288469876E+02  0.23895529478E+02  0.22500656182E+03  0.22685736365E+03  0.00000000000E+00 0. -1.
         22    1    3    3    0    0 -0.98920650971E+02 -0.22734534266E+02 -0.53824117099E+03  0.54772777216E+03  0.00000000000E+00 0.  1.
         22    1    3    3    0    0  0.29512089622E+02  0.11411316574E+02 -0.41960344399E+03  0.42079476207E+03  0.00000000000E+00 0.  1.
</event>
<event>
 7    1  0.6188600E-006  0.2793908E+03  0.7818608E-02  0.1191821E+00
          2   -1    0    0  502    0  0.00000000000E+00  0.00000000000E+00  0.15558174063E+03  0.15558174063E+03  0.00000000000E+00 0. -1.
          1   -1    0    0  501    0 -0.00000000000E+00 -0.00000000000E+00 -0.24858469587E+04  0.24858469587E+04  0.00000000000E+00 0. -1.
         25    2    1    2    0    0  0.25849829379E+03  0.16721242857E+03 -0.30658298531E+03  0.45210643163E+03  0.12500293787E+03 0.  0.
          2    1    1    2  501    0 -0.33369553375E+01 -0.88457625440E+02 -0.18874799102E+04  0.18895545237E+04  0.00000000000E+00 0. -1.
          1    1    1    2  502    0 -0.25516133846E+03 -0.78754803135E+02 -0.13620232261E+03  0.29976774400E+03  0.00000000000E+00 0. -1.
         22    1    3    3    0    0  0.21955754907E+03  0.10120878155E+03 -0.28239162792E+03  0.37174422166E+03  0.00000000000E+00 0. -1.
         22    1    3    3    0    0  0.38940744723E+02  0.66003647020E+02 -0.24191357393E+02  0.80362209975E+02  0.00000000000E+00 0. -1.
</event>
<event>
 7    1  0.6188600E-006  0.8370932E+02  0.7818608E-02  0.1413731E+00
          2   -1    0    0  502    0  0.00000000000E+00  0.00000000000E+00  0.75840545475E+03  0.75840545475E+03  0.00000000000E+00 0. -1.
          1   -1    0    0  501    0 -0.00000000000E+00 -0.00000000000E+00 -0.11070970856E+04  0.11070970856E+04  0.00000000000E+00 0. -1.
         25    2    1    2    0    0  0.94456689818E+02  0.57061918694E+02  0.15862506051E+02  0.16749343595E+03  0.12499721265E+03 0.  0.
          2    1    1    2  501    0 -0.56704058735E+02 -0.61016024300E+02 -0.10290571210E+04  0.10324228125E+04  0.00000000000E+00 0. -1.
          1    1    1    2  502    0 -0.37752631083E+02  0.39541056057E+01  0.66450298410E+03  0.66558629191E+03  0.00000000000E+00 0. -1.
         22    1    3    3    0    0  0.10321814995E+03  0.50411518361E+02  0.54627160916E+02  0.12719840555E+03  0.00000000000E+00 0.  1.
         22    1    3    3    0    0 -0.87614601369E+01  0.66504003330E+01 -0.38764654866E+02  0.40295030403E+02  0.00000000000E+00 0.  1.
</event>
<event>
 7    1  0.6188600E-006  0.6552380E+02  0.7818608E-02  0.1382758E+00
          2   -1    0    0  502    0  0.00000000000E+00  0.00000000000E+00  0.62350216790E+03  0.62350216790E+03  0.00000000000E+00 0. -1.
          1   -1    0    0  501    0 -0.00000000000E+00 -0.00000000000E+00 -0.63534928879E+03  0.63534928879E+03  0.00000000000E+00 0. -1.
         25    2    1    2    0    0 -0.40065823741E+01  0.31448564551E+02  0.16537015677E+03  0.20970652204E+03  0.12499788687E+03 0.  0.
          2    1    1    2  501    0  0.65495086098E+02 -0.19396570144E+01 -0.60874474780E+03  0.61226100362E+03  0.00000000000E+00 0. -1.
          1    1    1    2  502    0 -0.61488503724E+02 -0.29508907537E+02  0.43152747014E+03  0.43688393104E+03  0.00000000000E+00 0. -1.
         22    1    3    3    0    0  0.19877069756E+02  0.28695482147E+02  0.17879480539E+03  0.18217055479E+03  0.00000000000E+00 0.  1.
         22    1    3    3    0    0 -0.23883652130E+02  0.27530824043E+01 -0.13424648621E+02  0.27535967250E+02  0.00000000000E+00 0.  1.
</event>
<event>
 7    1  0.6188600E-006  0.9963890E+02  0.7818608E-02  0.1398295E+00
          2   -1    0    0  502    0  0.00000000000E+00  0.00000000000E+00  0.47090650156E+03  0.47090650156E+03  0.00000000000E+00 0. -1.
          1   -1    0    0  501    0 -0.00000000000E+00 -0.00000000000E+00 -0.76816727997E+03  0.76816727997E+03  0.00000000000E+00 0. -1.
         25    2    1    2    0    0  0.83285828222E+02 -0.39836013540E+02  0.13522297372E+03  0.20599257040E+03  0.12499699710E+03 0.  0.
          2    1    1    2  501    0 -0.11949735552E+02 -0.33956673603E+02 -0.72355216539E+03  0.72444709117E+03  0.00000000000E+00 0. -1.
          1    1    1    2  502    0 -0.71336092670E+02  0.73792687143E+02  0.29106841327E+03  0.30863411995E+03  0.00000000000E+00 0. -1.
         22    1    3    3    0    0  0.39820075275E+02  0.41033504557E+02  0.24632321605E+02  0.62258639230E+02  0.00000000000E+00 0. -1.
         22    1    3    3    0    0  0.43465752947E+02 -0.80869518097E+02  0.11059065211E+03  0.14373393117E+03  0.00000000000E+00 0. -1.
</event>
<event>
 7    1  0.6188600E-006  0.1636346E+03  0.7818608E-02  0.1194083E+00
          2   -1    0    0  502    0  0.00000000000E+00  0.00000000000E+00  0.29587725355E+04  0.29587725355E+04  0.00000000000E+00 0. -1.
          1   -1    0    0  501    0 -0.00000000000E+00 -0.00000000000E+00 -0.26237510049E+02  0.26237510049E+02  0.00000000000E+00 0. -1.
         25    2    1    2    0    0 -0.51112035963E+02 -0.35742356852E+02  0.10272746161E+04  0.10367292321E+04  0.12499762977E+03 0.  0.
          2    1    1    2  501    0  0.21062044370E+03 -0.77284392162E+00  0.67259816433E+03  0.70480483770E+03  0.00000000000E+00 0. -1.
          1    1    1    2  502    0 -0.15950840774E+03  0.36515200773E+02  0.12326622450E+04  0.12434759758E+04  0.00000000000E+00 0. -1.
         22    1    3    3    0    0 -0.48758344051E+01 -0.17346519350E+02  0.89840881715E+03  0.89858949373E+03  0.00000000000E+00 0.  1.
         22    1    3    3    0    0 -0.46236201558E+02 -0.18395837501E+02  0.12886579897E+03  0.13813973837E+03  0.00000000000E+00 0.  1.
</event>
<event>
 7    1  0.6188600E-006  0.1620562E+03  0.7818608E-02  0.1234766E+00
          2   -1    0    0  502    0  0.00000000000E+00  0.00000000000E+00  0.29713096257E+04  0.29713096257E+04  0.00000000000E+00 0. -1.
          1   -1    0    0  501    0 -0.00000000000E+00 -0.00000000000E+00 -0.24224740145E+04  0.24224740145E+04  0.00000000000E+00 0. -1.
         25    2    1    2    0    0 -0.33050664193E+02  0.13628111637E+03 -0.94477651533E+03  0.96327241057E+03  0.12500473580E+03 0.  0.
          2    1    1    2  501    0  0.95804179444E+02  0.13255767808E+02 -0.14646337438E+04  0.14678236133E+04  0.00000000000E+00 0. -1.
          1    1    1    2  502    0 -0.62753515252E+02 -0.14953688417E+03  0.29582458703E+04  0.29626876164E+04  0.00000000000E+00 0. -1.
         22    1    3    3    0    0 -0.58538924606E+02  0.56404552408E+02 -0.23714740923E+03  0.25069338430E+03  0.00000000000E+00 0. -1.
         22    1    3    3    0    0  0.25488260414E+02  0.79876563957E+02 -0.70762910609E+03  0.71257902627E+03  0.00000000000E+00 0. -1.
</event>
<event>
 7    1  0.6188600E-006  0.7175254E+02  0.7818608E-02  0.1473397E+00
          2   -1    0    0  502    0  0.00000000000E+00  0.00000000000E+00  0.20020093167E+02  0.20020093167E+02  0.00000000000E+00 0. -1.
          1   -1    0    0  501    0 -0.00000000000E+00 -0.00000000000E+00 -0.19035915686E+04  0.19035915686E+04  0.00000000000E+00 0. -1.
         25    2    1    2    0    0  0.45733530011E+02  0.80920539203E+02 -0.44669675851E+03  0.47307669542E+03  0.12499550495E+03 0.  0.
          2    1    1    2  501    0 -0.13188271498E+02 -0.25166209938E+02 -0.12874151627E+04  0.12877286476E+04  0.00000000000E+00 0. -1.
          1    1    1    2  502    0 -0.32545258513E+02 -0.55754329266E+02 -0.14945955421E+03  0.16280631876E+03  0.00000000000E+00 0. -1.
         22    1    3    3    0    0 -0.31128476958E+01  0.18455114006E+02 -0.33806277090E+03  0.33858044557E+03  0.00000000000E+00 0.  1.
         22    1    3    3    0    0  0.48846377707E+02  0.62465425197E+02 -0.10863398760E+03  0.13449624985E+03  0.00000000000E+00 0.  1.
</event>
<event>
 7    1  0.6188600E-006  0.3270496E+02  0.7818608E-02  0.1629266E+00
          2   -1    0    0  502    0  0.00000000000E+00  0.00000000000E+00  0.65508809874E+02  0.65508809874E+02  0.00000000000E+00 0. -1.
          1   -1    0    0  501    0 -0.00000000000E+00 -0.00000000000E+00 -0.42737936396E+03  0.42737936396E+03  0.00000000000E+00 0. -1.
         25    2    1    2    0    0  0.10652795140E+02 -0.82542233614E+01 -0.22494809334E+03  0.25769805044E+03  0.12500010502E+03 0.  0.
          2    1    1    2  501    0 -0.33523247528E+02  0.91045499896E+01 -0.18165304559E+03  0.18494466720E+03  0.00000000000E+00 0. -1.
          1    1    1    2  502    0  0.22870452389E+02 -0.85032662822E+00  0.44730584841E+02  0.50245456193E+02  0.00000000000E+00 0. -1.
         22    1    3    3    0    0  0.67010308764E+02 -0.15250587356E+02 -0.11571230988E+03  0.13458194735E+03  0.00000000000E+00 0.  1.
         22    1    3    3    0    0 -0.56357513624E+02  0.69963639941E+01 -0.10923578347E+03  0.12311610309E+03  0.00000000000E+00 0.  1.
</event>
<event>
 7    1  0.6188600E-006  0.3978505E+03  0.7818608E-02  0.1138681E+00
          2   -1    0    0  502    0  0.00000000000E+00  0.00000000000E+00  0.83104697766E+03  0.83104697766E+03  0.00000000000E+00 0. -1.
          1   -1    0    0  501    0 -0.00000000000E+00 -0.00000000000E+00 -0.23655894447E+04  0.23655894447E+04  0.00000000000E+00 0. -1.
         25    2    1    2    0    0 -0.41573005151E+03 -0.10712194680E+03  0.24947792245E+03  0.51202653598E+03  0.12500141015E+03 0.  0.
          2    1    1    2  501    0  0.34462648062E+03  0.19721324916E+03 -0.22090017069E+04  0.22444039337E+04  0.00000000000E+00 0. -1.
          1    1    1    2  502    0  0.71103570890E+02 -0.90091302358E+02  0.42498131743E+03  0.44020595261E+03  0.00000000000E+00 0. -1.
         22    1    3    3    0    0 -0.25075081908E+03 -0.30824416502E+02  0.20383770251E+03  0.32461658443E+03  0.00000000000E+00 0. -1.
         22    1    3    3    0    0 -0.16497923243E+03 -0.76297530298E+02  0.45640219938E+02  0.18740995155E+03  0.00000000000E+00 0. -1.
</event>
<event>
 7    1  0.6188600E-006  0.9607961E+02  0.7818608E-02  0.1329381E+00
          2   -1    0    0  502    0  0.00000000000E+00  0.00000000000E+00  0.70374775449E+03  0.70374775449E+03  0.00000000000E+00 0. -1.
          1   -1    0    0  501    0 -0.00000000000E+00 -0.00000000000E+00 -0.34963953267E+03  0.34963953267E+03  0.00000000000E+00 0. -1.
         25    2    1    2    0    0  0.20942929697E+02  0.47539288828E+02  0.29667327656E+03  0.32609598946E+03  0.12499988413E+03 0.  0.
          2    1    1    2  501    0  0.26945868403E+02 -0.93561681950E+02 -0.32492826247E+03  0.33920236424E+03  0.00000000000E+00 0. -1.
          1    1    1    2  502    0 -0.47888798100E+02  0.46022393121E+02  0.38236320773E+03  0.38808893346E+03  0.00000000000E+00 0. -1.
         22    1    3    3    0    0 -0.28327298781E+02  0.67050829760E+02  0.22810118311E+03  0.23943349674E+03  0.00000000000E+00 0. -1.
         22    1    3    3    0    0  0.49270228478E+02 -0.19511540931E+02  0.68572093452E+02  0.86662492719E+02  0.00000000000E+00 0. -1.
</event>
<event>
 7    1  0.6188600E-006  0.5697995E+02  0.7818608E-02  0.1434463E+00
          2   -1    0    0  502    0  0.00000000000E+00  0.00000000000E+00  0.38275251426E+03  0.38275251426E+03  0.00000000000E+00 0. -1.
          1   -1    0    0  501    0 -0.00000000000E+00 -0.00000000000E+00 -0.38163897890E+03  0.38163897890E+03  0.00000000000E+00 0. -1.
         25    2    1    2    0    0  0.42237506227E+02  0.69657184744E+02 -0.27148118516E+03  0.30977332175E+03  0.12498538578E+03 0.  0.
          2    1    1    2  501    0  0.97733003188E+01 -0.46577172639E+02 -0.82365340284E+02  0.95126230296E+02  0.00000000000E+00 0. -1.
          1    1    1    2  502    0 -0.52010806546E+02 -0.23080012105E+02  0.35496006080E+03  0.35949194111E+03  0.00000000000E+00 0. -1.
         22    1    3    3    0    0 -0.17208499883E+02  0.86359934329E+01 -0.19295205154E+03  0.19391030670E+03  0.00000000000E+00 0. -1.
         22    1    3    3    0    0  0.59446006110E+02  0.61021191311E+02 -0.78529133620E+02  0.11586301506E+03  0.00000000000E+00 0. -1.
</event>
<event>
 7    1  0.6188600E-006  0.5901210E+02  0.7818608E-02  0.1471196E+00
          2   -1    0    0  502    0  0.00000000000E+00  0.00000000000E+00  0.69498220514E+03  0.69498220514E+03  0.00000000000E+00 0. -1.
          1   -1    0    0  501    0 -0.00000000000E+00 -0.00000000000E+00 -0.76877068852E+02  0.76877068852E+02  0.00000000000E+00 0. -1.
         25    2    1    2    0    0  0.24941991132E+02 -0.37702271802E+02  0.15241497322E+03  0.20223495741E+03  0.12500035887E+03 0.  0.
          2    1    1    2  501    0  0.11353583587E+01  0.61187593565E+02 -0.33117032821E+02  0.69584111030E+02  0.00000000000E+00 0. -1.
          1    1    1    2  502    0 -0.26077349491E+02 -0.23485321763E+02  0.49880719589E+03  0.50004020555E+03  0.00000000000E+00 0. -1.
         22    1    3    3    0    0 -0.47055369623E+02 -0.35400649679E+02  0.86191435450E+02  0.10438571431E+03  0.00000000000E+00 0. -1.
         22    1    3    3    0    0  0.71997360756E+02 -0.23016221235E+01  0.66223537769E+02  0.97849243098E+02  0.00000000000E+00 0. -1.
</event>
<event>
 7    1  0.6188600E-006  0.9560734E+02  0.7818608E-02  0.1308236E+00
          2   -1    0    0  502    0  0.00000000000E+00  0.00000000000E+00  0.93820531802E+02  0.93820531802E+02  0.00000000000E+00 0. -1.
          1   -1    0    0  501    0 -0.00000000000E+00 -0.00000000000E+00 -0.81010761413E+03  0.81010761413E+03  0.00000000000E+00 0. -1.
         25    2    1    2    0    0 -0.37090048340E+02 -0.52331411364E+02 -0.68870738005E+02  0.15646829546E+03  0.12499960252E+03 0.  0.
          2    1    1    2  501    0  0.10046499478E+03  0.24448832863E+01 -0.65843218731E+03  0.66605715815E+03  0.00000000000E+00 0. -1.
          1    1    1    2  502    0 -0.63374946439E+02  0.49886528078E+02  0.11015842991E+02  0.81402692318E+02  0.00000000000E+00 0. -1.
         22    1    3    3    0    0  0.22568699803E+02 -0.43680304967E+02 -0.81211995702E+02  0.94935259513E+02  0.00000000000E+00 0.  1.
         22    1    3    3    0    0 -0.59658748143E+02 -0.86511063970E+01  0.12341257698E+02  0.61533035951E+02  0.00000000000E+00 0.  1.
</event>
<event>
 7    1  0.6188600E-006  0.5835682E+02  0.7818608E-02  0.1498322E+00
          2   -1    0    0  502    0  0.00000000000E+00  0.00000000000E+00  0.16486861259E+04  0.16486861259E+04  0.00000000000E+00 0. -1.
          1   -1    0    0  501    0 -0.00000000000E+00 -0.00000000000E+00 -0.14498976688E+03  0.14498976688E+03  0.00000000000E+00 0. -1.
         25    2    1    2    0    0  0.47050519355E+01 -0.77914551471E+02  0.20990770924E+03  0.25647328096E+03  0.12499793040E+03 0.  0.
          2    1    1    2  501    0 -0.21393844477E+02  0.53787614319E+02 -0.11466265457E+03  0.12844581888E+03  0.00000000000E+00 0. -1.
          1    1    1    2  502    0  0.16688792541E+02  0.24126937152E+02  0.14084513044E+04  0.14087567929E+04  0.00000000000E+00 0. -1.
         22    1    3    3    0    0 -0.32724217977E+02  0.15651222222E+02  0.19847662344E+02  0.41349303498E+02  0.00000000000E+00 0.  1.
         22    1    3    3    0    0  0.37429269913E+02 -0.93565773693E+02  0.19006004690E+03  0.21512397746E+03  0.00000000000E+00 0.  1.
</event>
<event>
 7    1  0.1039601E-005  0.5999136E+02  0.7818608E-02  0.1448535E+00
          2   -1    0    0  502    0  0.00000000000E+00  0.00000000000E+00  0.25974638379E+04  0.25974638379E+04  0.00000000000E+00 0. -1.
          1   -1    0    0  501    0 -0.00000000000E+00 -0.00000000000E+00 -0.17176722276E+04  0.17176722276E+04  0.00000000000E+00 0. -1.
         25    2    1    2    0    0  0.65247315354E+02 -0.57410371336E+02 -0.13444248619E+03  0.20310912518E+03  0.12500148695E+03 0.  0.
          2    1    1    2  501    0 -0.57026776624E+02  0.17549752147E+02 -0.15481601508E+04  0.15493094912E+04  0.00000000000E+00 0. -1.
          1    1    1    2  502    0 -0.82205387298E+01  0.39860619189E+02  0.25623942472E+04  0.25627174491E+04  0.00000000000E+00 0. -1.
         22    1    3    3    0    0  0.96132493488E+02 -0.12861649512E+02 -0.74563791095E+02  0.12233820856E+03  0.00000000000E+00 0. -1.
         22    1    3    3    0    0 -0.30885178134E+02 -0.44548721823E+02 -0.59878695100E+02  0.80770916618E+02  0.00000000000E+00 0. -1.
</event>
<event>
 7    1  0.6188600E-006  0.2621924E+03  0.7818608E-02  0.1269161E+00
          2   -1    0    0  502    0  0.00000000000E+00  0.00000000000E+00  0.35228767129E+04  0.35228767129E+04  0.00000000000E+00 0. -1.
          1   -1    0    0  501    0 -0.00000000000E+00 -0.00000000000E+00 -0.45453908485E+02  0.45453908485E+02  0.00000000000E+00 0. -1.
         25    2    1    2    0    0 -0.21078776726E+02  0.26047752185E+03  0.16559149933E+04  0.16810625239E+04  0.12499555993E+03 0.  0.
          2    1    1    2  501    0  0.42336064617E+02  0.29823996860E+01 -0.40878255426E+01  0.42637394302E+02  0.00000000000E+00 0. -1.
          1    1    1    2  502    0 -0.21257287891E+02 -0.26345992154E+03  0.18255956366E+04  0.18446307032E+04  0.00000000000E+00 0. -1.
         22    1    3    3    0    0 -0.48973726988E+02  0.10338340298E+03  0.43599092765E+03  0.45074897997E+03  0.00000000000E+00 0.  1.
         22    1    3    3    0    0  0.27894950262E+02  0.15709411887E+03  0.12199240656E+04  0.12303135439E+04  0.00000000000E+00 0.  1.
</event>
<event>
 7    1  0.6188600E-006  0.5639913E+02  0.7818608E-02  0.1439714E+00
          2   -1    0    0  502    0  0.00000000000E+00  0.00000000000E+00  0.21405713469E+03  0.21405713469E+03  0.00000000000E+00 0. -1.
          1   -1    0    0  501    0 -0.00000000000E+00 -0.00000000000E+00 -0.60653307779E+03  0.60653307779E+03  0.00000000000E+00 0. -1.
         25    2    1    2    0    0 -0.37282129700E+02 -0.14274091392E+02 -0.24302874963E+03  0.27619168724E+03  0.12500067228E+03 0.  0.
          2    1    1    2  501    0  0.22120423706E+02 -0.40587068026E+02 -0.34123067918E+03  0.34434720799E+03  0.00000000000E+00 0. -1.
          1    1    1    2  502    0  0.15161705993E+02  0.54861159419E+02  0.19178348571E+03  0.20005131725E+03  0.00000000000E+00 0. -1.
         22    1    3    3    0    0 -0.14062859723E+02  0.55621659385E+02 -0.98950466433E+02  0.11437975268E+03  0.00000000000E+00 0. -1.
         22    1    3    3    0    0 -0.23219269977E+02 -0.69895750777E+02 -0.14407828320E+03  0.16181193456E+03  0.00000000000E+00 0. -1.
</event>
<event>
 7    1  0.6188600E-006  0.4465850E+02  0.7818608E-02  0.1538610E+00
          2   -1    0    0  502    0  0.00000000000E+00  0.00000000000E+00  0.80778311732E+02  0.80778311732E+02  0.00000000000E+00 0. -1.
          1   -1    0    0  501    0 -0.00000000000E+00 -0.00000000000E+00 -0.59221882636E+03  0.59221882636E+03  0.00000000000E+00 0. -1.
         25    2    1    2    0    0  0.28727271123E+02  0.58268126166E+02 -0.10276028433E+02  0.14124765483E+03  0.12499949041E+03 0.  0.
          2    1    1    2  501    0 -0.29985890573E+01 -0.44324050717E+02 -0.50051008130E+03  0.50247781493E+03  0.00000000000E+00 0. -1.
          1    1    1    2  502    0 -0.25728682066E+02 -0.13944075448E+02 -0.65440489077E+00  0.29271668328E+02  0.00000000000E+00 0. -1.
         22    1    3    3    0    0  0.46713730172E+02 -0.26491367392E+02  0.19755141319E+01  0.53738885260E+02  0.00000000000E+00 0. -1.
         22    1    3    3    0    0 -0.17986459049E+02  0.84759493558E+02 -0.12251542565E+02  0.87508769575E+02  0.00000000000E+00 0. -1.
</event>
<event>
 7    1  0.6603924E-006  0.8060533E+02  0.7818608E-02  0.1362449E+00
          2   -1    0    0  502    0  0.00000000000E+00  0.00000000000E+00  0.17344769426E+04  0.17344769426E+04  0.00000000000E+00 0. -1.
          1   -1    0    0  501    0 -0.00000000000E+00 -0.00000000000E+00 -0.35837046683E+03  0.35837046683E+03  0.00000000000E+00 0. -1.
         25    2    1    2    0    0  0.65471651774E+02  0.67258413027E+02  0.52485821908E+02  0.16489328442E+03  0.12499920974E+03 0.  0.
          2    1    1    2  501    0 -0.73830041002E+01 -0.80598843975E+02 -0.29618906241E+03  0.30704827486E+03  0.00000000000E+00 0. -1.
          1    1    1    2  502    0 -0.58088647673E+02  0.13340430947E+02  0.16198097163E+04  0.16209058502E+04  0.00000000000E+00 0. -1.
         22    1    3    3    0    0 -0.63882699560E+01  0.24218234314E+01 -0.34252537602E+02  0.34927232268E+02  0.00000000000E+00 0.  1.
         22    1    3    3    0    0  0.71859921730E+02  0.64836589596E+02  0.86738359509E+02  0.12996605215E+03  0.00000000000E+00 0.  1.
</event>
<event>
 7    1  0.6188600E-006  0.1469241E+03  0.7818608E-02  0.1399797E+00
          2   -1    0    0  502    0  0.00000000000E+00  0.00000000000E+00  0.69071944026E+03  0.69071944026E+03  0.00000000000E+00 0. -1.
          1   -1    0    0  501    0 -0.00000000000E+00 -0.00000000000E+00 -0.49926883563E+03  0.49926883563E+03  0.00000000000E+00 0. -1.
         25    2    1    2    0    0 -0.12408555065E+03  0.91081354945E+02 -0.44948339930E+03  0.49127616467E+03  0.12499562643E+03 0.  0.
          2    1    1    2  501    0 -0.61774145453E+01 -0.23319042338E+02 -0.13748055317E+02  0.27765936163E+02  0.00000000000E+00 0. -1.
          1    1    1    2  502    0  0.13026296520E+03 -0.67762312607E+02  0.65468205925E+03  0.67094617505E+03  0.00000000000E+00 0. -1.
         22    1    3    3    0    0 -0.14947502299E+02 -0.30280583660E+02 -0.10024576092E+03  0.10578068894E+03  0.00000000000E+00 0. -1.
         22    1    3    3    0    0 -0.10913804835E+03  0.12136193861E+03 -0.34923763839E+03  0.38549547573E+03  0.00000000000E+00 0. -1.
</event>
<event>
 7    1  0.6188600E-006  0.1059051E+03  0.7818608E-02  0.1295236E+00
          2   -1    0    0  502    0  0.00000000000E+00  0.00000000000E+00  0.18534961457E+03  0.18534961457E+03  0.00000000000E+00 0. -1.
          1   -1    0    0  501    0 -0.00000000000E+00 -0.00000000000E+00 -0.32689509702E+03  0.32689509702E+03  0.00000000000E+00 0. -1.
         25    2    1    2    0    0  0.26556965829E+02  0.94479343278E+01 -0.52046368729E+02  0.13830536070E+03  0.12500004961E+03 0.  0.
          2    1    1    2  501    0 -0.48667379040E+02  0.94123372612E+02 -0.19658888402E+03  0.22332691816E+03  0.00000000000E+00 0. -1.
          1    1    1    2  502    0  0.22110413211E+02 -0.10357130694E+03  0.10708977029E+03  0.15061243273E+03  0.00000000000E+00 0. -1.
         22    1    3    3    0    0  0.47359261027E+02 -0.18317216106E+02  0.22911679266E+02  0.55707854543E+02  0.00000000000E+00 0.  1.
         22    1    3    3    0    0 -0.20802295199E+02  0.27765150434E+02 -0.74958047996E+02  0.82597506158E+02  0.00000000000E+00 0.  1.
</event>
<event>
 7    1  0.6188600E-006  0.1541968E+03  0.7818608E-02  0.1197191E+00
          2   -1    0    0  502    0  0.00000000000E+00  0.00000000000E+00  0.23180842027E+03  0.23180842027E+03  0.00000000000E+00 0. -1.
          1   -1    0    0  501    0 -0.00000000000E+00 -0.00000000000E+00 -0.14746970306E+04  0.14746970306E+04  0.00000000000E+00 0. -1.
         25    2    1    2    0    0 -0.84909577808E+02 -0.48360961134E+02 -0.16688322964E+03  0.23026656262E+03  0.12499703420E+03 0.  0.
          2    1    1    2  501    0 -0.65161805599E+02  0.13646342960E+03 -0.12327755291E+04  0.12420160360E+04  0.00000000000E+00 0. -1.
          1    1    1    2  502    0  0.15007138341E+03 -0.88102468469E+02  0.15677014843E+03  0.23422285223E+03  0.00000000000E+00 0. -1.
         22    1    3    3    0    0 -0.20579317962E+01  0.38267662423E+02 -0.33119280852E+02  0.50651118791E+02  0.00000000000E+00 0. -1.
         22    1    3    3    0    0 -0.82851646012E+02 -0.86628623557E+02 -0.13376394878E+03  0.17961544382E+03  0.00000000000E+00 0. -1.
</event>
<event>
 7    1  0.6188600E-006  0.5861367E+02  0.7818608E-02  0.1493835E+00
          2   -1    0    0  502    0  0.00000000000E+00  0.00000000000E+00  0.17310929579E+04  0.17310929579E+04  0.00000000000E+00 0. -1.
          1   -1    0    0  501    0 -0.00000000000E+00 -0.00000000000E+00 -0.81788867747E+03  0.81788867747E+03  0.00000000000E+00 0. -1.
         25    2    1    2    0    0 -0.77919854386E+01  0.78611805120E+02 -0.19950743554E+02  0.14921983891E+03  0.12501198828E+03 0.  0.
          2    1    1    2  501    0  0.20996240581E+02 -0.21606076976E+02 -0.73247996505E+03  0.73309928651E+03  0.00000000000E+00 0. -1.
          1    1    1    2  502    0 -0.13204255142E+02 -0.57005728145E+02  0.16656349890E+04  0.16666625100E+04  0.00000000000E+00 0. -1.
         22    1    3    3    0    0  0.56055439276E+02  0.33179677998E+02 -0.27060151324E+02  0.70536197049E+02  0.00000000000E+00 0. -1.
         22    1    3    3    0    0 -0.63847424714E+02  0.45432127122E+02  0.71094077699E+01  0.78683641860E+02  0.00000000000E+00 0. -1.
</event>
<event>
 7    1  0.6188600E-006  0.2307398E+03  0.7818608E-02  0.1156769E+00
          2   -1    0    0  502    0  0.00000000000E+00  0.00000000000E+00  0.93958139951E+03  0.93958139951E+03  0.00000000000E+00 0. -1.
          1   -1    0    0  501    0 -0.00000000000E+00 -0.00000000000E+00 -0.34303899540E+04  0.34303899540E+04  0.00000000000E+00 0. -1.
         25    2    1    2    0    0 -0.42033347139E+02  0.38168247256E+03 -0.11180368966E+04  0.11887304308E+04  0.12500089095E+03 0.  0.
          2    1    1    2  501    0 -0.11436700840E+02 -0.15916924715E+03 -0.22596677618E+04  0.22652955748E+04  0.00000000000E+00 0. -1.
          1    1    1    2  502    0  0.53470047979E+02 -0.22251322541E+03  0.88689610386E+03  0.91594534802E+03  0.00000000000E+00 0. -1.
         22    1    3    3    0    0  0.27993828634E+02  0.19612908078E+03 -0.44562663738E+03  0.48768162843E+03  0.00000000000E+00 0.  1.
         22    1    3    3    0    0 -0.70027175773E+02  0.18555339178E+03 -0.67241025922E+03  0.70104880233E+03  0.00000000000E+00 0.  1.
</event>
<event>
 7    1  0.6188600E-006  0.9140214E+02  0.7818608E-02  0.1331489E+00
          2   -1    0    0  502    0  0.00000000000E+00  0.00000000000E+00  0.70839328491E+03  0.70839328491E+03  0.00000000000E+00 0. -1.
          1   -1    0    0  501    0 -0.00000000000E+00 -0.00000000000E+00 -0.15502032046E+04  0.15502032046E+04  0.00000000000E+00 0. -1.
         25    2    1    2    0    0  0.14820893234E+03 -0.39544131494E+02 -0.49045182171E+03  0.52886408307E+03  0.12499841194E+03 0.  0.
          2    1    1    2  501    0 -0.57163736221E+02  0.37807129989E+02 -0.10364005350E+04  0.10386641135E+04  0.00000000000E+00 0. -1.
          1    1    1    2  502    0 -0.91045196118E+02  0.17370015049E+01  0.68504243702E+03  0.69106829289E+03  0.00000000000E+00 0. -1.
         22    1    3    3    0    0  0.71797161943E+02  0.38205266436E+02 -0.14067011532E+03  0.16248863404E+03  0.00000000000E+00 0. -1.
         22    1    3    3    0    0  0.76411770396E+02 -0.77749397930E+02 -0.34978170638E+03  0.36637544903E+03  0.00000000000E+00 0. -1.
</event>
<event>
 7    1  0.6188600E-006  0.1566471E+03  0.7818608E-02  0.1257171E+00
          2   -1    0    0  502    0  0.00000000000E+00  0.00000000000E+00  0.14509668570E+03  0.14509668570E+03  0.00000000000E+00 0. -1.
          1   -1    0    0  501    0 -0.00000000000E+00 -0.00000000000E+00 -0.77935870398E+03  0.77935870398E+03  0.00000000000E+00 0. -1.
         25    2    1    2    0    0  0.11136226663E+03 -0.71498576526E+02 -0.28479291351E+03  0.33800593329E+03  0.12500962556E+03 0.  0.
          2    1    1    2  501    0 -0.33252802057E+02 -0.72620748050E+02 -0.40543977383E+03  0.41323229798E+03  0.00000000000E+00 0. -1.
          1    1    1    2  502    0 -0.78109464572E+02  0.14411932458E+03  0.55970669064E+02  0.17321715841E+03  0.00000000000E+00 0. -1.
         22    1    3    3    0    0  0.23894964763E+02 -0.17807212879E+02 -0.20723031081E+03  0.20936204979E+03  0.00000000000E+00 0. -1.
         22    1    3    3    0    0  0.87467301866E+02 -0.53691363647E+02 -0.77562602694E+02  0.12864388350E+03  0.00000000000E+00 0. -1.
</event>
<event>
 7    1  0.6188600E-006  0.3411515E+03  0.7818608E-02  0.1104059E+00
          2   -1    0    0  502    0  0.00000000000E+00  0.00000000000E+00  0.60371568712E+03  0.60371568712E+03  0.00000000000E+00 0. -1.
          1   -1    0    0  501    0 -0.00000000000E+00 -0.00000000000E+00 -0.12692951356E+04  0.12692951356E+04  0.00000000000E+00 0. -1.
         25    2    1    2    0    0 -0.28709369449E+03 -0.43410224869E+03 -0.10436134776E+03  0.54532923836E+03  0.12500054231E+03 0.  0.
          2    1    1    2  501    0  0.14678317340E+03  0.28306169561E+03 -0.88676516549E+03  0.94234902357E+03  0.00000000000E+00 0. -1.
          1    1    1    2  502    0  0.14031052109E+03  0.15104055308E+03  0.32554706477E+03  0.38533256076E+03  0.00000000000E+00 0. -1.
         22    1    3    3    0    0 -0.20559707485E+03 -0.39400509191E+03 -0.87252043783E+02  0.45290516533E+03  0.00000000000E+00 0.  1.
         22    1    3    3    0    0 -0.81496619638E+02 -0.40097156780E+02 -0.17109303976E+02  0.92424073037E+02  0.00000000000E+00 0.  1.
</event>
<event>
 7    1  0.6188600E-006  0.5008223E+02  0.7818608E-02  0.1507981E+00
          2   -1    0    0  502    0  0.00000000000E+00  0.00000000000E+00  0.10960249080E+04  0.10960249080E+04  0.00000000000E+00 0. -1.
          1   -1    0    0  501    0 -0.00000000000E+00 -0.00000000000E+00 -0.19187238284E+03  0.19187238284E+03  0.00000000000E+00 0. -1.
         25    2    1    2    0    0  0.71596701516E+02  0.17403697763E+02  0.26189446885E+03  0.29940420538E+03  0.12500075607E+03 0.  0.
          2    1    1    2  501    0 -0.30464438225E+02  0.97859493445E+01 -0.17088580104E+03  0.17385569820E+03  0.00000000000E+00 0. -1.
          1    1    1    2  502    0 -0.41132263290E+02 -0.27189647108E+02  0.81314385730E+03  0.81463738722E+03  0.00000000000E+00 0. -1.
         22    1    3    3    0    0  0.10157195024E+03  0.22899886145E+02  0.14441510315E+03  0.17803647907E+03  0.00000000000E+00 0. -1.
         22    1    3    3    0    0 -0.29975248726E+02 -0.54961883817E+01  0.11747936570E+03  0.12136772631E+03  0.00000000000E+00 0. -1.
</event>
<event>
 7    1  0.6188600E-006  0.1428692E+03  0.7818608E-02  0.1280165E+00
          2   -1    0    0  502    0  0.00000000000E+00  0.00000000000E+00  0.41496434128E+04  0.41496434128E+04  0.00000000000E+00 0. -1.
          1   -1    0    0  501    0 -0.00000000000E+00 -0.00000000000E+00 -0.50273155036E+03  0.50273155036E+03  0.00000000000E+00 0. -1.
         25    2    1    2    0    0 -0.17204777083E+03 -0.58870654388E+02 -0.15910244734E+03  0.27203849026E+03  0.12500064814E+03 0.  0.
          2    1    1    2  501    0  0.62216971977E+02 -0.32255210960E+02 -0.28162142871E+03  0.29021023301E+03  0.00000000000E+00 0. -1.
          1    1    1    2  502    0  0.10983079886E+03  0.91125865348E+02  0.40876357385E+04  0.40901262399E+04  0.00000000000E+00 0. -1.
         22    1    3    3    0    0 -0.96482484500E+02  0.28106886594E+02 -0.10294658367E+03  0.14386405381E+03  0.00000000000E+00 0.  1.
         22    1    3    3    0    0 -0.75565286333E+02 -0.86977540982E+02 -0.56155863670E+02  0.12817443645E+03  0.00000000000E+00 0.  1.
</event>
<event>
 7    1  0.6188600E-006  0.1433898E+03  0.7818608E-02  0.1262076E+00
          2   -1    0    0  502    0  0.00000000000E+00  0.00000000000E+00  0.68646847203E+03  0.68646847203E+03  0.00000000000E+00 0. -1.
          1   -1    0    0  501    0 -0.00000000000E+00 -0.00000000000E+00 -0.94829064686E+02  0.94829064686E+02  0.00000000000E+00 0. -1.
         25    2    1    2    0    0 -0.28732870335E+02  0.14204142204E+03  0.34219703338E+03  0.39207815636E+03  0.12500051051E+03 0.  0.
          2    1    1    2  501    0 -0.54276867844E+02 -0.13724811053E+03  0.24770285058E+02  0.14965490051E+03  0.00000000000E+00 0. -1.
          1    1    1    2  502    0  0.83009738179E+02 -0.47933115147E+01  0.22467208891E+03  0.23956447984E+03  0.00000000000E+00 0. -1.
         22    1    3    3    0    0 -0.38475805832E+02  0.12511625576E+03  0.15080057410E+03  0.19968795216E+03  0.00000000000E+00 0. -1.
         22    1    3    3    0    0  0.97429354965E+01  0.16925166277E+02  0.19139645928E+03  0.19239020419E+03  0.00000000000E+00 0. -1.
</event>
<event>
 7    1  0.6839744E-006  0.7130638E+02  0.7818608E-02  0.1373852E+00
          2   -1    0    0  502    0  0.00000000000E+00  0.00000000000E+00  0.38498799949E+03  0.38498799949E+03  0.00000000000E+00 0. -1.
          1   -1    0    0  501    0 -0.00000000000E+00 -0.00000000000E+00 -0.16236835121E+04  0.16236835121E+04  0.00000000000E+00 0. -1.
         25    2    1    2    0    0 -0.72260573526E+01 -0.75384600929E+01 -0.49390604842E+03  0.50958691744E+03  0.12500638976E+03 0.  0.
          2    1    1    2  501    0 -0.44439186826E+02 -0.42206895717E+02 -0.11176801223E+04  0.11193592449E+04  0.00000000000E+00 0. -1.
          1    1    1    2  502    0  0.51665244179E+02  0.49745355810E+02  0.37289065815E+03  0.37972534919E+03  0.00000000000E+00 0. -1.
         22    1    3    3    0    0 -0.51352143200E+01  0.58112653691E+02 -0.27079661903E+03  0.27700949411E+03  0.00000000000E+00 0.  1.
         22    1    3    3    0    0 -0.20908430326E+01 -0.65651113784E+02 -0.22310942938E+03  0.23257742334E+03  0.00000000000E+00 0.  1.
</event>
<event>
 7    1  0.6188600E-006  0.6569225E+02  0.7818608E-02  0.1453672E+00
          2   -1    0    0  502    0  0.00000000000E+00  0.00000000000E+00  0.14353899873E+04  0.14353899873E+04  0.00000000000E+00 0. -1.
          1   -1    0    0  501    0 -0.00000000000E+00 -0.00000000000E+00 -0.75312189858E+03  0.75312189858E+03  0.00000000000E+00 0. -1.
         25    2    1    2    0    0 -0.25632139267E+02 -0.16972251528E+02  0.34048084091E+01  0.12877147929E+03  0.12500174908E+03 0.  0.
          2    1    1    2  501    0 -0.33401010319E+02 -0.12854542543E+02 -0.68917528491E+03  0.69010393426E+03  0.00000000000E+00 0. -1.
          1    1    1    2  502    0  0.59033149587E+02  0.29826794071E+02  0.13680385652E+04  0.13696364723E+04  0.00000000000E+00 0. -1.
         22    1    3    3    0    0  0.95759879481E+01 -0.43273376546E+02 -0.45159489490E+02  0.63274514253E+02  0.00000000000E+00 0.  1.
         22    1    3    3    0    0 -0.35208127216E+02  0.26301125018E+02  0.48564297900E+02  0.65496965042E+02  0.00000000000E+00 0.  1.
</event>
<event>
 7    1  0.6188600E-006  0.2129927E+03  0.7818608E-02  0.1239251E+00
          2   -1    0    0  502    0  0.00000000000E+00  0.00000000000E+00  0.37642662647E+04  0.37642662647E+04  0.00000000000E+00 0. -1.
          1   -1    0    0  501    0 -0.00000000000E+00 -0.00000000000E+00 -0.24705760572E+04  0.24705760572E+04  0.00000000000E+00 0. -1.
         25    2    1    2    0    0  0.26696728144E+03 -0.67730528385E+02 -0.48315009911E+03  0.57001287717E+03  0.12498683142E+03 0.  0.
          2    1    1    2  501    0 -0.19960023824E+03  0.47651618867E+02 -0.19382456287E+04  0.19490785128E+04  0.00000000000E+00 0. -1.
          1    1    1    2  502    0 -0.67367043198E+02  0.20078909518E+02  0.37150859353E+04  0.37157509319E+04  0.00000000000E+00 0. -1.
         22    1    3    3    0    0  0.11265462876E+03  0.16647576442E+00 -0.30308004042E+03  0.32333976556E+03  0.00000000000E+00 0.  1.
         22    1    3    3    0    0  0.15431265268E+03 -0.67897004149E+02 -0.18007005870E+03  0.24667311161E+03  0.00000000000E+00 0.  1.
</event>
<event>
 7    1  0.6188600E-006  0.8043468E+02  0.7818608E-02  0.1340070E+00
          2   -1    0    0  502    0  0.00000000000E+00  0.00000000000E+00  0.23749424600E+03  0.23749424600E+03  0.00000000000E+00 0. -1.
          1   -1    0    0  501    0 -0.00000000000E+00 -0.00000000000E+00 -0.90032652496E+03  0.90032652496E+03  0.00000000000E+00 0. -1.
         25    2    1    2    0    0 -0.15828054195E+02  0.20758509959E+02 -0.17693776483E+02  0.12891620731E+03  0.12499950298E+03 0.  0.
          2    1    1    2  501    0 -0.55483824770E+02 -0.58234722388E+02 -0.81602583265E+03  0.81998042493E+03  0.00000000000E+00 0. -1.
          1    1    1    2  502    0  0.71311878966E+02  0.37476212428E+02  0.17088733018E+03  0.18892413873E+03  0.00000000000E+00 0. -1.
         22    1    3    3    0    0  0.18697470919E+02  0.34063692010E+02  0.42922936162E+02  0.57899127634E+02  0.00000000000E+00 0.  1.
         22    1    3    3    0    0 -0.34525525114E+02 -0.13305182051E+02 -0.60616712644E+02  0.71017079675E+02  0.00000000000E+00 0.  1.
</event>
<event>
 7    1  0.6188600E-006  0.6030642E+02  0.7818608E-02  0.1550503E+00
          2   -1    0    0  502    0  0.00000000000E+00  0.00000000000E+00  0.90361323220E+03  0.90361323220E+03  0.00000000000E+00 0. -1.
          1   -1    0    0  501    0 -0.00000000000E+00 -0.00000000000E+00 -0.73663227002E+02  0.73663227002E+02  0.00000000000E+00 0. -1.
         25    2    1    2    0    0 -0.45997872687E+02 -0.64235715127E+02  0.22426646605E+03  0.26862696825E+03  0.12499187529E+03 0.  0.
          2    1    1    2  501    0  0.93829839728E+01  0.17737231132E+02 -0.48138997288E+02  0.52153742113E+02  0.00000000000E+00 0. -1.
          1    1    1    2  502    0  0.36614888714E+02  0.46498483995E+02  0.65382253644E+03  0.65649574884E+03  0.00000000000E+00 0. -1.
         22    1    3    3    0    0  0.11834595659E+02 -0.80155447788E+02  0.87324313335E+02  0.11912383961E+03  0.00000000000E+00 0. -1.
         22    1    3    3    0    0 -0.57832468345E+02  0.15919732661E+02  0.13694215272E+03  0.14950312864E+03  0.00000000000E+00 0. -1.
</event>
<event>
 7    1  0.6188600E-006  0.2489011E+03  0.7818608E-02  0.1296309E+00
          2   -1    0    0  502    0  0.00000000000E+00  0.00000000000E+00  0.19015337876E+04  0.19015337876E+04  0.00000000000E+00 0. -1.
          1   -1    0    0  501    0 -0.00000000000E+00 -0.00000000000E+00 -0.67573678318E+03  0.67573678318E+03  0.00000000000E+00 0. -1.
         25    2    1    2    0    0  0.13131765048E+02  0.27334343808E+03  0.70078800276E+03  0.76263866430E+03  0.12499931636E+03 0.  0.
          2    1    1    2  501    0 -0.43434677362E+00 -0.34564821544E+02 -0.63211521874E+03  0.63305968542E+03  0.00000000000E+00 0. -1.
          1    1    1    2  502    0 -0.12697418275E+02 -0.23877861653E+03  0.11571242204E+04  0.11815722211E+04  0.00000000000E+00 0. -1.
         22    1    3    3    0    0 -0.24349265892E+02  0.19997391961E+02  0.17477833002E+03  0.17759574060E+03  0.00000000000E+00 0.  1.
         22    1    3    3    0    0  0.37481030941E+02  0.25334604612E+03  0.52600967273E+03  0.58504292370E+03  0.00000000000E+00 0.  1.
</event>
<event>
 7    1  0.6188600E-006  0.1524492E+03  0.7818608E-02  0.1288797E+00
          2   -1    0    0  502    0  0.00000000000E+00  0.00000000000E+00  0.27394223302E+04  0.27394223302E+04  0.00000000000E+00 0. -1.
          1   -1    0    0  501    0 -0.00000000000E+00 -0.00000000000E+00 -0.79929740623E+03  0.79929740623E+03  0.00000000000E+00 0. -1.
         25    2    1    2    0    0  0.80036323850E+02  0.12890706115E+03 -0.92485943654E+02  0.21725833218E+03  0.12499875831E+03 0.  0.
          2    1    1    2  501    0  0.44646011750E+02 -0.40879134739E+02 -0.64082231616E+03  0.64367508179E+03  0.00000000000E+00 0. -1.
          1    1    1    2  502    0 -0.12468233560E+03 -0.88027926408E+02  0.26734331838E+04  0.26777863225E+04  0.00000000000E+00 0. -1.
         22    1    3    3    0    0  0.21042979839E+02  0.12567369381E+03 -0.93697257072E+02  0.15816402973E+03  0.00000000000E+00 0.  1.
         22    1    3    3    0    0  0.58993344011E+02  0.32333673319E+01  0.12113134173E+01  0.59094302450E+02  0.00000000000E+00 0.  1.
</event>
<event>
 7    1  0.6188600E-006  0.1145472E+03  0.7818608E-02  0.1359676E+00
          2   -1    0    0  502    0  0.00000000000E+00  0.00000000000E+00  0.15783873223E+03  0.15783873223E+03  0.00000000000E+00 0. -1.
          1   -1    0    0  501    0 -0.00000000000E+00 -0.00000000000E+00 -0.18416242219E+04  0.18416242219E+04  0.00000000000E+00 0. -1.
         25    2    1    2    0    0  0.73528392325E+02  0.59243345297E+02 -0.40105283359E+03  0.43056282535E+03  0.12499909120E+03 0.  0.
          2    1    1    2  501    0 -0.14266277611E+02  0.40487530552E+02 -0.14019191052E+04  0.14025761813E+04  0.00000000000E+00 0. -1.
          1    1    1    2  502    0 -0.59262114714E+02 -0.99730875849E+02  0.11918644915E+03  0.16632394746E+03  0.00000000000E+00 0. -1.
         22    1    3    3    0    0 -0.15545120339E+02 -0.25852900533E+02 -0.48594284427E+02  0.57196395964E+02  0.00000000000E+00 0.  1.
         22    1    3    3    0    0  0.89073512664E+02  0.85096245831E+02 -0.35245854917E+03  0.37336642939E+03  0.00000000000E+00 0.  1.
</event>
<event>
 7    1  0.6188600E-006  0.1059699E+03  0.7818608E-02  0.1354751E+00
          2   -1    0    0  502    0  0.00000000000E+00  0.00000000000E+00  0.95952778325E+03  0.95952778325E+03  0.00000000000E+00 0. -1.
          1   -1    0    0  501    0 -0.00000000000E+00 -0.00000000000E+00 -0.11599450999E+04  0.11599450999E+04  0.00000000000E+00 0. -1.
         25    2    1    2    0    0  0.47545226091E+02  0.47381422582E+02 -0.63591929469E+01  0.14202181764E+03  0.12499683844E+03 0.  0.
          2    1    1    2  501    0 -0.95893590141E+02 -0.48858438021E+02 -0.10824280504E+04  0.10877652375E+04  0.00000000000E+00 0. -1.
          1    1    1    2  502    0  0.48348364050E+02  0.14770154390E+01  0.88836992671E+03  0.88968582801E+03  0.00000000000E+00 0. -1.
         22    1    3    3    0    0  0.25134584151E+02  0.87395589183E+02 -0.22007515179E+02  0.93563171459E+02  0.00000000000E+00 0.  1.
         22    1    3    3    0    0  0.22410641939E+02 -0.40014166602E+02  0.15648322232E+02  0.48458646181E+02  0.00000000000E+00 0.  1.
</event>
<event>
 7    1  0.6188600E-006  0.4867571E+02  0.7818608E-02  0.1492334E+00
          2   -1    0    0  502    0  0.00000000000E+00  0.00000000000E+00  0.42286421945E+03  0.42286421945E+03  0.00000000000E+00 0. -1.
          1   -1    0    0  501    0 -0.00000000000E+00 -0.00000000000E+00 -0.20122826642E+03  0.20122826642E+03  0.00000000000E+00 0. -1.
         25    2    1    2    0    0  0.16427632118E+02 -0.73574769501E+02  0.23597086817E+03  0.27747002744E+03  0.12499700675E+03 0.  0.
          2    1    1    2  501    0 -0.22719485849E+02  0.28768908576E+02 -0.17546859363E+03  0.17925694544E+03  0.00000000000E+00 0. -1.
          1    1    1    2  502    0  0.62918537310E+01  0.44805860925E+02  0.16113367848E+03  0.16736551299E+03  0.00000000000E+00 0. -1.
         22    1    3    3    0    0 -0.18769756248E+02  0.19671517212E+02  0.12664702710E+03  0.12953278277E+03  0.00000000000E+00 0. -1.
         22    1    3    3    0    0  0.35197388366E+02 -0.93246286713E+02  0.10932384107E+03  0.14793724467E+03  0.00000000000E+00 0. -1.
</event>
<event>
 7    1  0.6188600E-006  0.1318984E+03  0.7818608E-02  0.1343431E+00
          2   -1    0    0  502    0  0.00000000000E+00  0.00000000000E+00  0.18425617247E+04  0.18425617247E+04  0.00000000000E+00 0. -1.
          1   -1    0    0  501    0 -0.00000000000E+00 -0.00000000000E+00 -0.14450786085E+04  0.14450786085E+04  0.00000000000E+00 0. -1.
         25    2    1    2    0    0  0.75111786398E+01 -0.12642229234E+03  0.45357067137E+03  0.48722730694E+03  0.12500032360E+03 0.  0.
          2    1    1    2  501    0 -0.50100603778E+02  0.12209722858E+03 -0.14248661489E+04  0.14309651798E+04  0.00000000000E+00 0. -1.
          1    1    1    2  502    0  0.42589425138E+02  0.43250637602E+01  0.13687785937E+04  0.13694478463E+04  0.00000000000E+00 0. -1.
         22    1    3    3    0    0 -0.19690602528E+02  0.11124131606E+02  0.15897623076E+02  0.27644177530E+02  0.00000000000E+00 0. -1.
         22    1    3    3    0    0  0.27201781167E+02 -0.13754642395E+03  0.43767304829E+03  0.45958312941E+03  0.00000000000E+00 0. -1.
</event>
<event>
 7    1  0.6188600E-006  0.5347009E+02  0.7818608E-02  0.1520467E+00
          2   -1    0    0  502    0  0.00000000000E+00  0.00000000000E+00  0.28374373845E+03  0.28374373845E+03  0.00000000000E+00 0. -1.
          1   -1    0    0  501    0 -0.00000000000E+00 -0.00000000000E+00 -0.95094007665E+03  0.95094007665E+03  0.00000000000E+00 0. -1.
         25    2    1    2    0    0  0.57299942270E+02 -0.42443922810E+02 -0.31678131015E+03  0.34793725514E+03  0.12500066035E+03 0.  0.
          2    1    1    2  501    0 -0.62765035186E+01  0.26827116264E+02 -0.61561523150E+03  0.61623145158E+03  0.00000000000E+00 0. -1.
          1    1    1    2  502    0 -0.51023438751E+02  0.15616806546E+02  0.26520020345E+03  0.27051510838E+03  0.00000000000E+00 0. -1.
         22    1    3    3    0    0  0.43198812343E+02 -0.54266797675E+02 -0.32153516612E+03  0.32893143019E+03  0.00000000000E+00 0. -1.
         22    1    3    3    0    0  0.14101129927E+02  0.11822874866E+02  0.47538559701E+01  0.19005824946E+02  0.00000000000E+00 0. -1.
</event>
<event>
 7    1  0.6188600E-006  0.9337189E+02  0.7818608E-02  0.1478897E+00
          2   -1    0    0  502    0  0.00000000000E+00  0.00000000000E+00  0.12984200224E+04  0.12984200224E+04  0.00000000000E+00 0. -1.
          1   -1    0    0  501    0 -0.00000000000E+00 -0.00000000000E+00 -0.84749828532E+02  0.84749828532E+02  0.00000000000E+00 0. -1.
         25    2    1    2    0    0  0.59883843475E+02 -0.55515465575E+02  0.56171527651E+03  0.58122115416E+03  0.12500374612E+03 0.  0.
          2    1    1    2  501    0 -0.79992192215E+02  0.49469728289E+02 -0.45288659734E+02  0.10438902017E+03  0.00000000000E+00 0. -1.
          1    1    1    2  502    0  0.20108348740E+02  0.60457372854E+01  0.69724357711E+03  0.69755967662E+03  0.00000000000E+00 0. -1.
         22    1    3    3    0    0  0.11302741591E+02 -0.42200416037E+02  0.49840579056E+03  0.50031685875E+03  0.00000000000E+00 0. -1.
         22    1    3    3    0    0  0.48581101884E+02 -0.13315049538E+02  0.63309485953E+02  0.80904295412E+02  0.00000000000E+00 0. -1.
</event>
<event>
 7    1  0.6188600E-006  0.1450689E+03  0.7818608E-02  0.1236045E+00
          2   -1    0    0  502    0  0.00000000000E+00  0.00000000000E+00  0.19007697082E+04  0.19007697082E+04  0.00000000000E+00 0. -1.
          1   -1    0    0  501    0 -0.00000000000E+00 -0.00000000000E+00 -0.52631328568E+03  0.52631328568E+03  0.00000000000E+00 0. -1.
         25    2    1    2    0    0 -0.13659735586E+03 -0.11296723022E+03  0.10787906400E+03  0.24224570185E+03  0.12499861953E+03 0.  0.
          2    1    1    2  501    0 -0.83972416518E+01  0.10630657326E+03 -0.44983333314E+03  0.46230036642E+03  0.00000000000E+00 0. -1.
          1    1    1    2  502    0  0.14499459752E+03  0.66606569600E+01  0.17164106916E+04  0.17225369256E+04  0.00000000000E+00 0. -1.
         22    1    3    3    0    0 -0.13548950785E+03 -0.71971092674E+02  0.12491119585E+03  0.19783844865E+03  0.00000000000E+00 0.  1.
         22    1    3    3    0    0 -0.11078480128E+01 -0.40996137551E+02 -0.17032131850E+02  0.44407253198E+02  0.00000000000E+00 0.  1.
</event>
<event>
 7    1  0.6188600E-006  0.8024523E+02  0.7818608E-02  0.1368058E+00
          2   -1    0    0  502    0  0.00000000000E+00  0.00000000000E+00  0.17415112723E+04  0.17415112723E+04  0.00000000000E+00 0. -1.
          1   -1    0    0  501    0 -0.00000000000E+00 -0.00000000000E+00 -0.32009942525E+03  0.32009942525E+03  0.00000000000E+00 0. -1.
         25    2    1    2    0    0  0.79761999747E+02  0.11120826548E+03  0.98391975965E+03  0.10012250626E+04  0.12499711064E+03 0.  0.
          2    1    1    2  501    0 -0.43359428046E+02 -0.67173993138E+02 -0.30520029217E+03  0.31549897575E+03  0.00000000000E+00 0. -1.
          1    1    1    2  502    0 -0.36402571701E+02 -0.44034272346E+02  0.74269237958E+03  0.74488665920E+03  0.00000000000E+00 0. -1.
         22    1    3    3    0    0  0.69189541506E+02  0.33100487534E+02  0.75956233099E+03  0.76342502552E+03  0.00000000000E+00 0. -1.
         22    1    3    3    0    0  0.10572458241E+02  0.78107777950E+02  0.22435742866E+03  0.23780003710E+03  0.00000000000E+00 0. -1.
</event>
<event>
 7    1  0.6188600E-006  0.8758608E+02  0.7818608E-02  0.1342978E+00
          2   -1    0    0  502    0  0.00000000000E+00  0.00000000000E+00  0.18318631640E+04  0.18318631640E+04  0.00000000000E+00 0. -1.
          1   -1    0    0  501    0 -0.00000000000E+00 -0.00000000000E+00 -0.88009096887E+02  0.88009096887E+02  0.00000000000E+00 0. -1.
         25    2    1    2    0    0 -0.55529109999E+02 -0.98650937994E+02  0.27921983535E+03  0.32619667536E+03  0.12500025974E+03 0.  0.
          2    1    1    2  501    0 -0.22924535511E+02  0.60522419675E+02 -0.46711222452E+02  0.79815010585E+02  0.00000000000E+00 0. -1.
          1    1    1    2  502    0  0.78453645510E+02  0.38128518319E+02  0.15113454542E+04  0.15138605749E+04  0.00000000000E+00 0. -1.
         22    1    3    3    0    0  0.29145814690E+02 -0.36076223850E+01  0.15143976649E+02  0.33042903655E+02  0.00000000000E+00 0.  1.
         22    1    3    3    0    0 -0.84674924688E+02 -0.95043315609E+02  0.26407585871E+03  0.29315377170E+03  0.00000000000E+00 0.  1.
</event>
<event>
 7    1  0.6188600E-006  0.1450281E+03  0.7818608E-02  0.1381693E+00
          2   -1    0    0  502    0  0.00000000000E+00  0.00000000000E+00  0.72789669020E+03  0.72789669020E+03  0.00000000000E+00 0. -1.
          1   -1    0    0  501    0 -0.00000000000E+00 -0.00000000000E+00 -0.33149158312E+03  0.33149158312E+03  0.00000000000E+00 0. -1.
         25    2    1    2    0    0  0.14329219134E+03  0.72294678377E+02  0.11439729192E+03  0.23338962547E+03  0.12499921702E+03 0.  0.
          2    1    1    2  501    0 -0.77476360799E+01 -0.27178485340E+02 -0.26201365549E+03  0.26353339749E+03  0.00000000000E+00 0. -1.
          1    1    1    2  502    0 -0.13554455526E+03 -0.45116193036E+02  0.54402147064E+03  0.56246525035E+03  0.00000000000E+00 0. -1.
         22    1    3    3    0    0 -0.14400304562E+02  0.34535473536E+02  0.40672804962E+02  0.55266126762E+02  0.00000000000E+00 0.  1.
         22    1    3    3    0    0  0.15769249590E+03  0.37759204841E+02  0.73724486961E+02  0.17812349870E+03  0.00000000000E+00 0.  1.
</event>
<event>
 7    1  0.6188600E-006  0.2048388E+03  0.7818608E-02  0.1239656E+00
          2   -1    0    0  502    0  0.00000000000E+00  0.00000000000E+00  0.13717658358E+03  0.13717658358E+03  0.00000000000E+00 0. -1.
          1   -1    0    0  501    0 -0.00000000000E+00 -0.00000000000E+00 -0.53860820732E+03  0.53860820732E+03  0.00000000000E+00 0. -1.
         25    2    1    2    0    0  0.16719885585E+03 -0.26293569310E+02 -0.22480836461E+03  0.30791305405E+03  0.12499935549E+03 0.  0.
          2    1    1    2  501    0  0.43261675183E+02 -0.58543018827E+02 -0.10904001511E+03  0.13110523440E+03  0.00000000000E+00 0. -1.
          1    1    1    2  502    0 -0.21046053103E+03  0.84836588136E+02 -0.67583244024E+02  0.23676650245E+03  0.00000000000E+00 0. -1.
         22    1    3    3    0    0  0.82443080515E+02 -0.29409450943E+02 -0.25282993961E+02  0.91109862876E+02  0.00000000000E+00 0.  1.
         22    1    3    3    0    0  0.84755775331E+02  0.31158816338E+01 -0.19952537065E+03  0.21680319118E+03  0.00000000000E+00 0.  1.
</event>
<event>
 7    1  0.6188600E-006  0.4678680E+02  0.7818608E-02  0.1478381E+00
          2   -1    0    0  502    0  0.00000000000E+00  0.00000000000E+00  0.28071324947E+03  0.28071324947E+03  0.00000000000E+00 0. -1.
          1   -1    0    0  501    0 -0.00000000000E+00 -0.00000000000E+00 -0.55654719703E+03  0.55654719703E+03  0.00000000000E+00 0. -1.
         25    2    1    2    0    0 -0.14095777839E+02  0.17019793005E+02 -0.29678960239E+03  0.32279632664E+03  0.12500014440E+03 0.  0.
          2    1    1    2  501    0 -0.31732250311E+02 -0.27603314570E+02 -0.24286693608E+03  0.24648169775E+03  0.00000000000E+00 0. -1.
          1    1    1    2  502    0  0.45828028150E+02  0.10583521565E+02  0.26382259090E+03  0.26798242211E+03  0.00000000000E+00 0. -1.
         22    1    3    3    0    0 -0.46170104663E+02  0.12088079773E+02 -0.28389227407E+03  0.28787605581E+03  0.00000000000E+00 0.  1.
         22    1    3    3    0    0  0.32074326825E+02  0.49317132322E+01 -0.12897328324E+02  0.34920270826E+02  0.00000000000E+00 0.  1.
</event>
<event>
 7    1  0.6188600E-006  0.1354537E+03  0.7818608E-02  0.1244502E+00
          2   -1    0    0  502    0  0.00000000000E+00  0.00000000000E+00  0.10905879401E+04  0.10905879401E+04  0.00000000000E+00 0. -1.
          1   -1    0    0  501    0 -0.00000000000E+00 -0.00000000000E+00 -0.11084132793E+04  0.11084132793E+04  0.00000000000E+00 0. -1.
         25    2    1    2    0    0 -0.11916653191E+03 -0.58335292901E+02 -0.35008347377E+03  0.39469777147E+03  0.12499689385E+03 0.  0.
          2    1    1    2  501    0  0.49980397506E+02  0.13706883103E+03 -0.72617863485E+03  0.74068975576E+03  0.00000000000E+00 0. -1.
          1    1    1    2  502    0  0.69186134405E+02 -0.78733538129E+02  0.10584367695E+04  0.10636136922E+04  0.00000000000E+00 0. -1.
         22    1    3    3    0    0 -0.71821646980E+02 -0.14408266020E+02 -0.31033227993E+03  0.31886058250E+03  0.00000000000E+00 0. -1.
         22    1    3    3    0    0 -0.47344884931E+02 -0.43927026881E+02 -0.39751193841E+02  0.75837188974E+02  0.00000000000E+00 0. -1.
</event>
<event>
 7    1  0.6188600E-006  0.2088850E+03  0.7818608E-02  0.1191610E+00
          2   -1    0    0  502    0  0.00000000000E+00  0.00000000000E+00  0.30423357900E+03  0.30423357900E+03  0.00000000000E+00 0. -1.
          1   -1    0    0  501    0 -0.00000000000E+00 -0.00000000000E+00 -0.11468930573E+04  0.11468930573E+04  0.00000000000E+00 0. -1.
         25    2    1    2    0    0  0.28003089199E+03  0.85578389033E+02  0.80224573251E+01  0.31847440725E+03  0.12498250724E+03 0.  0.
          2    1    1    2  501    0 -0.11816185173E+03 -0.11022361067E+02 -0.93003064998E+03  0.93757171755E+03  0.00000000000E+00 0. -1.
          1    1    1    2  502    0 -0.16186904026E+03 -0.74556027967E+02  0.79348714339E+02  0.19508051151E+03  0.00000000000E+00 0. -1.
         22    1    3    3    0    0  0.61480883167E+02  0.45990613342E+02  0.51099617890E+02  0.92229097681E+02  0.00000000000E+00 0. -1.
         22    1    3    3    0    0  0.21855000882E+03  0.39587775691E+02 -0.43077160565E+02  0.22624530957E+03  0.00000000000E+00 0. -1.
</event>
<event>
 7    1  0.6188600E-006  0.2181626E+03  0.7818608E-02  0.1309709E+00
          2   -1    0    0  502    0  0.00000000000E+00  0.00000000000E+00  0.61797129410E+03  0.61797129410E+03  0.00000000000E+00 0. -1.
          1   -1    0    0  501    0 -0.00000000000E+00 -0.00000000000E+00 -0.60219364139E+03  0.60219364139E+03  0.00000000000E+00 0. -1.
         25    2    1    2    0    0 -0.21342370031E+03  0.43799135233E+02  0.13226675034E+03  0.28387843446E+03  0.12499772880E+03 0.  0.
          2    1    1    2  501    0  0.20427747201E+03 -0.77454042384E+02 -0.50290070684E+03  0.54830423598E+03  0.00000000000E+00 0. -1.
          1    1    1    2  502    0  0.91462282960E+01  0.33654907151E+02  0.38641160921E+03  0.38798226506E+03  0.00000000000E+00 0. -1.
         22    1    3    3    0    0 -0.61330704573E+02  0.30153040474E+02 -0.16908706808E+02  0.70402880191E+02  0.00000000000E+00 0. -1.
         22    1    3    3    0    0 -0.15209299574E+03  0.13646094758E+02  0.14917545715E+03  0.21347555427E+03  0.00000000000E+00 0. -1.
</event>
<event>
 7    1  0.6188600E-006  0.1185825E+03  0.7818608E-02  0.1343798E+00
          2   -1    0    0  502    0  0.00000000000E+00  0.00000000000E+00  0.23389843065E+03  0.23389843065E+03  0.00000000000E+00 0. -1.
          1   -1    0    0  501    0 -0.00000000000E+00 -0.00000000000E+00 -0.20494522392E+04  0.20494522392E+04  0.00000000000E+00 0. -1.
         25    2    1    2    0    0 -0.93746710886E+02 -0.11852418886E+02  0.17298590867E+01  0.15670675052E+03  0.12500035044E+03 0.  0.
          2    1    1    2  501    0  0.11534337280E+03 -0.30414985290E+02 -0.19664721311E+04  0.19700867512E+04  0.00000000000E+00 0. -1.
          1    1    1    2  502    0 -0.21596661919E+02  0.42267404176E+02  0.14918846345E+03  0.15655716812E+03  0.00000000000E+00 0. -1.
         22    1    3    3    0    0  0.61614163304E+01 -0.19720711755E+01  0.46380738983E+02  0.46829745510E+02  0.00000000000E+00 0. -1.
         22    1    3    3    0    0 -0.99908127216E+02 -0.98803477104E+01 -0.44650879897E+02  0.10987700501E+03  0.00000000000E+00 0. -1.
</event>
<event>
 7    1  0.6188600E-006  0.1068405E+03  0.7818608E-02  0.1442574E+00
          2   -1    0    0  502    0  0.00000000000E+00  0.00000000000E+00  0.10911628713E+03  0.10911628713E+03  0.00000000000E+00 0. -1.
          1   -1    0    0  501    0 -0.00000000000E+00 -0.00000000000E+00 -0.43747255723E+03  0.43747255723E+03  0.00000000000E+00 0. -1.
         25    2    1    2    0    0  0.82281258489E+01 -0.91619635367E+02 -0.19312602076E+03  0.24775948242E+03  0.12500096637E+03 0.  0.
          2    1    1    2  501    0 -0.16142317813E+02 -0.17605241267E+02 -0.17922628187E+03  0.18081089309E+03  0.00000000000E+00 0. -1.
          1    1    1    2  502    0  0.79141919642E+01  0.10922487663E+03  0.43996032534E+02  0.11801846885E+03  0.00000000000E+00 0. -1.
         22    1    3    3    0    0 -0.19894889101E+02  0.33457872265E+01 -0.12718238956E+03  0.12877251694E+03  0.00000000000E+00 0. -1.
         22    1    3    3    0    0  0.28123014950E+02 -0.94965422594E+02 -0.65943631205E+02  0.11898696548E+03  0.00000000000E+00 0. -1.
</event>
<event>
 7    1  0.6188600E-006  0.9692934E+02  0.7818608E-02  0.1321777E+00
          2   -1    0    0  502    0  0.00000000000E+00  0.00000000000E+00  0.58583780051E+03  0.58583780051E+03  0.00000000000E+00 0. -1.
          1   -1    0    0  501    0 -0.00000000000E+00 -0.00000000000E+00 -0.67219218644E+03  0.67219218644E+03  0.00000000000E+00 0. -1.
         25    2    1    2    0    0  0.70465926682E+02  0.35102448770E+01 -0.14998175485E+03  0.20759587147E+03  0.12499500160E+03 0.  0.
          2    1    1    2  501    0  0.12565322107E+01 -0.70411755692E+02 -0.48653099800E+03  0.49160126752E+03  0.00000000000E+00 0. -1.
          1    1    1    2  502    0 -0.71722458893E+02  0.66901510815E+02  0.55015836692E+03  0.55883284795E+03  0.00000000000E+00 0. -1.
         22    1    3    3    0    0  0.92426398402E+02  0.39272875578E+02 -0.11722058403E+03  0.15435563870E+03  0.00000000000E+00 0.  1.
         22    1    3    3    0    0 -0.21960471719E+02 -0.35762630701E+02 -0.32761170815E+02  0.53240232776E+02  0.00000000000E+00 0.  1.
</event>
<event>
 7    1  0.6188600E-006  0.7956839E+02  0.7818608E-02  0.1468104E+00
          2   -1    0    0  502    0  0.00000000000E+00  0.00000000000E+00  0.14567421960E+03  0.14567421960E+03  0.00000000000E+00 0. -1.
          1   -1    0    0  501    0 -0.00000000000E+00 -0.00000000000E+00 -0.13353731211E+04  0.13353731211E+04  0.00000000000E+00 0. -1.
         25    2    1    2    0    0  0.56981813375E+02 -0.15153860663E+02 -0.53142471360E+03  0.54910307533E+03  0.12500157821E+03 0.  0.
          2    1    1    2  501    0 -0.79942835533E+02  0.28604548033E+02 -0.79152318186E+03  0.79606408319E+03  0.00000000000E+00 0. -1.
          1    1    1    2  502    0  0.22961022158E+02 -0.13450687371E+02  0.13324899395E+03  0.13588018221E+03  0.00000000000E+00 0. -1.
         22    1    3    3    0    0  0.62817328990E+02 -0.52847901595E+02 -0.21084353908E+03  0.22626072460E+03  0.00000000000E+00 0.  1.
         22    1    3    3    0    0 -0.58355156151E+01  0.37694040933E+02 -0.32058117452E+03  0.32284235073E+03  0.00000000000E+00 0.  1.
</event>
<event>
 7    1  0.6188600E-006  0.1848582E+03  0.7818608E-02  0.1241350E+00
          2   -1    0    0  502    0  0.00000000000E+00  0.00000000000E+00  0.98013115533E+03  0.98013115533E+03  0.00000000000E+00 0. -1.
          1   -1    0    0  501    0 -0.00000000000E+00 -0.00000000000E+00 -0.67064282909E+03  0.67064282909E+03  0.00000000000E+00 0. -1.
         25    2    1    2    0    0  0.19093998700E+03 -0.66763028873E+02  0.35983736185E+03  0.43130945577E+03  0.12501815463E+03 0.  0.
          2    1    1    2  501    0 -0.18439023315E+03 -0.12252886642E+02 -0.61864930969E+03  0.64566001866E+03  0.00000000000E+00 0. -1.
          1    1    1    2  502    0 -0.65497538497E+01  0.79015915515E+02  0.56830027407E+03  0.57380450999E+03  0.00000000000E+00 0. -1.
         22    1    3    3    0    0  0.37137966807E+02  0.23439970073E+02  0.14822497753E+03  0.15459399969E+03  0.00000000000E+00 0. -1.
         22    1    3    3    0    0  0.15380202019E+03 -0.90202998946E+02  0.21161238432E+03  0.27671545608E+03  0.00000000000E+00 0. -1.
</event>
<event>
 7    1  0.6188600E-006  0.2987940E+03  0.7818608E-02  0.1249124E+00
          2   -1    0    0  502    0  0.00000000000E+00  0.00000000000E+00  0.48079671842E+03  0.48079671842E+03  0.00000000000E+00 0. -1.
          1   -1    0    0  501    0 -0.00000000000E+00 -0.00000000000E+00 -0.18621470041E+04  0.18621470041E+04  0.00000000000E+00 0. -1.
         25    2    1    2    0    0 -0.21076309540E+03  0.24238906259E+03  0.13718097896E+03  0.37096687086E+03  0.12499703292E+03 0.  0.
          2    1    1    2  501    0  0.95769037598E+01 -0.44337927548E+02 -0.16569403905E+04  0.16575611683E+04  0.00000000000E+00 0. -1.
          1    1    1    2  502    0  0.20118619164E+03 -0.19805113505E+03  0.13840912591E+03  0.31441568335E+03  0.00000000000E+00 0. -1.
         22    1    3    3    0    0  0.28139291133E+01  0.13079170997E+02  0.41068877141E+02  0.43193003839E+02  0.00000000000E+00 0. -1.
         22    1    3    3    0    0 -0.21357702451E+03  0.22930989160E+03  0.96112101818E+02  0.32777386702E+03  0.00000000000E+00 0. -1.
</event>
<event>
 7    1  0.6188600E-006  0.6265582E+02  0.7818608E-02  0.1411244E+00
          2   -1    0    0  502    0  0.00000000000E+00  0.00000000000E+00  0.14559366680E+04  0.14559366680E+04  0.00000000000E+00 0. -1.
          1   -1    0    0  501    0 -0.00000000000E+00 -0.00000000000E+00 -0.22593529970E+03  0.22593529970E+03  0.00000000000E+00 0. -1.
         25    2    1    2    0    0 -0.10860923905E+03 -0.29704567314E+02  0.10185746376E+04  0.10323743089E+04  0.12499637275E+03 0.  0.
          2    1    1    2  501    0  0.57094270169E+02  0.25285813976E+02 -0.21298409527E+03  0.22194898718E+03  0.00000000000E+00 0. -1.
          1    1    1    2  502    0  0.51514968884E+02  0.44187533386E+01  0.42441082603E+03  0.42754867168E+03  0.00000000000E+00 0. -1.
         22    1    3    3    0    0 -0.99669878180E+02 -0.22001144979E+02  0.37360783480E+03  0.38729956006E+03  0.00000000000E+00 0.  1.
         22    1    3    3    0    0 -0.89393608732E+01 -0.77034223351E+01  0.64496680276E+03  0.64507474880E+03  0.00000000000E+00 0.  1.
</event>
<event>
 7    1  0.6188600E-006  0.2280579E+03  0.7818608E-02  0.1253519E+00
          2   -1    0    0  502    0  0.00000000000E+00  0.00000000000E+00  0.15393356104E+04  0.15393356104E+04  0.00000000000E+00 0. -1.
          1   -1    0    0  501    0 -0.00000000000E+00 -0.00000000000E+00 -0.70930983717E+02  0.70930983717E+02  0.00000000000E+00 0. -1.
         25    2    1    2    0    0  0.16949078458E+02 -0.23009087263E+03  0.58392031068E+03  0.64016953401E+03  0.12500008850E+03 0.  0.
          2    1    1    2  501    0  0.39757137942E+02  0.22561551636E+03  0.27481386497E+03  0.35777877469E+03  0.00000000000E+00 0. -1.
          1    1    1    2  502    0 -0.56706216400E+02  0.44753562705E+01  0.60967045105E+03  0.61231828543E+03  0.00000000000E+00 0. -1.
         22    1    3    3    0    0 -0.11182880363E+02 -0.23291503591E+03  0.50218905306E+03  0.55368611665E+03  0.00000000000E+00 0. -1.
         22    1    3    3    0    0  0.28131958821E+02  0.28241632796E+01  0.81731257625E+02  0.86483417360E+02  0.00000000000E+00 0. -1.
</event>
<event>
 7    1  0.6188600E-006  0.6363804E+02  0.7818608E-02  0.1441534E+00
          2   -1    0    0  502    0  0.00000000000E+00  0.00000000000E+00  0.21932203086E+03  0.21932203086E+03  0.00000000000E+00 0. -1.
          1   -1    0    0  501    0 -0.00000000000E+00 -0.00000000000E+00 -0.13705366861E+04  0.13705366861E+04  0.00000000000E+00 0. -1.
         25    2    1    2    0    0 -0.18000515825E+02 -0.16351599992E+02 -0.18384637770E+03  0.22364228419E+03  0.12499994917E+03 0.  0.
          2    1    1    2  501    0 -0.32526560816E+02 -0.23983710346E+02 -0.11611915958E+04  0.11618946242E+04  0.00000000000E+00 0. -1.
          1    1    1    2  502    0  0.50527076641E+02  0.40335310337E+02  0.19382331830E+03  0.20432180856E+03  0.00000000000E+00 0. -1.
         22    1    3    3    0    0 -0.51056576477E+02 -0.52159933240E+02 -0.76405494213E+02  0.10566566227E+03  0.00000000000E+00 0.  1.
         22    1    3    3    0    0  0.33056060653E+02  0.35808333248E+02 -0.10744088348E+03  0.11797662192E+03  0.00000000000E+00 0.  1.
</event>
<event>
 7    1  0.6188600E-006  0.1198642E+03  0.7818608E-02  0.1295803E+00
          2   -1    0    0  502    0  0.00000000000E+00  0.00000000000E+00  0.11975245725E+04  0.11975245725E+04  0.00000000000E+00 0. -1.
          1   -1    0    0  501    0 -0.00000000000E+00 -0.00000000000E+00 -0.53767511230E+03  0.53767511230E+03  0.00000000000E+00 0. -1.
         25    2    1    2    0    0 -0.88742745754E+02 -0.52782436195E+02 -0.40301140169E+02  0.16706538093E+03  0.12500159644E+03 0.  0.
          2    1    1    2  501    0  0.12424738083E+03 -0.99904043312E+01 -0.42386216995E+03  0.44181032008E+03  0.00000000000E+00 0. -1.
          1    1    1    2  502    0 -0.35504635072E+02  0.62772840526E+02  0.11240127704E+04  0.11263239838E+04  0.00000000000E+00 0. -1.
         22    1    3    3    0    0 -0.71202643783E+02 -0.52038728976E+02 -0.82870493930E+02  0.12101803403E+03  0.00000000000E+00 0. -1.
         22    1    3    3    0    0 -0.17540101971E+02 -0.74370721875E+00  0.42569353761E+02  0.46047346908E+02  0.00000000000E+00 0. -1.
</event>
<event>
 7    1  0.6188600E-006  0.1884540E+03  0.7818608E-02  0.1371798E+00
          2   -1    0    0  502    0  0.00000000000E+00  0.00000000000E+00  0.88001218794E+02  0.88001218794E+02  0.00000000000E+00 0. -1.
          1   -1    0    0  501    0 -0.00000000000E+00 -0.00000000000E+00 -0.20562895359E+04  0.20562895359E+04  0.00000000000E+00 0. -1.
         25    2    1    2    0    0  0.10076006172E+03 -0.17400202553E+03 -0.10438818220E+04  0.10703944850E+04  0.12500320129E+03 0.  0.
          2    1    1    2  501    0 -0.80529935322E+02  0.16187605448E+03 -0.98886524977E+03  0.10052578822E+04  0.00000000000E+00 0. -1.
          1    1    1    2  502    0 -0.20230126402E+02  0.12125971050E+02  0.64458754648E+02  0.68638387502E+02  0.00000000000E+00 0. -1.
         22    1    3    3    0    0 -0.41734294245E+01 -0.59018057298E+02 -0.12349602203E+03  0.13693727052E+03  0.00000000000E+00 0. -1.
         22    1    3    3    0    0  0.10493349115E+03 -0.11498396823E+03 -0.92038580000E+03  0.93345721453E+03  0.00000000000E+00 0. -1.
</event>
<event>
 7    1  0.6188600E-006  0.1107036E+03  0.7818608E-02  0.1338809E+00
          2   -1    0    0  502    0  0.00000000000E+00  0.00000000000E+00  0.14609743224E+04  0.14609743224E+04  0.00000000000E+00 0. -1.
          1   -1    0    0  501    0 -0.00000000000E+00 -0.00000000000E+00 -0.41593877038E+03  0.41593877038E+03  0.00000000000E+00 0. -1.
         25    2    1    2    0    0 -0.11911024572E+03  0.57673839579E+02 -0.14204411239E+03  0.23089954978E+03  0.12499819925E+03 0.  0.
          2    1    1    2  501    0  0.86634200361E+01 -0.52372629772E+02 -0.22420507873E+03  0.23040369903E+03  0.00000000000E+00 0. -1.
          1    1    1    2  502    0  0.11044682569E+03 -0.53012098066E+01  0.14112847431E+04  0.14156098440E+04  0.00000000000E+00 0. -1.
         22    1    3    3    0    0 -0.28444291749E+02 -0.11969289043E+02  0.16841960943E+02  0.35156695830E+02  0.00000000000E+00 0.  1.
         22    1    3    3    0    0 -0.90665953976E+02  0.69643128622E+02 -0.15888607333E+03  0.19574285395E+03  0.00000000000E+00 0.  1.
</event>
<event>
 7    1  0.6188600E-006  0.7066076E+02  0.7818608E-02  0.1486788E+00
          2   -1    0    0  502    0  0.00000000000E+00  0.00000000000E+00  0.20979660097E+04  0.20979660097E+04  0.00000000000E+00 0. -1.
          1   -1    0    0  501    0 -0.00000000000E+00 -0.00000000000E+00 -0.81932022277E+03  0.81932022277E+03  0.00000000000E+00 0. -1.
         25    2    1    2    0    0 -0.95641849317E+02  0.11800443959E+01  0.10088014903E+03  0.18695094046E+03  0.12500037530E+03 0.  0.
          2    1    1    2  501    0  0.25662725178E+02  0.55117200771E+01 -0.77543044059E+03  0.77587455346E+03  0.00000000000E+00 0. -1.
          1    1    1    2  502    0  0.69979124140E+02 -0.66917644730E+01  0.19531960784E+04  0.19544607385E+04  0.00000000000E+00 0. -1.
         22    1    3    3    0    0  0.51913090814E+01  0.10300724996E+02  0.83417429343E+02  0.84211175883E+02  0.00000000000E+00 0. -1.
         22    1    3    3    0    0 -0.10083315840E+03 -0.91206805996E+01  0.17462719691E+02  0.10273976458E+03  0.00000000000E+00 0. -1.
</event>
<event>
 7    1  0.6188600E-006  0.1570951E+03  0.7818608E-02  0.1249575E+00
          2   -1    0    0  502    0  0.00000000000E+00  0.00000000000E+00  0.23747104635E+04  0.23747104635E+04  0.00000000000E+00 0. -1.
          1   -1    0    0  501    0 -0.00000000000E+00 -0.00000000000E+00 -0.17837103588E+03  0.17837103588E+03  0.00000000000E+00 0. -1.
         25    2    1    2    0    0  0.95329604978E+01  0.12381657578E+03  0.12590946194E+03  0.21656220730E+03  0.12499830099E+03 0.  0.
          2    1    1    2  501    0  0.69677389877E+02 -0.15701725177E+03 -0.76375696166E+02  0.18799628448E+03  0.00000000000E+00 0. -1.
          1    1    1    2  502    0 -0.79210350375E+02  0.33200675988E+02  0.21468056619E+04  0.21485230076E+04  0.00000000000E+00 0. -1.
         22    1    3    3    0    0 -0.51652498394E+02  0.21542963663E+02  0.29459705375E+02  0.63245190445E+02  0.00000000000E+00 0. -1.
         22    1    3    3    0    0  0.61185458892E+02  0.10227361212E+03  0.96449756562E+02  0.15331701685E+03  0.00000000000E+00 0. -1.
</event>
<event>
 7    1  0.6188600E-006  0.9051864E+02  0.7818608E-02  0.1343492E+00
          2   -1    0    0  502    0  0.00000000000E+00  0.00000000000E+00  0.28597533874E+03  0.28597533874E+03  0.00000000000E+00 0. -1.
          1   -1    0    0  501    0 -0.00000000000E+00 -0.00000000000E+00 -0.13784594034E+04  0.13784594034E+04  0.00000000000E+00 0. -1.
         25    2    1    2    0    0  0.33601763576E+02 -0.11724166279E+02 -0.11868121805E+03  0.17600294311E+03  0.12500107949E+03 0.  0.
          2    1    1    2  501    0 -0.94063517001E+02 -0.34833990758E+01 -0.12255094746E+04  0.12291190144E+04  0.00000000000E+00 0. -1.
          1    1    1    2  502    0  0.60461753426E+02  0.15207565355E+02  0.25170662800E+03  0.25931278459E+03  0.00000000000E+00 0. -1.
         22    1    3    3    0    0 -0.43342485345E+02 -0.27545347437E+02 -0.44320256451E+02  0.67835111360E+02  0.00000000000E+00 0. -1.
         22    1    3    3    0    0  0.76944248921E+02  0.15821181158E+02 -0.74360961598E+02  0.10816783175E+03  0.00000000000E+00 0. -1.
</event>
<event>
 7    1  0.6188600E-006  0.5250875E+02  0.7818608E-02  0.1445692E+00
          2   -1    0    0  502    0  0.00000000000E+00  0.00000000000E+00  0.11423952439E+04  0.11423952439E+04  0.00000000000E+00 0. -1.
          1   -1    0    0  501    0 -0.00000000000E+00 -0.00000000000E+00 -0.85953872174E+02  0.85953872174E+02  0.00000000000E+00 0. -1.
         25    2    1    2    0    0  0.13522256948E+02 -0.96968470345E+02  0.33769234763E+03  0.37315727218E+03  0.12499796981E+03 0.  0.
          2    1    1    2  501    0 -0.65288748358E+01  0.47036767065E+02 -0.59041271079E+02  0.75769092334E+02  0.00000000000E+00 0. -1.
          1    1    1    2  502    0 -0.69933821123E+01  0.49931703280E+02  0.77779029513E+03  0.77942275152E+03  0.00000000000E+00 0. -1.
         22    1    3    3    0    0 -0.57776678029E+01 -0.71505407049E+02  0.59686441673E+02  0.93321358767E+02  0.00000000000E+00 0. -1.
         22    1    3    3    0    0  0.19299924751E+02 -0.25463063297E+02  0.27800590596E+03  0.27983591341E+03  0.00000000000E+00 0. -1.
</event>
<event>
 7    1  0.6188600E-006  0.1278255E+03  0.7818608E-02  0.1343856E+00
          2   -1    0    0  502    0  0.00000000000E+00  0.00000000000E+00  0.73051544803E+02  0.73051544803E+02  0.00000000000E+00 0. -1.
          1   -1    0    0  501    0 -0.00000000000E+00 -0.00000000000E+00 -0.30283827954E+04  0.30283827954E+04  0.00000000000E+00 0. -1.
         25    2    1    2    0    0  0.84536573260E+02  0.66062822592E+02 -0.20924733581E+03  0.26630823193E+03  0.12499959241E+03 0.  0.
          2    1    1    2  501    0  0.42518262072E+02 -0.11365305059E+02 -0.26825394481E+04  0.26829004572E+04  0.00000000000E+00 0. -1.
          1    1    1    2  502    0 -0.12705483533E+03 -0.54697517533E+02 -0.63544466775E+02  0.15222565113E+03  0.00000000000E+00 0. -1.
         22    1    3    3    0    0  0.10850335490E+03  0.79295827375E+02 -0.15226114227E+03  0.20308683292E+03  0.00000000000E+00 0. -1.
         22    1    3    3    0    0 -0.23966781636E+02 -0.13233004783E+02 -0.56986193541E+02  0.63221399003E+02  0.00000000000E+00 0. -1.
</event>
<event>
 7    1  0.6188600E-006  0.8372411E+02  0.7818608E-02  0.1332402E+00
          2   -1    0    0  502    0  0.00000000000E+00  0.00000000000E+00  0.24820813910E+04  0.24820813910E+04  0.00000000000E+00 0. -1.
          1   -1    0    0  501    0 -0.00000000000E+00 -0.00000000000E+00 -0.56480937506E+02  0.56480937506E+02  0.00000000000E+00 0. -1.
         25    2    1    2    0    0 -0.39453415790E+02 -0.91437639218E+02  0.10393543222E+04  0.10515701206E+04  0.12499959002E+03 0.  0.
          2    1    1    2  501    0 -0.41058156876E+02  0.61834036478E+02 -0.20997111787E+02  0.77136884930E+02  0.00000000000E+00 0. -1.
          1    1    1    2  502    0  0.80511572666E+02  0.29603602740E+02  0.14072432430E+04  0.14098553229E+04  0.00000000000E+00 0. -1.
         22    1    3    3    0    0 -0.52308921159E+02 -0.10921076730E+03  0.62422413226E+03  0.63586081985E+03  0.00000000000E+00 0.  1.
         22    1    3    3    0    0  0.12855505369E+02  0.17773128079E+02  0.41513018997E+03  0.41570930075E+03  0.00000000000E+00 0.  1.
</event>
<event>
 7    1  0.6188600E-006  0.7203827E+02  0.7818608E-02  0.1371521E+00
          2   -1    0    0  502    0  0.00000000000E+00  0.00000000000E+00  0.81182221772E+03  0.81182221772E+03  0.00000000000E+00 0. -1.
          1   -1    0    0  501    0 -0.00000000000E+00 -0.00000000000E+00 -0.17884460151E+03  0.17884460151E+03  0.00000000000E+00 0. -1.
         25    2    1    2    0    0 -0.61155426965E+02  0.24226560967E+02  0.26220051456E+03  0.29782801135E+03  0.12500200800E+03 0.  0.
          2    1    1    2  501    0  0.38174484438E+02  0.48654256340E+02 -0.15221232582E+03  0.16429583091E+03  0.00000000000E+00 0. -1.
          1    1    1    2  502    0  0.22980942526E+02 -0.72880817306E+02  0.52298942747E+03  0.52854297696E+03  0.00000000000E+00 0. -1.
         22    1    3    3    0    0  0.14077238725E+01  0.26971262854E+02 -0.12499614010E+01  0.27036884250E+02  0.00000000000E+00 0.  1.
         22    1    3    3    0    0 -0.62563150837E+02 -0.27447018871E+01  0.26345047596E+03  0.27079112710E+03  0.00000000000E+00 0.  1.
</event>
<event>
 7    1  0.6188600E-006  0.4221396E+03  0.7818608E-02  0.1077019E+00
          2   -1    0    0  502    0  0.00000000000E+00  0.00000000000E+00  0.61210608382E+03  0.61210608382E+03  0.00000000000E+00 0. -1.
          1   -1    0    0  501    0 -0.00000000000E+00 -0.00000000000E+00 -0.20711816713E+04  0.20711816713E+04  0.00000000000E+00 0. -1.
         25    2    1    2    0    0  0.21285551755E+03 -0.40791290674E+03 -0.33739457217E+03  0.58408952325E+03  0.12500025201E+03 0.  0.
          2    1    1    2  501    0 -0.36259771679E+03  0.22278047031E+03 -0.15509695430E+04  0.16082956089E+04  0.00000000000E+00 0. -1.
          1    1    1    2  502    0  0.14974219924E+03  0.18513243643E+03  0.42928852770E+03  0.49090262300E+03  0.00000000000E+00 0. -1.
         22    1    3    3    0    0  0.20907205273E+03 -0.33459773930E+03 -0.32156396772E+03  0.50898934735E+03  0.00000000000E+00 0. -1.
         22    1    3    3    0    0  0.37834648165E+01 -0.73315167445E+02 -0.15830604449E+02  0.75100175903E+02  0.00000000000E+00 0. -1.
</event>
<event>
 7    1  0.6188600E-006  0.6084196E+02  0.7818608E-02  0.1421873E+00
          2   -1    0    0  502    0  0.00000000000E+00  0.00000000000E+00  0.12717245304E+04  0.12717245304E+04  0.00000000000E+00 0. -1.
          1   -1    0    0  501    0 -0.00000000000E+00 -0.00000000000E+00 -0.19717148877E+02  0.19717148877E+02  0.00000000000E+00 0. -1.
         25    2    1    2    0    0  0.17799417568E+02 -0.18986930670E+02  0.88462324284E+03  0.89379041214E+03  0.12500278504E+03 0.  0.
          2    1    1    2  501    0  0.30432871506E+01 -0.60765804079E+02  0.92846875780E+02  0.11100579662E+03  0.00000000000E+00 0. -1.
          1    1    1    2  502    0 -0.20842704719E+02  0.79752734749E+02  0.27453726287E+03  0.28664547048E+03  0.00000000000E+00 0. -1.
         22    1    3    3    0    0 -0.11318839593E+02  0.89203269835E+01  0.79914265940E+03  0.79927259332E+03  0.00000000000E+00 0. -1.
         22    1    3    3    0    0  0.29118257161E+02 -0.27907257653E+02  0.85480583440E+02  0.94517818823E+02  0.00000000000E+00 0. -1.
</event>
<event>
 7    1  0.6188600E-006  0.8177119E+02  0.7818608E-02  0.1328911E+00
          2   -1    0    0  502    0  0.00000000000E+00  0.00000000000E+00  0.61490867434E+03  0.61490867434E+03  0.00000000000E+00 0. -1.
          1   -1    0    0  501    0 -0.00000000000E+00 -0.00000000000E+00 -0.15719184986E+03  0.15719184986E+03  0.00000000000E+00 0. -1.
         25    2    1    2    0    0  0.18530245946E+02 -0.29435698690E+02  0.79331637975E+02  0.15208492291E+03  0.12500593834E+03 0.  0.
          2    1    1    2  501    0 -0.91331223362E+02  0.43612619722E+00 -0.99897615800E+02  0.13535551784E+03  0.00000000000E+00 0. -1.
          1    1    1    2  502    0  0.72800977416E+02  0.28999572493E+02  0.47828280230E+03  0.48466008346E+03  0.00000000000E+00 0. -1.
         22    1    3    3    0    0  0.36225424857E+02 -0.17876209128E+02  0.10866454147E+03  0.11593024986E+03  0.00000000000E+00 0.  1.
         22    1    3    3    0    0 -0.17695178911E+02 -0.11559489562E+02 -0.29332903499E+02  0.36154673049E+02  0.00000000000E+00 0.  1.
</event>
<event>
 7    1  0.6188600E-006  0.1045013E+03  0.7818608E-02  0.1280295E+00
          2   -1    0    0  502    0  0.00000000000E+00  0.00000000000E+00  0.32643838334E+03  0.32643838334E+03  0.00000000000E+00 0. -1.
          1   -1    0    0  501    0 -0.00000000000E+00 -0.00000000000E+00 -0.19164016492E+03  0.19164016492E+03  0.00000000000E+00 0. -1.
         25    2    1    2    0    0 -0.62560304435E+02  0.51411679671E+02  0.16826465616E+03  0.22471256869E+03  0.12500316603E+03 0.  0.
          2    1    1    2  501    0 -0.95457067073E+02 -0.67164565909E+01 -0.77734055032E+02  0.12328724896E+03  0.00000000000E+00 0. -1.
          1    1    1    2  502    0  0.15801737151E+03 -0.44695223080E+02  0.44267617295E+02  0.17007873061E+03  0.00000000000E+00 0. -1.
         22    1    3    3    0    0  0.36031093685E+02  0.78178960296E+01  0.21727054674E+02  0.42795141258E+02  0.00000000000E+00 0.  1.
         22    1    3    3    0    0 -0.98591398120E+02  0.43593783641E+02  0.14653760149E+03  0.18191742744E+03  0.00000000000E+00 0.  1.
</event>
<event>
 7    1  0.6188600E-006  0.7112034E+02  0.7818608E-02  0.1483560E+00
          2   -1    0    0  502    0  0.00000000000E+00  0.00000000000E+00  0.27024507909E+03  0.27024507909E+03  0.00000000000E+00 0. -1.
          1   -1    0    0  501    0 -0.00000000000E+00 -0.00000000000E+00 -0.21705248711E+04  0.21705248711E+04  0.00000000000E+00 0. -1.
         25    2    1    2    0    0  0.14910178860E+02 -0.90701813021E+02  0.19784333402E+03  0.25142739805E+03  0.12499847740E+03 0.  0.
          2    1    1    2  501    0  0.30781651217E+01  0.71004112393E+02 -0.21391911990E+04  0.21403714736E+04  0.00000000000E+00 0. -1.
          1    1    1    2  502    0 -0.17988343982E+02  0.19697700627E+02  0.41068072902E+02  0.48971078619E+02  0.00000000000E+00 0. -1.
         22    1    3    3    0    0 -0.49417883916E+02 -0.54093483046E+02  0.58931635506E+02  0.94027495033E+02  0.00000000000E+00 0. -1.
         22    1    3    3    0    0  0.64328062776E+02 -0.36608329975E+02  0.13891169852E+03  0.15739990302E+03  0.00000000000E+00 0. -1.
</event>
<event>
 7    1  0.6188600E-006  0.6302171E+02  0.7818608E-02  0.1489200E+00
          2   -1    0    0  502    0  0.00000000000E+00  0.00000000000E+00  0.26957897288E+03  0.26957897288E+03  0.00000000000E+00 0. -1.
          1   -1    0    0  501    0 -0.00000000000E+00 -0.00000000000E+00 -0.87421894976E+03  0.87421894976E+03  0.00000000000E+00 0. -1.
         25    2    1    2    0    0 -0.21610769718E+02 -0.88260477298E+02 -0.11732843740E+03  0.19403068187E+03  0.12500002424E+03 0.  0.
          2    1    1    2  501    0  0.10406631666E+02  0.27001758801E+02 -0.71404799362E+03  0.71463412328E+03  0.00000000000E+00 0. -1.
          1    1    1    2  502    0  0.11204138051E+02  0.61258718497E+02  0.22673645415E+03  0.23513311749E+03  0.00000000000E+00 0. -1.
         22    1    3    3    0    0  0.48607809193E+02 -0.14078376330E+02 -0.53194784327E+02  0.73420738721E+02  0.00000000000E+00 0. -1.
         22    1    3    3    0    0 -0.70218578911E+02 -0.74182100968E+02 -0.64133653077E+02  0.12060994314E+03  0.00000000000E+00 0. -1.
</event>
<event>
 7    1  0.6188600E-006  0.1623387E+03  0.7818608E-02  0.1257280E+00
          2   -1    0    0  502    0  0.00000000000E+00  0.00000000000E+00  0.26738172860E+04  0.26738172860E+04  0.00000000000E+00 0. -1.
          1   -1    0    0  501    0 -0.00000000000E+00 -0.00000000000E+00 -0.85907989090E+03  0.85907989090E+03  0.00000000000E+00 0. -1.
         25    2    1    2    0    0 -0.78516125424E+01  0.19487659815E+03  0.10470240402E+04  0.10723446829E+04  0.12500096764E+03 0.  0.
          2    1    1    2  501    0  0.68259253805E+02 -0.14714593663E+03 -0.83771727438E+03  0.85327690945E+03  0.00000000000E+00 0. -1.
          1    1    1    2  502    0 -0.60407641263E+02 -0.47730661519E+02  0.16054306293E+04  0.16072755846E+04  0.00000000000E+00 0. -1.
         22    1    3    3    0    0  0.69079691286E+01  0.15410006505E+01  0.31489730830E+03  0.31497683961E+03  0.00000000000E+00 0. -1.
         22    1    3    3    0    0 -0.14759581671E+02  0.19333559750E+03  0.73212673191E+03  0.75736784332E+03  0.00000000000E+00 0. -1.
</event>
<event>
 7    1  0.6188600E-006  0.4487788E+02  0.7818608E-02  0.1512859E+00
          2   -1    0    0  502    0  0.00000000000E+00  0.00000000000E+00  0.26143585833E+03  0.26143585833E+03  0.00000000000E+00 0. -1.
          1   -1    0    0  501    0 -0.00000000000E+00 -0.00000000000E+00 -0.84229226724E+03  0.84229226724E+03  0.00000000000E+00 0. -1.
         25    2    1    2    0    0 -0.48903057967E+02  0.21674826922E+02  0.10704967647E+03  0.17305161642E+03  0.12500368600E+03 0.  0.
          2    1    1    2  501    0  0.28947782368E+02  0.18856328060E+02 -0.80470426039E+03  0.80544551765E+03  0.00000000000E+00 0. -1.
          1    1    1    2  502    0  0.19955275599E+02 -0.40531154982E+02  0.11679817501E+03  0.12523099151E+03  0.00000000000E+00 0. -1.
         22    1    3    3    0    0 -0.62375529020E+02 -0.24394718342E+02  0.10557788295E+03  0.12502998949E+03  0.00000000000E+00 0.  1.
         22    1    3    3    0    0  0.13472471052E+02  0.46069545264E+02  0.14717935132E+01  0.48021626932E+02  0.00000000000E+00 0.  1.
</event>
<event>
 7    1  0.6188600E-006  0.2607833E+03  0.7818608E-02  0.1223839E+00
          2   -1    0    0  502    0  0.00000000000E+00  0.00000000000E+00  0.66116139016E+03  0.66116139016E+03  0.00000000000E+00 0. -1.
          1   -1    0    0  501    0 -0.00000000000E+00 -0.00000000000E+00 -0.22263266662E+04  0.22263266662E+04  0.00000000000E+00 0. -1.
         25    2    1    2    0    0 -0.15422188381E+03 -0.24049925859E+03 -0.28453346419E+03  0.42214734068E+03  0.12499920869E+03 0.  0.
          2    1    1    2  501    0  0.86991654004E+02  0.24329971120E+03 -0.18621256855E+04  0.18799665863E+04  0.00000000000E+00 0. -1.
          1    1    1    2  502    0  0.67230229803E+02 -0.28004526051E+01  0.58149387357E+03  0.58537412937E+03  0.00000000000E+00 0. -1.
         22    1    3    3    0    0 -0.11322152640E+03 -0.21073721133E+03 -0.16026546621E+03  0.28794844320E+03  0.00000000000E+00 0.  1.
         22    1    3    3    0    0 -0.41000357410E+02 -0.29762047263E+02 -0.12426799798E+03  0.13419889748E+03  0.00000000000E+00 0.  1.
</event>
<event>
 7    1  0.6188600E-006  0.1497632E+03  0.7818608E-02  0.1304801E+00
          2   -1    0    0  502    0  0.00000000000E+00  0.00000000000E+00  0.53702032942E+03  0.53702032942E+03  0.00000000000E+00 0. -1.
          1   -1    0    0  501    0 -0.00000000000E+00 -0.00000000000E+00 -0.35517459653E+03  0.35517459653E+03  0.00000000000E+00 0. -1.
         25    2    1    2    0    0  0.82767109786E+02 -0.14349382892E+03  0.89332459277E+02  0.22593254814E+03  0.12499741849E+03 0.  0.
          2    1    1    2  501    0 -0.53110810984E+02 -0.13497144491E+01 -0.26978054278E+03  0.27496203599E+03  0.00000000000E+00 0. -1.
          1    1    1    2  502    0 -0.29656298802E+02  0.14484354337E+03  0.36229381639E+03  0.39130034182E+03  0.00000000000E+00 0. -1.
         22    1    3    3    0    0  0.81810897795E+02 -0.83556119280E+02 -0.16817722848E+01  0.11695074358E+03  0.00000000000E+00 0. -1.
         22    1    3    3    0    0  0.95621199128E+00 -0.59937709638E+02  0.91014231562E+02  0.10898180456E+03  0.00000000000E+00 0. -1.
</event>
<event>
 7    1  0.6188600E-006  0.2195468E+03  0.7818608E-02  0.1288127E+00
          2   -1    0    0  502    0  0.00000000000E+00  0.00000000000E+00  0.12624407035E+03  0.12624407035E+03  0.00000000000E+00 0. -1.
          1   -1    0    0  501    0 -0.00000000000E+00 -0.00000000000E+00 -0.28213263029E+04  0.28213263029E+04  0.00000000000E+00 0. -1.
         25    2    1    2    0    0 -0.18926982526E+03  0.31679364436E+02 -0.29970020683E+03  0.37719246294E+03  0.12500916463E+03 0.  0.
          2    1    1    2  501    0 -0.37125895711E+02  0.20269192434E+02 -0.23281916797E+04  0.23285758887E+04  0.00000000000E+00 0. -1.
          1    1    1    2  502    0  0.22639572097E+03 -0.51948556870E+02 -0.67190346028E+02  0.24180202157E+03  0.00000000000E+00 0. -1.
         22    1    3    3    0    0 -0.77024841981E+02 -0.44748866691E+02 -0.15484180209E+03  0.17863726102E+03  0.00000000000E+00 0.  1.
         22    1    3    3    0    0 -0.11224498328E+03  0.76428231127E+02 -0.14485840475E+03  0.19855520192E+03  0.00000000000E+00 0.  1.
</event>
<event>
 7    1  0.6188600E-006  0.8868397E+02  0.7818608E-02  0.1311009E+00
          2   -1    0    0  502    0  0.00000000000E+00  0.00000000000E+00  0.71531198402E+03  0.71531198402E+03  0.00000000000E+00 0. -1.
          1   -1    0    0  501    0 -0.00000000000E+00 -0.00000000000E+00 -0.12293241383E+03  0.12293241383E+03  0.00000000000E+00 0. -1.
         25    2    1    2    0    0  0.13326945383E+03 -0.85184909300E+02  0.86559386263E+02  0.21939628185E+03  0.12499994016E+03 0.  0.
          2    1    1    2  501    0 -0.83328071494E+02  0.15670974397E+02 -0.19167677794E+02  0.86928400477E+02  0.00000000000E+00 0. -1.
          1    1    1    2  502    0 -0.49941382340E+02  0.69513934903E+02  0.52498786171E+03  0.53191971552E+03  0.00000000000E+00 0. -1.
         22    1    3    3    0    0  0.10539311823E+01  0.26606921014E+02  0.22237062690E+02  0.34691871870E+02  0.00000000000E+00 0. -1.
         22    1    3    3    0    0  0.13221552265E+03 -0.11179183031E+03  0.64322323573E+02  0.18470440998E+03  0.00000000000E+00 0. -1.
</event>
<event>
 7    1  0.6188600E-006  0.7261981E+02  0.7818608E-02  0.1356716E+00
          2   -1    0    0  502    0  0.00000000000E+00  0.00000000000E+00  0.37396131352E+04  0.37396131352E+04  0.00000000000E+00 0. -1.
          1   -1    0    0  501    0 -0.00000000000E+00 -0.00000000000E+00 -0.23474498066E+02  0.23474498066E+02  0.00000000000E+00 0. -1.
         25    2    1    2    0    0 -0.38507757348E+02 -0.66575539738E+02  0.11646853196E+04  0.11738958358E+04  0.12499755911E+03 0.  0.
          2    1    1    2  501    0 -0.36771505885E+02  0.58883353499E+02  0.47549509888E+02  0.84144808841E+02  0.00000000000E+00 0. -1.
          1    1    1    2  502    0  0.75279263233E+02  0.76921862392E+01  0.25039038077E+04  0.25050469887E+04  0.00000000000E+00 0. -1.
         22    1    3    3    0    0  0.43315552396E+02 -0.40668948455E+02  0.56155233579E+03  0.56468683913E+03  0.00000000000E+00 0.  1.
         22    1    3    3    0    0 -0.81823309744E+02 -0.25906591284E+02  0.60313298381E+03  0.60920899669E+03  0.00000000000E+00 0.  1.
</event>
<event>
 7    1  0.6188600E-006  0.7559636E+02  0.7818608E-02  0.1478708E+00
          2   -1    0    0  502    0  0.00000000000E+00  0.00000000000E+00  0.54653688048E+03  0.54653688048E+03  0.00000000000E+00 0. -1.
          1   -1    0    0  501    0 -0.00000000000E+00 -0.00000000000E+00 -0.30349052905E+03  0.30349052905E+03  0.00000000000E+00 0. -1.
         25    2    1    2    0    0 -0.87841431569E+02  0.42976223172E+02 -0.87878376679E+02  0.18140920435E+03  0.12499446979E+03 0.  0.
          2    1    1    2  501    0  0.65602714874E+02 -0.29565227730E+02 -0.16082207361E+03  0.17618614659E+03  0.00000000000E+00 0. -1.
          1    1    1    2  502    0  0.22238716695E+02 -0.13410995442E+02  0.49174680173E+03  0.49243205859E+03  0.00000000000E+00 0. -1.
         22    1    3    3    0    0 -0.52677870130E+02  0.14259264362E+02 -0.11586656921E+03  0.12807554990E+03  0.00000000000E+00 0. -1.
         22    1    3    3    0    0 -0.35163561439E+02  0.28716958810E+02  0.27988192528E+02  0.53333654454E+02  0.00000000000E+00 0. -1.
</event>
<event>
 7    1  0.6188600E-006  0.6984108E+02  0.7818608E-02  0.1401263E+00
          2   -1    0    0  502    0  0.00000000000E+00  0.00000000000E+00  0.17106260662E+04  0.17106260662E+04  0.00000000000E+00 0. -1.
          1   -1    0    0  501    0 -0.00000000000E+00 -0.00000000000E+00 -0.33485459758E+03  0.33485459758E+03  0.00000000000E+00 0. -1.
         25    2    1    2    0    0  0.61578275307E+02  0.34183507080E+02  0.63009362365E+02  0.15670088784E+03  0.12499836943E+03 0.  0.
          2    1    1    2  501    0 -0.38581325187E+02  0.32059978362E+02 -0.28504974073E+03  0.28942998386E+03  0.00000000000E+00 0. -1.
          1    1    1    2  502    0 -0.22996950120E+02 -0.66243485442E+02  0.15978118470E+04  0.15993497921E+04  0.00000000000E+00 0. -1.
         22    1    3    3    0    0  0.82380369486E+02  0.57124400275E+02  0.17668141951E+02  0.10179334764E+03  0.00000000000E+00 0.  1.
         22    1    3    3    0    0 -0.20802094179E+02 -0.22940893195E+02  0.45341220414E+02  0.54907540206E+02  0.00000000000E+00 0.  1.
</event>
<event>
 7    1  0.6188600E-006  0.1085268E+03  0.7818608E-02  0.1299101E+00
          2   -1    0    0  502    0  0.00000000000E+00  0.00000000000E+00  0.15555636983E+03  0.15555636983E+03  0.00000000000E+00 0. -1.
          1   -1    0    0  501    0 -0.00000000000E+00 -0.00000000000E+00 -0.10533280068E+04  0.10533280068E+04  0.00000000000E+00 0. -1.
         25    2    1    2    0    0  0.10068835452E+03  0.63646060939E+02 -0.21857247787E+03  0.27854460576E+03  0.12499681399E+03 0.  0.
          2    1    1    2  501    0  0.84082691313E+01 -0.76798711282E+02 -0.77844508660E+03  0.78226945096E+03  0.00000000000E+00 0. -1.
          1    1    1    2  502    0 -0.10909662365E+03  0.13152650342E+02  0.99245927519E+02  0.14807031989E+03  0.00000000000E+00 0. -1.
         22    1    3    3    0    0  0.20464990078E+02 -0.35581561821E+02 -0.29933810630E+02  0.50802523356E+02  0.00000000000E+00 0.  1.
         22    1    3    3    0    0  0.80223364439E+02  0.99227622760E+02 -0.18863866724E+03  0.22774208240E+03  0.00000000000E+00 0.  1.
</event>
<event>
 7    1  0.6188600E-006  0.9322959E+02  0.7818608E-02  0.1367486E+00
          2   -1    0    0  502    0  0.00000000000E+00  0.00000000000E+00  0.15706413341E+04  0.15706413341E+04  0.00000000000E+00 0. -1.
          1   -1    0    0  501    0 -0.00000000000E+00 -0.00000000000E+00 -0.68112022274E+02  0.68112022274E+02  0.00000000000E+00 0. -1.
         25    2    1    2    0    0  0.66048132064E+02 -0.82024587887E+01  0.52867157475E+03  0.54731020963E+03  0.12500078214E+03 0.  0.
          2    1    1    2  501    0  0.31278966164E+02  0.38249093721E+02 -0.45404496443E+02  0.67103913388E+02  0.00000000000E+00 0. -1.
          1    1    1    2  502    0 -0.97327098227E+02 -0.30046634932E+02  0.10192622335E+04  0.10243392333E+04  0.00000000000E+00 0. -1.
         22    1    3    3    0    0  0.25615550683E+02 -0.50721847927E+02  0.41985524208E+03  0.42368300248E+03  0.00000000000E+00 0. -1.
         22    1    3    3    0    0  0.40432581381E+02  0.42519389138E+02  0.10881633267E+03  0.12362720714E+03  0.00000000000E+00 0. -1.
</event>
<event>
 7    1  0.6188600E-006  0.7436777E+02  0.7818608E-02  0.1463327E+00
          2   -1    0    0  502    0  0.00000000000E+00  0.00000000000E+00  0.84091998795E+03  0.84091998795E+03  0.00000000000E+00 0. -1.
          1   -1    0    0  501    0 -0.00000000000E+00 -0.00000000000E+00 -0.83041570968E+02  0.83041570968E+02  0.00000000000E+00 0. -1.
         25    2    1    2    0    0  0.23809690528E+02 -0.45839112864E+02  0.42098520295E+02  0.14165211467E+03  0.12499964219E+03 0.  0.
          2    1    1    2  501    0  0.28164427512E+02 -0.86700644664E+01 -0.24429613658E+02  0.38278074905E+02  0.00000000000E+00 0. -1.
          1    1    1    2  502    0 -0.51974118040E+02  0.54509177330E+02  0.74020951034E+03  0.74403136934E+03  0.00000000000E+00 0. -1.
         22    1    3    3    0    0  0.73357457025E+01 -0.87105599345E+02  0.12597303363E+02  0.88316989613E+02  0.00000000000E+00 0.  1.
         22    1    3    3    0    0  0.16473944826E+02  0.41266486481E+02  0.29501216932E+02  0.53335125059E+02  0.00000000000E+00 0.  1.
</event>
<event>
 7    1  0.7135819E-006  0.9375233E+02  0.7818608E-02  0.1463004E+00
          2   -1    0    0  502    0  0.00000000000E+00  0.00000000000E+00  0.13773153677E+04  0.13773153677E+04  0.00000000000E+00 0. -1.
          1   -1    0    0  501    0 -0.00000000000E+00 -0.00000000000E+00 -0.91148025663E+03  0.91148025663E+03  0.00000000000E+00 0. -1.
         25    2    1    2    0    0 -0.11872635537E+02 -0.97159662794E+02 -0.39132328357E+03  0.42230079394E+03  0.12499235477E+03 0.  0.
          2    1    1    2  501    0 -0.21409274139E+02  0.95192407858E+01 -0.50278170327E+03  0.50332734290E+03  0.00000000000E+00 0. -1.
          1    1    1    2  502    0  0.33281909676E+02  0.87640422009E+02  0.13599400979E+04  0.13631674875E+04  0.00000000000E+00 0. -1.
         22    1    3    3    0    0 -0.65831895737E+02 -0.37315562603E+02 -0.22706807024E+03  0.23934535348E+03  0.00000000000E+00 0.  1.
         22    1    3    3    0    0  0.53959260200E+02 -0.59844100192E+02 -0.16425521333E+03  0.18295544046E+03  0.00000000000E+00 0.  1.
</event>
<event>
 7    1  0.6188600E-006  0.4835759E+02  0.7818608E-02  0.1508699E+00
          2   -1    0    0  502    0  0.00000000000E+00  0.00000000000E+00  0.90186134193E+03  0.90186134193E+03  0.00000000000E+00 0. -1.
          1   -1    0    0  501    0 -0.00000000000E+00 -0.00000000000E+00 -0.12356566846E+04  0.12356566846E+04  0.00000000000E+00 0. -1.
         25    2    1    2    0    0  0.63474540199E+02 -0.40820028521E+02 -0.70664497821E+01  0.14618331758E+03  0.12499734255E+03 0.  0.
          2    1    1    2  501    0 -0.30703173821E+02  0.37139880726E+02 -0.11582039461E+04  0.11592059508E+04  0.00000000000E+00 0. -1.
          1    1    1    2  502    0 -0.32771366378E+02  0.36801477946E+01  0.83147505324E+03  0.83212875813E+03  0.00000000000E+00 0. -1.
         22    1    3    3    0    0  0.81957956935E+02 -0.64757539912E+02  0.19106972537E+02  0.10618720300E+03  0.00000000000E+00 0. -1.
         22    1    3    3    0    0 -0.18483416736E+02  0.23937511391E+02 -0.26173422319E+02  0.39996114583E+02  0.00000000000E+00 0. -1.
</event>
<event>
 7    1  0.6188600E-006  0.6178343E+02  0.7818608E-02  0.1457014E+00
          2   -1    0    0  502    0  0.00000000000E+00  0.00000000000E+00  0.70732584304E+03  0.70732584304E+03  0.00000000000E+00 0. -1.
          1   -1    0    0  501    0 -0.00000000000E+00 -0.00000000000E+00 -0.22657248471E+04  0.22657248471E+04  0.00000000000E+00 0. -1.
         25    2    1    2    0    0 -0.43469965106E+02  0.86939831718E+02  0.13686211475E+03  0.20929403707E+03  0.12499833317E+03 0.  0.
          2    1    1    2  501    0  0.18114086407E+02 -0.32417395734E+02 -0.22276617276E+04  0.22279712252E+04  0.00000000000E+00 0. -1.
          1    1    1    2  502    0  0.25355878699E+02 -0.54522435985E+02  0.53240060873E+03  0.53578542793E+03  0.00000000000E+00 0. -1.
         22    1    3    3    0    0  0.37373622777E+02  0.62443549821E+02  0.75672288809E+02  0.10498704628E+03  0.00000000000E+00 0.  1.
         22    1    3    3    0    0 -0.80843587883E+02  0.24496281898E+02  0.61189825942E+02  0.10430699079E+03  0.00000000000E+00 0.  1.
</event>
<event>
 7    1  0.6188600E-006  0.8489998E+02  0.7818608E-02  0.1491449E+00
          2   -1    0    0  502    0  0.00000000000E+00  0.00000000000E+00  0.89482609186E+03  0.89482609186E+03  0.00000000000E+00 0. -1.
          1   -1    0    0  501    0 -0.00000000000E+00 -0.00000000000E+00 -0.35794110838E+02  0.35794110838E+02  0.00000000000E+00 0. -1.
         25    2    1    2    0    0 -0.80695647275E+02 -0.12737150907E+02  0.35544300933E+03  0.38553607982E+03  0.12499725382E+03 0.  0.
          2    1    1    2  501    0 -0.50979505164E+01  0.20523242911E+02 -0.10651454277E+02  0.23677966071E+02  0.00000000000E+00 0. -1.
          1    1    1    2  502    0  0.85793597792E+02 -0.77860920037E+01  0.51424042597E+03  0.52140615681E+03  0.00000000000E+00 0. -1.
         22    1    3    3    0    0 -0.50417612848E+02  0.29697986702E+02  0.54015424071E+02  0.79633988578E+02  0.00000000000E+00 0.  1.
         22    1    3    3    0    0 -0.30278034428E+02 -0.42435137609E+02  0.30142758526E+03  0.30590209124E+03  0.00000000000E+00 0.  1.
</event>
<event>
 7    1  0.6188600E-006  0.4047450E+02  0.7818608E-02  0.1512207E+00
          2   -1    0    0  502    0  0.00000000000E+00  0.00000000000E+00  0.35319976258E+02  0.35319976258E+02  0.00000000000E+00 0. -1.
          1   -1    0    0  501    0 -0.00000000000E+00 -0.00000000000E+00 -0.36824576126E+04  0.36824576126E+04  0.00000000000E+00 0. -1.
         25    2    1    2    0    0  0.28535727497E+02  0.50380813482E+02 -0.18035936694E+04  0.18088470300E+04  0.12499975921E+03 0.  0.
          2    1    1    2  501    0 -0.37932569801E+02 -0.13070883232E+02 -0.18646264076E+04  0.18650580065E+04  0.00000000000E+00 0. -1.
          1    1    1    2  502    0  0.93968423048E+01 -0.37309930249E+02  0.21082440624E+02  0.43872552276E+02  0.00000000000E+00 0. -1.
         22    1    3    3    0    0  0.22874144663E+02 -0.28646302040E+02 -0.20230637665E+03  0.20560084423E+03  0.00000000000E+00 0. -1.
         22    1    3    3    0    0  0.56615828340E+01  0.79027115522E+02 -0.16012872927E+04  0.16032461858E+04  0.00000000000E+00 0. -1.
</event>
<event>
 7    1  0.6188600E-006  0.4824717E+02  0.7818608E-02  0.1532297E+00
          2   -1    0    0  502    0  0.00000000000E+00  0.00000000000E+00  0.18808319504E+03  0.18808319504E+03  0.00000000000E+00 0. -1.
          1   -1    0    0  501    0 -0.00000000000E+00 -0.00000000000E+00 -0.22264402757E+03  0.22264402757E+03  0.00000000000E+00 0. -1.
         25    2    1    2    0    0 -0.10504847144E+02 -0.54444423793E+02  0.29502059601E+02  0.13984633607E+03  0.12494830569E+03 0.  0.
          2    1    1    2  501    0  0.31988212155E+02  0.36129070821E+02 -0.16195930951E+03  0.16899518754E+03  0.00000000000E+00 0. -1.
          1    1    1    2  502    0 -0.21483365011E+02  0.18315352972E+02  0.97896417371E+02  0.10188569900E+03  0.00000000000E+00 0. -1.
         22    1    3    3    0    0  0.31787777702E+02 -0.18114058979E+02 -0.37694922375E+02  0.52530839673E+02  0.00000000000E+00 0.  1.
         22    1    3    3    0    0 -0.42292624846E+02 -0.36330364814E+02  0.67196981976E+02  0.87315496394E+02  0.00000000000E+00 0.  1.
</event>
<event>
 7    1  0.6188600E-006  0.1106590E+03  0.7818608E-02  0.1380070E+00
          2   -1    0    0  502    0  0.00000000000E+00  0.00000000000E+00  0.58515241236E+03  0.58515241236E+03  0.00000000000E+00 0. -1.
          1   -1    0    0  501    0 -0.00000000000E+00 -0.00000000000E+00 -0.70929642266E+03  0.70929642266E+03  0.00000000000E+00 0. -1.
         25    2    1    2    0    0 -0.87541658189E+02  0.73707203336E+02  0.89945905910E+02  0.19184606832E+03  0.12497341397E+03 0.  0.
          2    1    1    2  501    0  0.30736906787E+02  0.21537482458E+02 -0.65087657275E+03  0.65195776975E+03  0.00000000000E+00 0. -1.
          1    1    1    2  502    0  0.56804751401E+02 -0.95244685794E+02  0.43678665653E+03  0.45064499695E+03  0.00000000000E+00 0. -1.
         22    1    3    3    0    0 -0.82154603737E+02  0.67884734656E+01  0.36556262865E+01  0.82515609982E+02  0.00000000000E+00 0. -1.
         22    1    3    3    0    0 -0.53870544515E+01  0.66918729870E+02  0.86290279623E+02  0.10933045834E+03  0.00000000000E+00 0. -1.
</event>
<event>
 7    1  0.6188600E-006  0.3770396E+02  0.7818608E-02  0.1540257E+00
          2   -1    0    0  502    0  0.00000000000E+00  0.00000000000E+00  0.25408727467E+03  0.25408727467E+03  0.00000000000E+00 0. -1.
          1   -1    0    0  501    0 -0.00000000000E+00 -0.00000000000E+00 -0.12585074315E+04  0.12585074315E+04  0.00000000000E+00 0. -1.
         25    2    1    2    0    0 -0.31554279527E+01  0.73130857684E-01 -0.69749434813E+03  0.70861352086E+03  0.12499917684E+03 0.  0.
          2    1    1    2  501    0  0.94512909187E+01  0.37101465089E+02 -0.55335821156E+03  0.55468112994E+03  0.00000000000E+00 0. -1.
          1    1    1    2  502    0 -0.62958629660E+01 -0.37174595946E+02  0.24643240281E+03  0.24930005541E+03  0.00000000000E+00 0. -1.
         22    1    3    3    0    0 -0.56153078111E+02 -0.10542003952E+02 -0.19434059541E+03  0.20256497489E+03  0.00000000000E+00 0. -1.
         22    1    3    3    0    0  0.52997650158E+02  0.10615134810E+02 -0.50315375272E+03  0.50604854597E+03  0.00000000000E+00 0. -1.
</event>
<event>
 7    1  0.6188600E-006  0.3334715E+03  0.7818608E-02  0.1149992E+00
          2   -1    0    0  502    0  0.00000000000E+00  0.00000000000E+00  0.25756542684E+04  0.25756542684E+04  0.00000000000E+00 0. -1.
          1   -1    0    0  501    0 -0.00000000000E+00 -0.00000000000E+00 -0.19119523693E+03  0.19119523693E+03  0.00000000000E+00 0. -1.
         25    2    1    2    0    0 -0.52045691688E+02 -0.24863923486E+03  0.52345393397E+03  0.59511226359E+03  0.12499744856E+03 0.  0.
          2    1    1    2  501    0 -0.24675720304E+01 -0.11956586960E+03 -0.11204847881E+03  0.16388089482E+03  0.00000000000E+00 0. -1.
          1    1    1    2  502    0  0.54513263719E+02  0.36820510446E+03  0.19730535763E+04  0.20078563469E+04  0.00000000000E+00 0. -1.
         22    1    3    3    0    0  0.52393726317E+00 -0.10467880731E+03  0.99964088975E+02  0.14474372627E+03  0.00000000000E+00 0. -1.
         22    1    3    3    0    0 -0.52569628951E+02 -0.14396042755E+03  0.42348984499E+03  0.45036853731E+03  0.00000000000E+00 0. -1.
</event>
<event>
 7    1  0.6188600E-006  0.8345190E+02  0.7818608E-02  0.1376879E+00
          2   -1    0    0  502    0  0.00000000000E+00  0.00000000000E+00  0.10312475653E+04  0.10312475653E+04  0.00000000000E+00 0. -1.
          1   -1    0    0  501    0 -0.00000000000E+00 -0.00000000000E+00 -0.39551529736E+03  0.39551529736E+03  0.00000000000E+00 0. -1.
         25    2    1    2    0    0  0.12789291699E+03  0.27889431912E+02  0.53034037023E+01  0.18107536458E+03  0.12500297172E+03 0.  0.
          2    1    1    2  501    0 -0.80208704166E+02 -0.95683184824E+01 -0.30161519359E+03  0.31224463798E+03  0.00000000000E+00 0. -1.
          1    1    1    2  502    0 -0.47684212821E+02 -0.18321113430E+02  0.93204405780E+03  0.93344286007E+03  0.00000000000E+00 0. -1.
         22    1    3    3    0    0  0.13862888563E+03  0.47554775136E+02 -0.19271370078E+02  0.14782019576E+03  0.00000000000E+00 0.  1.
         22    1    3    3    0    0 -0.10735968645E+02 -0.19665343224E+02  0.24574773780E+02  0.33255168819E+02  0.00000000000E+00 0.  1.
</event>
<event>
 7    1  0.6188600E-006  0.8629768E+02  0.7818608E-02  0.1363932E+00
          2   -1    0    0  502    0  0.00000000000E+00  0.00000000000E+00  0.18636163214E+04  0.18636163214E+04  0.00000000000E+00 0. -1.
          1   -1    0    0  501    0 -0.00000000000E+00 -0.00000000000E+00 -0.36229898358E+03  0.36229898358E+03  0.00000000000E+00 0. -1.
         25    2    1    2    0    0  0.57062604122E+02 -0.43464829817E+02  0.71009081937E+02  0.16066433912E+03  0.12500163170E+03 0.  0.
          2    1    1    2  501    0 -0.36516003943E+02 -0.41106299505E+02 -0.31399762634E+03  0.31877524331E+03  0.00000000000E+00 0. -1.
          1    1    1    2  502    0 -0.20546600178E+02  0.84571129321E+02  0.17443058822E+04  0.17464757225E+04  0.00000000000E+00 0. -1.
         22    1    3    3    0    0  0.84480950851E+02 -0.30767353597E+02  0.88160281928E+02  0.12592019859E+03  0.00000000000E+00 0. -1.
         22    1    3    3    0    0 -0.27418346729E+02 -0.12697476220E+02 -0.17151199990E+02  0.34744140525E+02  0.00000000000E+00 0. -1.
</event>
<event>
 7    1  0.6188600E-006  0.3800278E+02  0.7818608E-02  0.1527403E+00
          2   -1    0    0  502    0  0.00000000000E+00  0.00000000000E+00  0.11604798576E+03  0.11604798576E+03  0.00000000000E+00 0. -1.
          1   -1    0    0  501    0 -0.00000000000E+00 -0.00000000000E+00 -0.60766318900E+03  0.60766318900E+03  0.00000000000E+00 0. -1.
         25    2    1    2    0    0  0.68287866559E+02 -0.25920010358E+02 -0.16984147500E+02  0.14577124635E+03  0.12500286133E+03 0.  0.
          2    1    1    2  501    0 -0.37192871510E+02  0.58355475769E+01 -0.51888278469E+03  0.52024677563E+03  0.00000000000E+00 0. -1.
          1    1    1    2  502    0 -0.31094995049E+02  0.20084462781E+02  0.44251728950E+02  0.57693152777E+02  0.00000000000E+00 0. -1.
         22    1    3    3    0    0  0.58251999965E+02  0.29420027059E+02  0.30620603437E+02  0.72086440104E+02  0.00000000000E+00 0. -1.
         22    1    3    3    0    0  0.10035866595E+02 -0.55340037416E+02 -0.47604750937E+02  0.73684806245E+02  0.00000000000E+00 0. -1.
</event>
<event>
 7    1  0.6188600E-006  0.1051996E+03  0.7818608E-02  0.1349459E+00
          2   -1    0    0  502    0  0.00000000000E+00  0.00000000000E+00  0.45878749497E+03  0.45878749497E+03  0.00000000000E+00 0. -1.
          1   -1    0    0  501    0 -0.00000000000E+00 -0.00000000000E+00 -0.87763420247E+03  0.87763420247E+03  0.00000000000E+00 0. -1.
         25    2    1    2    0    0 -0.73094792188E+02 -0.47059459688E+02 -0.25999374409E+03  0.30129415672E+03  0.12499592199E+03 0.  0.
          2    1    1    2  501    0  0.57733148352E+02  0.95657567958E+02 -0.59024918781E+03  0.60073088021E+03  0.00000000000E+00 0. -1.
          1    1    1    2  502    0  0.15361643836E+02 -0.48598108271E+02  0.43139622440E+03  0.43439666051E+03  0.00000000000E+00 0. -1.
         22    1    3    3    0    0 -0.49697416712E+02 -0.52309003615E+02 -0.45147321355E+02  0.85113722235E+02  0.00000000000E+00 0.  1.
         22    1    3    3    0    0 -0.23397375476E+02  0.52495439278E+01 -0.21484642274E+03  0.21618043448E+03  0.00000000000E+00 0.  1.
</event>
<event>
 7    1  0.6188600E-006  0.5846316E+02  0.7818608E-02  0.1542763E+00
          2   -1    0    0  502    0  0.00000000000E+00  0.00000000000E+00  0.34746625555E+03  0.34746625555E+03  0.00000000000E+00 0. -1.
          1   -1    0    0  501    0 -0.00000000000E+00 -0.00000000000E+00 -0.29017381135E+03  0.29017381135E+03  0.00000000000E+00 0. -1.
         25    2    1    2    0    0 -0.28483928247E+02  0.74343513564E+02 -0.82433104161E+02  0.16957614056E+03  0.12499023405E+03 0.  0.
          2    1    1    2  501    0  0.97384520424E+01 -0.19457672393E+02 -0.16066186126E+03  0.16212856666E+03  0.00000000000E+00 0. -1.
          1    1    1    2  502    0  0.18745476204E+02 -0.54885841171E+02  0.30038740963E+03  0.30593535968E+03  0.00000000000E+00 0. -1.
         22    1    3    3    0    0 -0.32148876435E+02 -0.25860058864E+02 -0.24832212427E+01  0.41333512895E+02  0.00000000000E+00 0.  1.
         22    1    3    3    0    0  0.36649481887E+01  0.10020357243E+03 -0.79949882918E+02  0.12824262767E+03  0.00000000000E+00 0.  1.
</event>
<event>
 7    1  0.6188600E-006  0.6300297E+02  0.7818608E-02  0.1531086E+00
          2   -1    0    0  502    0  0.00000000000E+00  0.00000000000E+00  0.50133992480E+03  0.50133992480E+03  0.00000000000E+00 0. -1.
          1   -1    0    0  501    0 -0.00000000000E+00 -0.00000000000E+00 -0.18700078555E+04  0.18700078555E+04  0.00000000000E+00 0. -1.
         25    2    1    2    0    0  0.20012033914E+01  0.77955576919E+02 -0.86178235055E+02  0.17068420504E+03  0.12500133145E+03 0.  0.
          2    1    1    2  501    0 -0.15536293493E+02 -0.60876593650E+02 -0.17407509931E+04  0.17418844267E+04  0.00000000000E+00 0. -1.
          1    1    1    2  502    0  0.13535090101E+02 -0.17078983269E+02  0.45826129749E+03  0.45877914851E+03  0.00000000000E+00 0. -1.
         22    1    3    3    0    0 -0.51060869997E+02 -0.11569777443E+01 -0.20796482984E+02  0.55145668432E+02  0.00000000000E+00 0. -1.
         22    1    3    3    0    0  0.53062073388E+02  0.79112554663E+02 -0.65381752071E+02  0.11553853661E+03  0.00000000000E+00 0. -1.
</event>
<event>
 7    1  0.6188600E-006  0.1990387E+03  0.7818608E-02  0.1362853E+00
          2   -1    0    0  502    0  0.00000000000E+00  0.00000000000E+00  0.59645549850E+03  0.59645549850E+03  0.00000000000E+00 0. -1.
          1   -1    0    0  501    0 -0.00000000000E+00 -0.00000000000E+00 -0.16777449959E+04  0.16777449959E+04  0.00000000000E+00 0. -1.
         25    2    1    2    0    0 -0.12256610124E+03 -0.12763732781E+03 -0.49407134049E+03  0.53948596297E+03  0.12499951251E+03 0.  0.
          2    1    1    2  501    0 -0.21508110548E+02 -0.10772744935E+02 -0.11434439150E+04  0.11436969168E+04  0.00000000000E+00 0. -1.
          1    1    1    2  502    0  0.14407421179E+03  0.13841007274E+03  0.55622575811E+03  0.59101761456E+03  0.00000000000E+00 0. -1.
         22    1    3    3    0    0 -0.10521532280E+03 -0.14995955315E+03 -0.37840826097E+03  0.42041758253E+03  0.00000000000E+00 0.  1.
         22    1    3    3    0    0 -0.17350778440E+02  0.22322225338E+02 -0.11566307952E+03  0.11906838044E+03  0.00000000000E+00 0.  1.
</event>
<event>
 7    1  0.6188600E-006  0.1474141E+03  0.7818608E-02  0.1253056E+00
          2   -1    0    0  502    0  0.00000000000E+00  0.00000000000E+00  0.16365991771E+04  0.16365991771E+04  0.00000000000E+00 0. -1.
          1   -1    0    0  501    0 -0.00000000000E+00 -0.00000000000E+00 -0.34448133395E+03  0.34448133395E+03  0.00000000000E+00 0. -1.
         25    2    1    2    0    0  0.81635321730E+02  0.18759711794E+03 -0.37420021906E+02  0.24265689881E+03  0.12500043234E+03 0.  0.
          2    1    1    2  501    0 -0.78170294401E+02 -0.41291610222E+02 -0.19120586082E+03  0.21065439282E+03  0.00000000000E+00 0. -1.
          1    1    1    2  502    0 -0.34650273297E+01 -0.14630550772E+03  0.15207437259E+04  0.15277692194E+04  0.00000000000E+00 0. -1.
         22    1    3    3    0    0  0.49694412131E+02  0.19534012850E+03 -0.13511248118E+02  0.20201449014E+03  0.00000000000E+00 0.  1.
         22    1    3    3    0    0  0.31940909600E+02 -0.77430105572E+01 -0.23908773788E+02  0.40642408671E+02  0.00000000000E+00 0.  1.
</event>
<event>
 7    1  0.6188600E-006  0.1077155E+03  0.7818608E-02  0.1302919E+00
          2   -1    0    0  502    0  0.00000000000E+00  0.00000000000E+00  0.20363326604E+03  0.20363326604E+03  0.00000000000E+00 0. -1.
          1   -1    0    0  501    0 -0.00000000000E+00 -0.00000000000E+00 -0.22109223763E+04  0.22109223763E+04  0.00000000000E+00 0. -1.
         25    2    1    2    0    0  0.16737049616E+03 -0.33183565260E+02 -0.37950272336E+03  0.43446630526E+03  0.12499848551E+03 0.  0.
          2    1    1    2  501    0 -0.73601966426E+02 -0.15181908761E+02 -0.17872785228E+04  0.17888578082E+04  0.00000000000E+00 0. -1.
          1    1    1    2  502    0 -0.93768529737E+02  0.48365474021E+02  0.15949213588E+03  0.19123152892E+03  0.00000000000E+00 0. -1.
         22    1    3    3    0    0  0.17936486821E+03 -0.32000369799E+02 -0.27886091236E+03  0.33310537081E+03  0.00000000000E+00 0. -1.
         22    1    3    3    0    0 -0.11994372051E+02 -0.11831954613E+01 -0.10064181100E+03  0.10136093446E+03  0.00000000000E+00 0. -1.
</event>
<event>
 7    1  0.6188600E-006  0.1273354E+03  0.7818608E-02  0.1338204E+00
          2   -1    0    0  502    0  0.00000000000E+00  0.00000000000E+00  0.26851721661E+02  0.26851721661E+02  0.00000000000E+00 0. -1.
          1   -1    0    0  501    0 -0.00000000000E+00 -0.00000000000E+00 -0.18487497916E+04  0.18487497916E+04  0.00000000000E+00 0. -1.
         25    2    1    2    0    0 -0.68660908862E+02  0.14483829383E+03 -0.83716883084E+03  0.86149220377E+03  0.12499885623E+03 0.  0.
          2    1    1    2  501    0  0.64320587027E+02 -0.98648211657E+02 -0.94704572592E+03  0.95433967462E+03  0.00000000000E+00 0. -1.
          1    1    1    2  502    0  0.43403218350E+01 -0.46190082174E+02 -0.37683513135E+02  0.59769634825E+02  0.00000000000E+00 0. -1.
         22    1    3    3    0    0 -0.90578289084E+02  0.12174783546E+03 -0.49228753218E+03  0.51514461681E+03  0.00000000000E+00 0. -1.
         22    1    3    3    0    0  0.21917380221E+02  0.23090458367E+02 -0.34488129867E+03  0.34634758696E+03  0.00000000000E+00 0. -1.
</event>
<event>
 7    1  0.6188600E-006  0.9396573E+02  0.7818608E-02  0.1391422E+00
          2   -1    0    0  502    0  0.00000000000E+00  0.00000000000E+00  0.82081389402E+03  0.82081389402E+03  0.00000000000E+00 0. -1.
          1   -1    0    0  501    0 -0.00000000000E+00 -0.00000000000E+00 -0.46608022151E+03  0.46608022151E+03  0.00000000000E+00 0. -1.
         25    2    1    2    0    0 -0.66537864995E+02  0.91331836259E+01  0.66787540303E+02  0.15683010836E+03  0.12499761928E+03 0.  0.
          2    1    1    2  501    0  0.93078464175E+02  0.21223309832E+02 -0.41506240263E+03  0.42590002048E+03  0.00000000000E+00 0. -1.
          1    1    1    2  502    0 -0.26540599180E+02 -0.30356493458E+02  0.70300853484E+03  0.70416398669E+03  0.00000000000E+00 0. -1.
         22    1    3    3    0    0 -0.24234746731E+02  0.66050812522E+02  0.25910206774E+02  0.74975806758E+02  0.00000000000E+00 0. -1.
         22    1    3    3    0    0 -0.42303118264E+02 -0.56917628896E+02  0.40877333529E+02  0.81854301600E+02  0.00000000000E+00 0. -1.
</event>
<event>
 7    1  0.6188600E-006  0.2573244E+03  0.7818608E-02  0.1193179E+00
          2   -1    0    0  502    0  0.00000000000E+00  0.00000000000E+00  0.13431565923E+04  0.13431565923E+04  0.00000000000E+00 0. -1.
          1   -1    0    0  501    0 -0.00000000000E+00 -0.00000000000E+00 -0.14500196864E+04  0.14500196864E+04  0.00000000000E+00 0. -1.
         25    2    1    2    0    0  0.18475544868E+03 -0.14315650905E+02 -0.19344748882E+03  0.29561235159E+03  0.12500087121E+03 0.  0.
          2    1    1    2  501    0  0.72633404648E+02  0.60745004155E+02 -0.11903550436E+04  0.11941150267E+04  0.00000000000E+00 0. -1.
          1    1    1    2  502    0 -0.25738885333E+03 -0.46429353250E+02  0.12769394384E+04  0.13034489004E+04  0.00000000000E+00 0. -1.
         22    1    3    3    0    0  0.76709523401E+02 -0.42604640968E+02 -0.21113525815E+02  0.90251245891E+02  0.00000000000E+00 0.  1.
         22    1    3    3    0    0  0.10804592528E+03  0.28288990063E+02 -0.17233396300E+03  0.20536110570E+03  0.00000000000E+00 0.  1.
</event>
<event>
 7    1  0.6188600E-006  0.1163096E+03  0.7818608E-02  0.1448404E+00
          2   -1    0    0  502    0  0.00000000000E+00  0.00000000000E+00  0.22693175137E+04  0.22693175137E+04  0.00000000000E+00 0. -1.
          1   -1    0    0  501    0 -0.00000000000E+00 -0.00000000000E+00 -0.43189946411E+02  0.43189946411E+02  0.00000000000E+00 0. -1.
         25    2    1    2    0    0  0.55365624560E+02 -0.11195551505E+03  0.17598916159E+04  0.17687413559E+04  0.12501237830E+03 0.  0.
          2    1    1    2  501    0 -0.34388030973E+02  0.11074159596E+03  0.48810600271E+02  0.12581221104E+03  0.00000000000E+00 0. -1.
          1    1    1    2  502    0 -0.20977593586E+02  0.12139190976E+01  0.41742535110E+03  0.41795389312E+03  0.00000000000E+00 0. -1.
         22    1    3    3    0    0  0.35055197713E+02 -0.77552340385E+02  0.43499133713E+03  0.44323886987E+03  0.00000000000E+00 0. -1.
         22    1    3    3    0    0  0.20310426846E+02 -0.34403174669E+02  0.13249002788E+04  0.13255024861E+04  0.00000000000E+00 0. -1.
</event>
<event>
 7    1  0.6376572E-006  0.1294710E+03  0.7818608E-02  0.1326117E+00
          2   -1    0    0  502    0  0.00000000000E+00  0.00000000000E+00  0.15870490063E+04  0.15870490063E+04  0.00000000000E+00 0. -1.
          1   -1    0    0  501    0 -0.00000000000E+00 -0.00000000000E+00 -0.11546095198E+04  0.11546095198E+04  0.00000000000E+00 0. -1.
         25    2    1    2    0    0  0.82158968632E+02  0.16780648411E+00 -0.12850633321E+02  0.15012888705E+03  0.12499367850E+03 0.  0.
          2    1    1    2  501    0  0.47950717538E+02 -0.16559718724E+02 -0.10696860625E+04  0.10708883079E+04  0.00000000000E+00 0. -1.
          1    1    1    2  502    0 -0.13010968617E+03  0.16391912240E+02  0.15149761823E+04  0.15206413312E+04  0.00000000000E+00 0. -1.
         22    1    3    3    0    0  0.74884684369E+02 -0.42065834500E+02  0.28579975724E+02  0.90521077091E+02  0.00000000000E+00 0. -1.
         22    1    3    3    0    0  0.72742842629E+01  0.42233640984E+02 -0.41430609044E+02  0.59607809959E+02  0.00000000000E+00 0. -1.
</event>
<event>
 7    1  0.6188600E-006  0.1210495E+03  0.7818608E-02  0.1300232E+00
          2   -1    0    0  502    0  0.00000000000E+00  0.00000000000E+00  0.11838553006E+04  0.11838553006E+04  0.00000000000E+00 0. -1.
          1   -1    0    0  501    0 -0.00000000000E+00 -0.00000000000E+00 -0.32141121965E+03  0.32141121965E+03  0.00000000000E+00 0. -1.
         25    2    1    2    0    0  0.65335222439E+02 -0.13522608743E+03  0.73935184637E+02  0.20891721953E+03  0.12500082830E+03 0.  0.
          2    1    1    2  501    0 -0.94510371747E+02  0.73198415517E+02 -0.23864469232E+03  0.26691104805E+03  0.00000000000E+00 0. -1.
          1    1    1    2  502    0  0.29175149309E+02  0.62027671916E+02  0.10271535886E+04  0.10294382527E+04  0.00000000000E+00 0. -1.
         22    1    3    3    0    0  0.36226864026E+02 -0.56203563377E+02 -0.31552370591E+02  0.73937664985E+02  0.00000000000E+00 0.  1.
         22    1    3    3    0    0  0.29108358413E+02 -0.79022524055E+02  0.10548755523E+03  0.13497955455E+03  0.00000000000E+00 0.  1.
</event>
<event>
 7    1  0.6188600E-006  0.1569052E+03  0.7818608E-02  0.1249068E+00
          2   -1    0    0  502    0  0.00000000000E+00  0.00000000000E+00  0.20464536201E+04  0.20464536201E+04  0.00000000000E+00 0. -1.
          1   -1    0    0  501    0 -0.00000000000E+00 -0.00000000000E+00 -0.35211668542E+03  0.35211668542E+03  0.00000000000E+00 0. -1.
         25    2    1    2    0    0  0.56428676986E+02  0.10738305369E+03 -0.91442168207E+02  0.19672167898E+03  0.12498973177E+03 0.  0.
          2    1    1    2  501    0 -0.14015068123E+03 -0.12884006375E+03 -0.16332292824E+03  0.25083132652E+03  0.00000000000E+00 0. -1.
          1    1    1    2  502    0  0.83722004240E+02  0.21457010062E+02  0.19491020312E+04  0.19510173001E+04  0.00000000000E+00 0. -1.
         22    1    3    3    0    0  0.78194022155E+02  0.27417017738E+02 -0.15468840468E+02  0.84292840668E+02  0.00000000000E+00 0. -1.
         22    1    3    3    0    0 -0.21765345169E+02  0.79966035951E+02 -0.75973327739E+02  0.11242883831E+03  0.00000000000E+00 0. -1.
</event>
<event>
 7    1  0.6188600E-006  0.5749642E+02  0.7818608E-02  0.1437156E+00
          2   -1    0    0  502    0  0.00000000000E+00  0.00000000000E+00  0.67487189743E+02  0.67487189743E+02  0.00000000000E+00 0. -1.
          1   -1    0    0  501    0 -0.00000000000E+00 -0.00000000000E+00 -0.35317398649E+03  0.35317398649E+03  0.00000000000E+00 0. -1.
         25    2    1    2    0    0  0.16453307777E+02 -0.87331786180E+01 -0.51988224439E+02  0.13665594100E+03  0.12500036394E+03 0.  0.
          2    1    1    2  501    0 -0.61401931921E+02 -0.20276759870E+01 -0.22951772028E+03  0.23759775385E+03  0.00000000000E+00 0. -1.
          1    1    1    2  502    0  0.44948624144E+02  0.10760854605E+02 -0.41808520278E+01  0.46407481379E+02  0.00000000000E+00 0. -1.
         22    1    3    3    0    0  0.53995793104E+02  0.38097921145E+02 -0.31744742896E+02  0.73312522601E+02  0.00000000000E+00 0. -1.
         22    1    3    3    0    0 -0.37542485327E+02 -0.46831099763E+02 -0.20243481542E+02  0.63343418399E+02  0.00000000000E+00 0. -1.
</event>
<event>
 7    1  0.6188600E-006  0.3499444E+03  0.7818608E-02  0.1208106E+00
          2   -1    0    0  502    0  0.00000000000E+00  0.00000000000E+00  0.16384398953E+04  0.16384398953E+04  0.00000000000E+00 0. -1.
          1   -1    0    0  501    0 -0.00000000000E+00 -0.00000000000E+00 -0.47914360906E+03  0.47914360906E+03  0.00000000000E+00 0. -1.
         25    2    1    2    0    0  0.32528650689E+03 -0.13966933049E+03  0.10263257163E+03  0.38920013376E+03  0.12499786365E+03 0.  0.
          2    1    1    2  501    0 -0.31318678848E+02 -0.50256803154E+02 -0.31103171100E+03  0.31661858940E+03  0.00000000000E+00 0. -1.
          1    1    1    2  502    0 -0.29396782804E+03  0.18992613364E+03  0.13676954256E+04  0.14117647811E+04  0.00000000000E+00 0. -1.
         22    1    3    3    0    0 -0.38122904652E+01  0.89609177327E+01 -0.68000324963E+01  0.11877375432E+02  0.00000000000E+00 0. -1.
         22    1    3    3    0    0  0.32909879736E+03 -0.14863024822E+03  0.10943260413E+03  0.37732275833E+03  0.00000000000E+00 0. -1.
</event>
<event>
 7    1  0.6188600E-006  0.4481028E+02  0.7818608E-02  0.1547587E+00
          2   -1    0    0  502    0  0.00000000000E+00  0.00000000000E+00  0.11628075539E+04  0.11628075539E+04  0.00000000000E+00 0. -1.
          1   -1    0    0  501    0 -0.00000000000E+00 -0.00000000000E+00 -0.53331410462E+03  0.53331410462E+03  0.00000000000E+00 0. -1.
         25    2    1    2    0    0 -0.13660628777E+02 -0.18020908292E+02  0.57721540501E+02  0.13953212968E+03  0.12500429217E+03 0.  0.
          2    1    1    2  501    0  0.41175311885E+02  0.18331655335E+02 -0.49119900490E+03  0.49326252474E+03  0.00000000000E+00 0. -1.
          1    1    1    2  502    0 -0.27514683108E+02 -0.31074704264E+00  0.10629709137E+04  0.10633270041E+04  0.00000000000E+00 0. -1.
         22    1    3    3    0    0 -0.16940443952E+02  0.11551765253E+02  0.91933126008E+02  0.94191940098E+02  0.00000000000E+00 0. -1.
         22    1    3    3    0    0  0.32798151753E+01 -0.29572673545E+02 -0.34211585507E+02  0.45340189580E+02  0.00000000000E+00 0. -1.
</event>
<event>
 7    1  0.6188600E-006  0.2648875E+02  0.7818608E-02  0.1667957E+00
          2   -1    0    0  502    0  0.00000000000E+00  0.00000000000E+00  0.23716851279E+03  0.23716851279E+03  0.00000000000E+00 0. -1.
          1   -1    0    0  501    0 -0.00000000000E+00 -0.00000000000E+00 -0.44289443167E+03  0.44289443167E+03  0.00000000000E+00 0. -1.
         25    2    1    2    0    0  0.27467571510E+02  0.28385941403E+02  0.52921513264E+02  0.14137363504E+03  0.12500235584E+03 0.  0.
          2    1    1    2  501    0 -0.25828413688E+02 -0.57430000208E+01 -0.39730523276E+03  0.39818530483E+03  0.00000000000E+00 0. -1.
          1    1    1    2  502    0 -0.16391578219E+01 -0.22642941382E+02  0.13865780062E+03  0.14050400459E+03  0.00000000000E+00 0. -1.
         22    1    3    3    0    0 -0.26284599261E+02  0.96241316141E+01  0.75197631774E+02  0.80238319349E+02  0.00000000000E+00 0.  1.
         22    1    3    3    0    0  0.53752170771E+02  0.18761809789E+02 -0.22276118510E+02  0.61135315694E+02  0.00000000000E+00 0.  1.
</event>
<event>
 7    1  0.6188600E-006  0.4897582E+02  0.7818608E-02  0.1548828E+00
          2   -1    0    0  502    0  0.00000000000E+00  0.00000000000E+00  0.28856495046E+03  0.28856495046E+03  0.00000000000E+00 0. -1.
          1   -1    0    0  501    0 -0.00000000000E+00 -0.00000000000E+00 -0.32626939270E+03  0.32626939270E+03  0.00000000000E+00 0. -1.
         25    2    1    2    0    0  0.48233135673E+01  0.28068794937E+02 -0.38011689393E+02  0.13371902381E+03  0.12499906877E+03 0.  0.
          2    1    1    2  501    0 -0.23999789356E+02 -0.44070403347E+02 -0.23712317016E+03  0.24237489178E+03  0.00000000000E+00 0. -1.
          1    1    1    2  502    0  0.19176475788E+02  0.16001608410E+02  0.23743041731E+03  0.23874042758E+03  0.00000000000E+00 0. -1.
         22    1    3    3    0    0  0.30955195182E+00  0.39387410343E+02  0.39188773345E+02  0.55562792156E+02  0.00000000000E+00 0. -1.
         22    1    3    3    0    0  0.45137616155E+01 -0.11318615406E+02 -0.77200462738E+02  0.78156231649E+02  0.00000000000E+00 0. -1.
</event>
<event>
 7    1  0.6188600E-006  0.1052904E+03  0.7818608E-02  0.1458025E+00
          2   -1    0    0  502    0  0.00000000000E+00  0.00000000000E+00  0.11079122709E+03  0.11079122709E+03  0.00000000000E+00 0. -1.
          1   -1    0    0  501    0 -0.00000000000E+00 -0.00000000000E+00 -0.24180432031E+03  0.24180432031E+03  0.00000000000E+00 0. -1.
         25    2    1    2    0    0 -0.83475036147E+02 -0.67394094534E+02 -0.11870427753E+03  0.20303315956E+03  0.12498685027E+03 0.  0.
          2    1    1    2  501    0  0.66479694406E+02  0.80774427285E+02 -0.42082623367E+02  0.11276083124E+03  0.00000000000E+00 0. -1.
          1    1    1    2  502    0  0.16995341741E+02 -0.13380332751E+02  0.29773807675E+02  0.36801556609E+02  0.00000000000E+00 0. -1.
         22    1    3    3    0    0 -0.10479947150E+03 -0.66315111068E+02 -0.12932973383E+03  0.17918371365E+03  0.00000000000E+00 0.  1.
         22    1    3    3    0    0  0.21324435356E+02 -0.10789834661E+01  0.10625456306E+02  0.23849445912E+02  0.00000000000E+00 0.  1.
</event>
<event>
 7    1  0.6188600E-006  0.1140355E+03  0.7818608E-02  0.1417855E+00
          2   -1    0    0  502    0  0.00000000000E+00  0.00000000000E+00  0.71504405512E+03  0.71504405512E+03  0.00000000000E+00 0. -1.
          1   -1    0    0  501    0 -0.00000000000E+00 -0.00000000000E+00 -0.32705322955E+03  0.32705322955E+03  0.00000000000E+00 0. -1.
         25    2    1    2    0    0  0.12448791237E+03 -0.51158612207E+02  0.15984923360E+03  0.24349551039E+03  0.12499536858E+03 0.  0.
          2    1    1    2  501    0 -0.97975511627E+02  0.56209161538E+02 -0.27367043703E+03  0.29606448423E+03  0.00000000000E+00 0. -1.
          1    1    1    2  502    0 -0.26512400742E+02 -0.50505493304E+01  0.50181202900E+03  0.50253729005E+03  0.00000000000E+00 0. -1.
         22    1    3    3    0    0  0.14673324445E+03 -0.30177052290E+02  0.14833971945E+03  0.21082213327E+03  0.00000000000E+00 0. -1.
         22    1    3    3    0    0 -0.22245332082E+02 -0.20981559917E+02  0.11509514154E+02  0.32673377115E+02  0.00000000000E+00 0. -1.
</event>
<event>
 7    1  0.6188600E-006  0.1072392E+03  0.7818608E-02  0.1365943E+00
          2   -1    0    0  502    0  0.00000000000E+00  0.00000000000E+00  0.22484723641E+03  0.22484723641E+03  0.00000000000E+00 0. -1.
          1   -1    0    0  501    0 -0.00000000000E+00 -0.00000000000E+00 -0.34491758147E+03  0.34491758147E+03  0.00000000000E+00 0. -1.
         25    2    1    2    0    0  0.95775588673E+02  0.53454903457E+02 -0.20305530463E+03  0.26246454846E+03  0.12500316944E+03 0.  0.
          2    1    1    2  501    0  0.11235343402E+02 -0.42034461527E+02 -0.92057091996E+02  0.10182159439E+03  0.00000000000E+00 0. -1.
          1    1    1    2  502    0 -0.10701093207E+03 -0.11420441930E+02  0.17504205156E+03  0.20547867503E+03  0.00000000000E+00 0. -1.
         22    1    3    3    0    0  0.72622976622E+02  0.32844646721E+02 -0.27685322858E+02  0.84376209049E+02  0.00000000000E+00 0. -1.
         22    1    3    3    0    0  0.23152612051E+02  0.20610256736E+02 -0.17536998177E+03  0.17808833941E+03  0.00000000000E+00 0. -1.
</event>
<event>
 7    1  0.6188600E-006  0.1174409E+03  0.7818608E-02  0.1271801E+00
          2   -1    0    0  502    0  0.00000000000E+00  0.00000000000E+00  0.10291372340E+04  0.10291372340E+04  0.00000000000E+00 0. -1.
          1   -1    0    0  501    0 -0.00000000000E+00 -0.00000000000E+00 -0.21011259641E+03  0.21011259641E+03  0.00000000000E+00 0. -1.
         25    2    1    2    0    0 -0.11017573472E+03  0.49949593211E+02  0.16989741024E+03  0.24315421717E+03  0.12500075576E+03 0.  0.
          2    1    1    2  501    0 -0.30937633809E+01 -0.92313709093E+02 -0.15634771658E+03  0.18159295344E+03  0.00000000000E+00 0. -1.
          1    1    1    2  502    0  0.11326949810E+03  0.42364115882E+02  0.80547494397E+03  0.81450265983E+03  0.00000000000E+00 0. -1.
         22    1    3    3    0    0 -0.10495465537E+02 -0.37731011255E+02  0.55393372792E+02  0.67839588416E+02  0.00000000000E+00 0. -1.
         22    1    3    3    0    0 -0.99680269185E+02  0.87680604467E+02  0.11450403745E+03  0.17531462876E+03  0.00000000000E+00 0. -1.
</event>
<event>
 7    1  0.6188600E-006  0.8403718E+02  0.7818608E-02  0.1395260E+00
          2   -1    0    0  502    0  0.00000000000E+00  0.00000000000E+00  0.51486433339E+03  0.51486433339E+03  0.00000000000E+00 0. -1.
          1   -1    0    0  501    0 -0.00000000000E+00 -0.00000000000E+00 -0.46773354161E+03  0.46773354161E+03  0.00000000000E+00 0. -1.
         25    2    1    2    0    0 -0.79791096730E+02 -0.67216562008E+02 -0.30919272246E+02  0.16572895576E+03  0.12500160022E+03 0.  0.
          2    1    1    2  501    0 -0.40432379040E+00  0.43722085007E+02 -0.36418869320E+03  0.36680401913E+03  0.00000000000E+00 0. -1.
          1    1    1    2  502    0  0.80195420521E+02  0.23494477001E+02  0.44223875722E+03  0.45006490011E+03  0.00000000000E+00 0. -1.
         22    1    3    3    0    0 -0.73325142281E+02  0.98750918191E+01  0.15382363671E+02  0.75569246662E+02  0.00000000000E+00 0.  1.
         22    1    3    3    0    0 -0.64659544496E+01 -0.77091653827E+02 -0.46301635917E+02  0.90159709102E+02  0.00000000000E+00 0.  1.
</event>
<event>
 7    1  0.6188600E-006  0.3890726E+02  0.7818608E-02  0.1517323E+00
          2   -1    0    0  502    0  0.00000000000E+00  0.00000000000E+00  0.24845421434E+04  0.24845421434E+04  0.00000000000E+00 0. -1.
          1   -1    0    0  501    0 -0.00000000000E+00 -0.00000000000E+00 -0.10424366276E+02  0.10424366276E+02  0.00000000000E+00 0. -1.
         25    2    1    2    0    0  0.85441317680E+01 -0.49459003863E+01  0.12878700389E+04  0.12939598197E+04  0.12500125514E+03 0.  0.
          2    1    1    2  501    0  0.29415714225E+02  0.25465482015E+02  0.47318140032E+02  0.61259949345E+02  0.00000000000E+00 0. -1.
          1    1    1    2  502    0 -0.37959845993E+02 -0.20519581629E+02  0.11389295982E+04  0.11397467407E+04  0.00000000000E+00 0. -1.
         22    1    3    3    0    0  0.26341451594E+02  0.64293043456E+01  0.59264852586E+02  0.65173083236E+02  0.00000000000E+00 0. -1.
         22    1    3    3    0    0 -0.17797319826E+02 -0.11375204732E+02  0.12286051863E+04  0.12287867364E+04  0.00000000000E+00 0. -1.
</event>
<event>
 7    1  0.6188600E-006  0.5080929E+02  0.7818608E-02  0.1547069E+00
          2   -1    0    0  502    0  0.00000000000E+00  0.00000000000E+00  0.14101932450E+02  0.14101932450E+02  0.00000000000E+00 0. -1.
          1   -1    0    0  501    0 -0.00000000000E+00 -0.00000000000E+00 -0.13772117296E+04  0.13772117296E+04  0.00000000000E+00 0. -1.
         25    2    1    2    0    0 -0.41386890717E+02 -0.47881165398E+02 -0.42570139249E+03  0.44816696520E+03  0.12500588948E+03 0.  0.
          2    1    1    2  501    0  0.17045613295E+02  0.47276738989E+02 -0.87043359950E+03  0.87188318835E+03  0.00000000000E+00 0. -1.
          1    1    1    2  502    0  0.24341277422E+02  0.60442640876E+00 -0.66974805127E+02  0.71263508471E+02  0.00000000000E+00 0. -1.
         22    1    3    3    0    0  0.24971368428E+02  0.27379190833E+02 -0.79380927724E+02  0.87604343603E+02  0.00000000000E+00 0. -1.
         22    1    3    3    0    0 -0.66358259145E+02 -0.75260356231E+02 -0.34632046476E+03  0.36056262159E+03  0.00000000000E+00 0. -1.
</event>
<event>
 7    1  0.6188600E-006  0.7817858E+02  0.7818608E-02  0.1461623E+00
          2   -1    0    0  502    0  0.00000000000E+00  0.00000000000E+00  0.86160846273E+03  0.86160846273E+03  0.00000000000E+00 0. -1.
          1   -1    0    0  501    0 -0.00000000000E+00 -0.00000000000E+00 -0.25108740569E+03  0.25108740569E+03  0.00000000000E+00 0. -1.
         25    2    1    2    0    0  0.55894299551E+01  0.63847175248E+02  0.34499139966E+03  0.37249454665E+03  0.12500167171E+03 0.  0.
          2    1    1    2  501    0  0.25610086575E+02  0.12229197583E+02 -0.23310820428E+03  0.23482943749E+03  0.00000000000E+00 0. -1.
          1    1    1    2  502    0 -0.31199516530E+02 -0.76076372831E+02  0.49863786166E+03  0.50537188428E+03  0.00000000000E+00 0. -1.
         22    1    3    3    0    0 -0.29331718458E+02  0.76978943961E+02  0.12729921991E+03  0.15162848978E+03  0.00000000000E+00 0.  1.
         22    1    3    3    0    0  0.34921148413E+02 -0.13131768713E+02  0.21769217974E+03  0.22086605687E+03  0.00000000000E+00 0.  1.
</event>
<event>
 7    1  0.6188600E-006  0.9349726E+02  0.7818608E-02  0.1335557E+00
          2   -1    0    0  502    0  0.00000000000E+00  0.00000000000E+00  0.21337188351E+03  0.21337188351E+03  0.00000000000E+00 0. -1.
          1   -1    0    0  501    0 -0.00000000000E+00 -0.00000000000E+00 -0.47146374937E+03  0.47146374937E+03  0.00000000000E+00 0. -1.
         25    2    1    2    0    0 -0.14770537055E+03 -0.28202100705E+02 -0.26807505724E+02  0.19737149981E+03  0.12499852641E+03 0.  0.
          2    1    1    2  501    0  0.62459935411E+02  0.16712791618E+02 -0.34155033991E+03  0.34761644902E+03  0.00000000000E+00 0. -1.
          1    1    1    2  502    0  0.85245435135E+02  0.11489309086E+02  0.11026597978E+03  0.13984768404E+03  0.00000000000E+00 0. -1.
         22    1    3    3    0    0 -0.72651621552E+02  0.46875270195E+02 -0.28985264123E+02  0.91190430453E+02  0.00000000000E+00 0.  1.
         22    1    3    3    0    0 -0.75053748994E+02 -0.75077370899E+02  0.21777583991E+01  0.10618106936E+03  0.00000000000E+00 0.  1.
</event>
<event>
 7    1  0.6188600E-006  0.1386247E+03  0.7818608E-02  0.1255596E+00
          2   -1    0    0  502    0  0.00000000000E+00  0.00000000000E+00  0.25487619308E+04  0.25487619308E+04  0.00000000000E+00 0. -1.
          1   -1    0    0  501    0 -0.00000000000E+00 -0.00000000000E+00 -0.58489312641E+03  0.58489312641E+03  0.00000000000E+00 0. -1.
         25    2    1    2    0    0 -0.49127588681E+02 -0.18929775695E+03  0.39249968754E+03  0.45599241622E+03  0.12500367266E+03 0.  0.
          2    1    1    2  501    0  0.87852982564E+02  0.10620655026E+03 -0.54355207422E+03  0.56075559315E+03  0.00000000000E+00 0. -1.
          1    1    1    2  502    0 -0.38725393882E+02  0.83091206692E+02  0.21149211911E+04  0.21169070478E+04  0.00000000000E+00 0. -1.
         22    1    3    3    0    0  0.70992219576E+01 -0.12634390923E+03  0.32214834955E+03  0.34611088031E+03  0.00000000000E+00 0.  1.
         22    1    3    3    0    0 -0.56226810639E+02 -0.62953847723E+02  0.70351337992E+02  0.10988153591E+03  0.00000000000E+00 0.  1.
</event>
<event>
 7    1  0.6188600E-006  0.7292136E+02  0.7818608E-02  0.1404458E+00
          2   -1    0    0  502    0  0.00000000000E+00  0.00000000000E+00  0.26747140419E+03  0.26747140419E+03  0.00000000000E+00 0. -1.
          1   -1    0    0  501    0 -0.00000000000E+00 -0.00000000000E+00 -0.16780209534E+03  0.16780209534E+03  0.00000000000E+00 0. -1.
         25    2    1    2    0    0  0.67032959887E+02 -0.52405138992E+02  0.10975502100E+03  0.18684397988E+03  0.12499916752E+03 0.  0.
          2    1    1    2  501    0  0.51812655057E+01  0.46561612183E+02 -0.11314018880E+03  0.12245624347E+03  0.00000000000E+00 0. -1.
          1    1    1    2  502    0 -0.72214225393E+02  0.58435268088E+01  0.10305447665E+03  0.12597327618E+03  0.00000000000E+00 0. -1.
         22    1    3    3    0    0  0.50028884845E+02 -0.67113642596E+02  0.96705810612E+01  0.84265357528E+02  0.00000000000E+00 0. -1.
         22    1    3    3    0    0  0.17004075042E+02  0.14708503604E+02  0.10008443994E+03  0.10257862235E+03  0.00000000000E+00 0. -1.
</event>
<event>
 7    1  0.6188600E-006  0.4058986E+02  0.7818608E-02  0.1520344E+00
          2   -1    0    0  502    0  0.00000000000E+00  0.00000000000E+00  0.54933759708E+03  0.54933759708E+03  0.00000000000E+00 0. -1.
          1   -1    0    0  501    0 -0.00000000000E+00 -0.00000000000E+00 -0.40926017479E+03  0.40926017479E+03  0.00000000000E+00 0. -1.
         25    2    1    2    0    0 -0.20188309089E+02  0.15496307041E+02  0.23792254215E+03  0.26996219023E+03  0.12499897893E+03 0.  0.
          2    1    1    2  501    0 -0.64472533680E+01 -0.40194478622E+02 -0.39106311630E+03  0.39317619983E+03  0.00000000000E+00 0. -1.
          1    1    1    2  502    0  0.26635562456E+02  0.24698171581E+02  0.29321799643E+03  0.29545938181E+03  0.00000000000E+00 0. -1.
         22    1    3    3    0    0  0.87961320308E+01  0.16899330707E+02  0.24010705974E+03  0.24086170193E+03  0.00000000000E+00 0.  1.
         22    1    3    3    0    0 -0.28984441119E+02 -0.14030236659E+01 -0.21845175907E+01  0.29100488304E+02  0.00000000000E+00 0.  1.
</event>
<event>
 7    1  0.6188600E-006  0.1346131E+03  0.7818608E-02  0.1314608E+00
          2   -1    0    0  502    0  0.00000000000E+00  0.00000000000E+00  0.16597370479E+04  0.16597370479E+04  0.00000000000E+00 0. -1.
          1   -1    0    0  501    0 -0.00000000000E+00 -0.00000000000E+00 -0.32416145841E+03  0.32416145841E+03  0.00000000000E+00 0. -1.
         25    2    1    2    0    0  0.42482901547E+02  0.69603717416E+02 -0.13200553726E+03  0.19924844640E+03  0.12500002849E+03 0.  0.
          2    1    1    2  501    0  0.24552430605E+02  0.48176707021E+02 -0.15100814594E+03  0.16039724776E+03  0.00000000000E+00 0. -1.
          1    1    1    2  502    0 -0.67035332151E+02 -0.11778042444E+03  0.16185892727E+04  0.16242528122E+04  0.00000000000E+00 0. -1.
         22    1    3    3    0    0  0.81703000081E+02  0.43441124792E+02 -0.11822118575E+03  0.15012914542E+03  0.00000000000E+00 0. -1.
         22    1    3    3    0    0 -0.39220098534E+02  0.26162592624E+02 -0.13784351513E+02  0.49119300977E+02  0.00000000000E+00 0. -1.
</event>
<event>
 7    1  0.6188600E-006  0.9995026E+02  0.7818608E-02  0.1367436E+00
          2   -1    0    0  502    0  0.00000000000E+00  0.00000000000E+00  0.97646991059E+02  0.97646991059E+02  0.00000000000E+00 0. -1.
          1   -1    0    0  501    0 -0.00000000000E+00 -0.00000000000E+00 -0.24402566476E+04  0.24402566476E+04  0.00000000000E+00 0. -1.
         25    2    1    2    0    0  0.45803209332E+02  0.39345777125E+02 -0.20481948827E+03  0.24743077938E+03  0.12499977459E+03 0.  0.
          2    1    1    2  501    0 -0.91471634628E+02 -0.45689723073E+02 -0.22058759354E+04  0.22082443825E+04  0.00000000000E+00 0. -1.
          1    1    1    2  502    0  0.45668425296E+02  0.63439459474E+01  0.68085767058E+02  0.82228476790E+02  0.00000000000E+00 0. -1.
         22    1    3    3    0    0  0.50755025409E+02  0.35073590244E+02 -0.22127951432E+03  0.22971907364E+03  0.00000000000E+00 0.  1.
         22    1    3    3    0    0 -0.49518160767E+01  0.42721868817E+01  0.16460026041E+02  0.17711705747E+02  0.00000000000E+00 0.  1.
</event>
<event>
 7    1  0.6188600E-006  0.1505798E+03  0.7818608E-02  0.1412182E+00
          2   -1    0    0  502    0  0.00000000000E+00  0.00000000000E+00  0.11521048603E+04  0.11521048603E+04  0.00000000000E+00 0. -1.
          1   -1    0    0  501    0 -0.00000000000E+00 -0.00000000000E+00 -0.70001082428E+03  0.70001082428E+03  0.00000000000E+00 0. -1.
         25    2    1    2    0    0  0.13581619949E+03 -0.95350890331E+02  0.77225914503E+03  0.79971714389E+03  0.12500196322E+03 0.  0.
          2    1    1    2  501    0 -0.11456532150E+03  0.97482227586E+02 -0.67771637635E+03  0.69420997137E+03  0.00000000000E+00 0. -1.
          1    1    1    2  502    0 -0.21250877995E+02 -0.21313372549E+01  0.35755126738E+03  0.35818856935E+03  0.00000000000E+00 0. -1.
         22    1    3    3    0    0  0.13561162840E+02  0.29228960233E+02  0.94471047115E+02  0.99814908690E+02  0.00000000000E+00 0.  1.
         22    1    3    3    0    0  0.12225503665E+03 -0.12457985056E+03  0.67778809792E+03  0.69990223520E+03  0.00000000000E+00 0.  1.
</event>
<event>
 7    1  0.6188600E-006  0.1920943E+03  0.7818608E-02  0.1281516E+00
          2   -1    0    0  502    0  0.00000000000E+00  0.00000000000E+00  0.22536886945E+04  0.22536886945E+04  0.00000000000E+00 0. -1.
          1   -1    0    0  501    0 -0.00000000000E+00 -0.00000000000E+00 -0.59573556462E+03  0.59573556462E+03  0.00000000000E+00 0. -1.
         25    2    1    2    0    0  0.18292319677E+03  0.60383793666E+02  0.24680642001E+03  0.33711376436E+03  0.12500073082E+03 0.  0.
          2    1    1    2  501    0 -0.16023560615E+03 -0.10656984537E+03 -0.53341592861E+03  0.56706713387E+03  0.00000000000E+00 0. -1.
          1    1    1    2  502    0 -0.22687590624E+02  0.46186051705E+02  0.19445626385E+04  0.19452433609E+04  0.00000000000E+00 0. -1.
         22    1    3    3    0    0  0.83359720881E+02  0.87928227150E+02  0.16824134262E+03  0.20732912377E+03  0.00000000000E+00 0.  1.
         22    1    3    3    0    0  0.99563475890E+02 -0.27544433485E+02  0.78565077392E+02  0.12978464059E+03  0.00000000000E+00 0.  1.
</event>
<event>
 7    1  0.6188600E-006  0.6101728E+02  0.7818608E-02  0.1485717E+00
          2   -1    0    0  502    0  0.00000000000E+00  0.00000000000E+00  0.11076599845E+04  0.11076599845E+04  0.00000000000E+00 0. -1.
          1   -1    0    0  501    0 -0.00000000000E+00 -0.00000000000E+00 -0.35145829198E+03  0.35145829198E+03  0.00000000000E+00 0. -1.
         25    2    1    2    0    0  0.33908730644E+01  0.30688886787E+02  0.49873196917E+03  0.51508477259E+03  0.12500176034E+03 0.  0.
          2    1    1    2  501    0 -0.51114196628E+00 -0.61178279578E+02 -0.34016076581E+03  0.34561885041E+03  0.00000000000E+00 0. -1.
          1    1    1    2  502    0 -0.28797310981E+01  0.30489392791E+02  0.59763048921E+03  0.59841465353E+03  0.00000000000E+00 0. -1.
         22    1    3    3    0    0 -0.15650410827E+02 -0.40804187275E+02  0.94214214258E+02  0.10385680154E+03  0.00000000000E+00 0. -1.
         22    1    3    3    0    0  0.19041283892E+02  0.71493074062E+02  0.40451775491E+03  0.41122797105E+03  0.00000000000E+00 0. -1.
</event>
<event>
 7    1  0.6188600E-006  0.6865912E+02  0.7818608E-02  0.1432256E+00
          2   -1    0    0  502    0  0.00000000000E+00  0.00000000000E+00  0.11947109853E+04  0.11947109853E+04  0.00000000000E+00 0. -1.
          1   -1    0    0  501    0 -0.00000000000E+00 -0.00000000000E+00 -0.25728070457E+03  0.25728070457E+03  0.00000000000E+00 0. -1.
         25    2    1    2    0    0  0.26938924772E+02  0.17005118665E+02  0.35373084049E+03  0.37651959363E+03  0.12500646840E+03 0.  0.
          2    1    1    2  501    0 -0.44037933025E+02 -0.53341974697E+02 -0.24052300150E+03  0.25027189227E+03  0.00000000000E+00 0. -1.
          1    1    1    2  502    0  0.17099008254E+02  0.36336856032E+02  0.82422244171E+03  0.82520020396E+03  0.00000000000E+00 0. -1.
         22    1    3    3    0    0 -0.32514752400E+02  0.24078452200E+02  0.39179206187E+02  0.56320433072E+02  0.00000000000E+00 0. -1.
         22    1    3    3    0    0  0.59453677172E+02 -0.70733335348E+01  0.31455163431E+03  0.32019916056E+03  0.00000000000E+00 0. -1.
</event>
<event>
 7    1  0.6188600E-006  0.5043176E+02  0.7818608E-02  0.1499821E+00
          2   -1    0    0  502    0  0.00000000000E+00  0.00000000000E+00  0.35963683791E+03  0.35963683791E+03  0.00000000000E+00 0. -1.
          1   -1    0    0  501    0 -0.00000000000E+00 -0.00000000000E+00 -0.27850168562E+03  0.27850168562E+03  0.00000000000E+00 0. -1.
         25    2    1    2    0    0 -0.61477021305E+02 -0.24948104960E+02  0.11834617185E+02  0.14200972395E+03  0.12499948577E+03 0.  0.
          2    1    1    2  501    0  0.30354943288E+02 -0.14401883638E+02 -0.20984145616E+03  0.21251417260E+03  0.00000000000E+00 0. -1.
          1    1    1    2  502    0  0.31122078017E+02  0.39349988598E+02  0.27914199127E+03  0.28361462697E+03  0.00000000000E+00 0. -1.
         22    1    3    3    0    0 -0.33266226043E+02  0.50139224971E+02  0.13960686251E+02  0.61769607708E+02  0.00000000000E+00 0. -1.
         22    1    3    3    0    0 -0.28210795262E+02 -0.75087329931E+02 -0.21260690660E+01  0.80240116246E+02  0.00000000000E+00 0. -1.
</event>
<event>
 7    1  0.6188600E-006  0.2352719E+02  0.7818608E-02  0.1697275E+00
          2   -1    0    0  502    0  0.00000000000E+00  0.00000000000E+00  0.93189186684E+02  0.93189186684E+02  0.00000000000E+00 0. -1.
          1   -1    0    0  501    0 -0.00000000000E+00 -0.00000000000E+00 -0.22368428518E+03  0.22368428518E+03  0.00000000000E+00 0. -1.
         25    2    1    2    0    0  0.11855319987E+02 -0.81482742005E+01 -0.87420769455E+02  0.15321582698E+03  0.12500302285E+03 0.  0.
          2    1    1    2  501    0 -0.15371054571E+02 -0.15461959109E+02 -0.99779146498E+02  0.10213334213E+03  0.00000000000E+00 0. -1.
          1    1    1    2  502    0  0.35157345843E+01  0.23610233310E+02  0.56704817458E+02  0.61524302755E+02  0.00000000000E+00 0. -1.
         22    1    3    3    0    0 -0.93504681560E+01 -0.56722898243E+02 -0.84477374385E+01  0.58105788934E+02  0.00000000000E+00 0.  1.
         22    1    3    3    0    0  0.21205788143E+02  0.48574624042E+02 -0.78973032017E+02  0.95110038048E+02  0.00000000000E+00 0.  1.
</event>
<event>
 7    1  0.6188600E-006  0.1372686E+03  0.7818608E-02  0.1343553E+00
          2   -1    0    0  502    0  0.00000000000E+00  0.00000000000E+00  0.11189176949E+04  0.11189176949E+04  0.00000000000E+00 0. -1.
          1   -1    0    0  501    0 -0.00000000000E+00 -0.00000000000E+00 -0.60705312175E+03  0.60705312175E+03  0.00000000000E+00 0. -1.
         25    2    1    2    0    0 -0.10982104235E+03  0.97751742949E+02  0.46258987370E+03  0.50122855675E+03  0.12499844101E+03 0.  0.
          2    1    1    2  501    0 -0.12044714149E+02 -0.39285351860E+02 -0.57982844885E+03  0.58128258542E+03  0.00000000000E+00 0. -1.
          1    1    1    2  502    0  0.12186575650E+03 -0.58466391089E+02  0.62910314826E+03  0.64345967445E+03  0.00000000000E+00 0. -1.
         22    1    3    3    0    0 -0.40183406196E+02  0.44653100090E+02  0.36581006329E+03  0.37070960048E+03  0.00000000000E+00 0.  1.
         22    1    3    3    0    0 -0.69637636156E+02  0.53098642859E+02  0.96779810410E+02  0.13051895627E+03  0.00000000000E+00 0.  1.
</event>
<event>
 7    1  0.6188600E-006  0.2077230E+03  0.7818608E-02  0.1215291E+00
          2   -1    0    0  502    0  0.00000000000E+00  0.00000000000E+00  0.10802457874E+04  0.10802457874E+04  0.00000000000E+00 0. -1.
          1   -1    0    0  501    0 -0.00000000000E+00 -0.00000000000E+00 -0.15375089744E+04  0.15375089744E+04  0.00000000000E+00 0. -1.
         25    2    1    2    0    0 -0.92689065426E+02 -0.23431945920E+03 -0.48960540053E+03  0.56465507595E+03  0.12500013903E+03 0.  0.
          2    1    1    2  501    0  0.88318808878E+02  0.27206992876E+02 -0.99793355646E+03  0.10022034801E+04  0.00000000000E+00 0. -1.
          1    1    1    2  502    0  0.43702565479E+01  0.20711246632E+03  0.10302757700E+04  0.10508962057E+04  0.00000000000E+00 0. -1.
         22    1    3    3    0    0 -0.10556890055E+03 -0.21812255786E+03 -0.48678981962E+03  0.54377069753E+03  0.00000000000E+00 0. -1.
         22    1    3    3    0    0  0.12879835121E+02 -0.16196901344E+02 -0.28155809063E+01  0.20884378414E+02  0.00000000000E+00 0. -1.
</event>
<event>
 7    1  0.6188600E-006  0.3624619E+03  0.7818608E-02  0.1238234E+00
          2   -1    0    0  502    0  0.00000000000E+00  0.00000000000E+00  0.48352106160E+03  0.48352106160E+03  0.00000000000E+00 0. -1.
          1   -1    0    0  501    0 -0.00000000000E+00 -0.00000000000E+00 -0.12134296688E+04  0.12134296688E+04  0.00000000000E+00 0. -1.
         25    2    1    2    0    0  0.62639392351E+01  0.38154094172E+03 -0.26997366501E+03  0.48386351992E+03  0.12500159585E+03 0.  0.
          2    1    1    2  501    0  0.26040760820E+02 -0.35511378987E+03 -0.79727597701E+03  0.87317404250E+03  0.00000000000E+00 0. -1.
          1    1    1    2  502    0 -0.32304700055E+02 -0.26427151849E+02  0.33734103482E+03  0.33991316799E+03  0.00000000000E+00 0. -1.
         22    1    3    3    0    0  0.32638412766E+02  0.29176940094E+03 -0.14416314955E+03  0.32707439980E+03  0.00000000000E+00 0.  1.
         22    1    3    3    0    0 -0.26374473531E+02  0.89771540775E+02 -0.12581051546E+03  0.15678912012E+03  0.00000000000E+00 0.  1.
</event>
<event>
 7    1  0.6188600E-006  0.8283808E+02  0.7818608E-02  0.1498649E+00
          2   -1    0    0  502    0  0.00000000000E+00  0.00000000000E+00  0.13052596362E+04  0.13052596362E+04  0.00000000000E+00 0. -1.
          1   -1    0    0  501    0 -0.00000000000E+00 -0.00000000000E+00 -0.40345444181E+02  0.40345444181E+02  0.00000000000E+00 0. -1.
         25    2    1    2    0    0  0.74466211295E+02  0.64270171927E+02  0.37847061074E+03  0.41053683130E+03  0.12499846013E+03 0.  0.
          2    1    1    2  501    0 -0.54550050400E+02 -0.58928052958E+02  0.42464919901E+02  0.90837728099E+02  0.00000000000E+00 0. -1.
          1    1    1    2  502    0 -0.19916160895E+02 -0.53421189681E+01  0.84397866139E+03  0.84423052100E+03  0.00000000000E+00 0. -1.
         22    1    3    3    0    0  0.68922784421E+02 -0.18956962699E+02  0.12886685486E+03  0.14736479542E+03  0.00000000000E+00 0.  1.
         22    1    3    3    0    0  0.55434268738E+01  0.83227134625E+02  0.24960375588E+03  0.26317203588E+03  0.00000000000E+00 0.  1.
</event>
<event>
 7    1  0.6188600E-006  0.1960981E+03  0.7818608E-02  0.1323295E+00
          2   -1    0    0  502    0  0.00000000000E+00  0.00000000000E+00  0.17527207449E+04  0.17527207449E+04  0.00000000000E+00 0. -1.
          1   -1    0    0  501    0 -0.00000000000E+00 -0.00000000000E+00 -0.13123441817E+03  0.13123441817E+03  0.00000000000E+00 0. -1.
         25    2    1    2    0    0  0.19888675468E+03 -0.87187310272E+02  0.23205392556E+03  0.34151307417E+03  0.12499834879E+03 0.  0.
          2    1    1    2  501    0 -0.17803421830E+03  0.59900786375E+02  0.39344363141E+02  0.19191734159E+03  0.00000000000E+00 0. -1.
          1    1    1    2  502    0 -0.20852536381E+02  0.27286523897E+02  0.13500880380E+04  0.13505247473E+04  0.00000000000E+00 0. -1.
         22    1    3    3    0    0  0.20446546368E+03 -0.55392511981E+02  0.22387666651E+03  0.30821294267E+03  0.00000000000E+00 0.  1.
         22    1    3    3    0    0 -0.55787090011E+01 -0.31794798291E+02  0.81772590569E+01  0.33300131504E+02  0.00000000000E+00 0.  1.
</event>
<event>
 7    1  0.6188600E-006  0.6635473E+02  0.7818608E-02  0.1387079E+00
          2   -1    0    0  502    0  0.00000000000E+00  0.00000000000E+00  0.83063878584E+03  0.83063878584E+03  0.00000000000E+00 0. -1.
          1   -1    0    0  501    0 -0.00000000000E+00 -0.00000000000E+00 -0.21770665632E+03  0.21770665632E+03  0.00000000000E+00 0. -1.
         25    2    1    2    0    0 -0.93224571367E+02  0.32976615979E+02  0.71895079579E+02  0.17485042763E+03  0.12500196665E+03 0.  0.
          2    1    1    2  501    0  0.55304746555E+02  0.20926208230E+02 -0.15937409858E+03  0.16999007172E+03  0.00000000000E+00 0. -1.
          1    1    1    2  502    0  0.37919824812E+02 -0.53902824209E+02  0.70041114853E+03  0.70350494281E+03  0.00000000000E+00 0. -1.
         22    1    3    3    0    0 -0.49020624669E+02  0.24085608870E+02  0.10537611338E+03  0.11868977828E+03  0.00000000000E+00 0.  1.
         22    1    3    3    0    0 -0.44203946698E+02  0.88910071092E+01 -0.33481033800E+02  0.56160649350E+02  0.00000000000E+00 0.  1.
</event>
<event>
 7    1  0.6188600E-006  0.1677682E+03  0.7818608E-02  0.1217897E+00
          2   -1    0    0  502    0  0.00000000000E+00  0.00000000000E+00  0.21147081624E+03  0.21147081624E+03  0.00000000000E+00 0. -1.
          1   -1    0    0  501    0 -0.00000000000E+00 -0.00000000000E+00 -0.81955832620E+03  0.81955832620E+03  0.00000000000E+00 0. -1.
         25    2    1    2    0    0 -0.22804356726E+03 -0.65806729187E+02 -0.94162045016E+02  0.28429797206E+03  0.12499780806E+03 0.  0.
          2    1    1    2  501    0  0.10794098103E+03 -0.27208381641E+02 -0.57302001145E+03  0.58373237441E+03  0.00000000000E+00 0. -1.
          1    1    1    2  502    0  0.12010258623E+03  0.93015110829E+02  0.59094546504E+02  0.16299879597E+03  0.00000000000E+00 0. -1.
         22    1    3    3    0    0 -0.22057343781E+03 -0.90018328796E+02 -0.67713949650E+02  0.24767139512E+03  0.00000000000E+00 0.  1.
         22    1    3    3    0    0 -0.74701294550E+01  0.24211599609E+02 -0.26448095366E+02  0.36626576938E+02  0.00000000000E+00 0.  1.
</event>
<event>
 7    1  0.6188600E-006  0.6942432E+02  0.7818608E-02  0.1367271E+00
          2   -1    0    0  502    0  0.00000000000E+00  0.00000000000E+00  0.34810131541E+03  0.34810131541E+03  0.00000000000E+00 0. -1.
          1   -1    0    0  501    0 -0.00000000000E+00 -0.00000000000E+00 -0.82226232046E+03  0.82226232046E+03  0.00000000000E+00 0. -1.
         25    2    1    2    0    0 -0.52965364770E+02  0.66203803253E+02 -0.73521069950E+02  0.16798531965E+03  0.12500178583E+03 0.  0.
          2    1    1    2  501    0 -0.16894821667E+02 -0.64288303434E+02 -0.69584548749E+03  0.69901313537E+03  0.00000000000E+00 0. -1.
          1    1    1    2  502    0  0.69860186438E+02 -0.19154998186E+01  0.29520555240E+03  0.30336518085E+03  0.00000000000E+00 0. -1.
         22    1    3    3    0    0 -0.90944826570E+02  0.63582925726E+02 -0.66213108982E+02  0.12922045397E+03  0.00000000000E+00 0.  1.
         22    1    3    3    0    0  0.37979461800E+02  0.26208775264E+01 -0.73079609687E+01  0.38764865679E+02  0.00000000000E+00 0.  1.
</event>
<event>
 7    1  0.6188600E-006  0.4162514E+02  0.7818608E-02  0.1560696E+00
          2   -1    0    0  502    0  0.00000000000E+00  0.00000000000E+00  0.30636880835E+04  0.30636880835E+04  0.00000000000E+00 0. -1.
          1   -1    0    0  501    0 -0.00000000000E+00 -0.00000000000E+00 -0.95356844458E+02  0.95356844458E+02  0.00000000000E+00 0. -1.
         25    2    1    2    0    0  0.14210535478E+02 -0.18456918094E+02  0.23204314465E+04  0.23239126312E+04  0.12500089045E+03 0.  0.
          2    1    1    2  501    0 -0.40298390103E+02  0.10609335586E+02 -0.88714618146E+02  0.98014293444E+02  0.00000000000E+00 0. -1.
          1    1    1    2  502    0  0.26087854625E+02  0.78475825084E+01  0.73661441071E+03  0.73711800329E+03  0.00000000000E+00 0. -1.
         22    1    3    3    0    0  0.16461190938E+02  0.51237081871E+02  0.74652757187E+03  0.74846484549E+03  0.00000000000E+00 0.  1.
         22    1    3    3    0    0 -0.22506554602E+01 -0.69693999965E+02  0.15739038746E+04  0.15754477857E+04  0.00000000000E+00 0.  1.
</event>
<event>
 7    1  0.6188600E-006  0.1064235E+03  0.7818608E-02  0.1323479E+00
          2   -1    0    0  502    0  0.00000000000E+00  0.00000000000E+00  0.16266020713E+04  0.16266020713E+04  0.00000000000E+00 0. -1.
          1   -1    0    0  501    0 -0.00000000000E+00 -0.00000000000E+00 -0.16869041790E+03  0.16869041790E+03  0.00000000000E+00 0. -1.
         25    2    1    2    0    0 -0.40466962381E+02  0.15851785561E+03  0.15677756373E+03  0.25878570397E+03  0.12500140199E+03 0.  0.
          2    1    1    2  501    0  0.22708204246E+02 -0.97888695965E+02 -0.95390464586E+02  0.13855396087E+03  0.00000000000E+00 0. -1.
          1    1    1    2  502    0  0.17758758135E+02 -0.60629159650E+02  0.13965245543E+04  0.13979528244E+04  0.00000000000E+00 0. -1.
         22    1    3    3    0    0  0.21610324912E+01  0.13577803706E+03  0.55738191875E+02  0.14678927564E+03  0.00000000000E+00 0.  1.
         22    1    3    3    0    0 -0.42627994872E+02  0.22739818554E+02  0.10103937185E+03  0.11199642833E+03  0.00000000000E+00 0.  1.
</event>
<event>
 7    1  0.6188600E-006  0.7823225E+02  0.7818608E-02  0.1460125E+00
          2   -1    0    0  502    0  0.00000000000E+00  0.00000000000E+00  0.53676469059E+03  0.53676469059E+03  0.00000000000E+00 0. -1.
          1   -1    0    0  501    0 -0.00000000000E+00 -0.00000000000E+00 -0.86697272550E+03  0.86697272550E+03  0.00000000000E+00 0. -1.
         25    2    1    2    0    0 -0.69078819423E+02 -0.79696428602E+02  0.14503786558E+02  0.16418733058E+03  0.12499486259E+03 0.  0.
          2    1    1    2  501    0  0.16319717791E+02  0.23572533548E+02 -0.78855314916E+03  0.78907418319E+03  0.00000000000E+00 0. -1.
          1    1    1    2  502    0  0.52759101631E+02  0.56123895054E+02  0.44384132770E+03  0.45047590232E+03  0.00000000000E+00 0. -1.
         22    1    3    3    0    0 -0.12179674558E+02  0.24595864800E+02  0.34104879025E+02  0.43777206523E+02  0.00000000000E+00 0.  1.
         22    1    3    3    0    0 -0.56899144864E+02 -0.10429229340E+03 -0.19601092467E+02  0.12041012406E+03  0.00000000000E+00 0.  1.
</event>
<event>
 7    1  0.6188600E-006  0.1700602E+03  0.7818608E-02  0.1348731E+00
          2   -1    0    0  502    0  0.00000000000E+00  0.00000000000E+00  0.14917814008E+04  0.14917814008E+04  0.00000000000E+00 0. -1.
          1   -1    0    0  501    0 -0.00000000000E+00 -0.00000000000E+00 -0.32361273939E+04  0.32361273939E+04  0.00000000000E+00 0. -1.
         25    2    1    2    0    0  0.10510223392E+03 -0.16902370827E+03 -0.40960609681E+03  0.47223329429E+03  0.12494653320E+03 0.  0.
          2    1    1    2  501    0 -0.92581319252E+02  0.13987321830E+03 -0.27925185171E+04  0.27975516950E+04  0.00000000000E+00 0. -1.
          1    1    1    2  502    0 -0.12520914669E+02  0.29150489975E+02  0.14577786209E+04  0.14581238054E+04  0.00000000000E+00 0. -1.
         22    1    3    3    0    0  0.11725680225E+03 -0.11956092964E+03 -0.37489086749E+03  0.41059363865E+03  0.00000000000E+00 0. -1.
         22    1    3    3    0    0 -0.12154568325E+02 -0.49462778627E+02 -0.34715229316E+02  0.61639655638E+02  0.00000000000E+00 0. -1.
</event>
<event>
 7    1  0.6188600E-006  0.4248457E+02  0.7818608E-02  0.1545175E+00
          2   -1    0    0  502    0  0.00000000000E+00  0.00000000000E+00  0.19923558850E+03  0.19923558850E+03  0.00000000000E+00 0. -1.
          1   -1    0    0  501    0 -0.00000000000E+00 -0.00000000000E+00 -0.85594214002E+03  0.85594214002E+03  0.00000000000E+00 0. -1.
         25    2    1    2    0    0  0.32839388311E+02 -0.32821905829E+02  0.65018253906E+02  0.14835260622E+03  0.12500167801E+03 0.  0.
          2    1    1    2  501    0 -0.27744695043E+02 -0.99592497853E+01 -0.80897794016E+03  0.80951483150E+03  0.00000000000E+00 0. -1.
          1    1    1    2  502    0 -0.50946932674E+01  0.42781155614E+02  0.87253134733E+02  0.97310290802E+02  0.00000000000E+00 0. -1.
         22    1    3    3    0    0  0.16910503185E+02  0.45618093705E+02  0.62449859532E+01  0.49050743529E+02  0.00000000000E+00 0.  1.
         22    1    3    3    0    0  0.15928885126E+02 -0.78439999533E+02  0.58773267953E+02  0.99301862692E+02  0.00000000000E+00 0.  1.
</event>
<event>
 7    1  0.6188600E-006  0.6191278E+02  0.7818608E-02  0.1413443E+00
          2   -1    0    0  502    0  0.00000000000E+00  0.00000000000E+00  0.62557055335E+03  0.62557055335E+03  0.00000000000E+00 0. -1.
          1   -1    0    0  501    0 -0.00000000000E+00 -0.00000000000E+00 -0.77617703288E+02  0.77617703288E+02  0.00000000000E+00 0. -1.
         25    2    1    2    0    0  0.10045850932E+03  0.32451469994E+02  0.30799202906E+03  0.34875382069E+03  0.12500050994E+03 0.  0.
          2    1    1    2  501    0 -0.59947529291E+02 -0.75483588178E+00 -0.38508487575E+02  0.71254330820E+02  0.00000000000E+00 0. -1.
          1    1    1    2  502    0 -0.40510980031E+02 -0.31696634112E+02  0.27846930858E+03  0.28318010513E+03  0.00000000000E+00 0. -1.
         22    1    3    3    0    0  0.12871986630E+03  0.39169698773E+02  0.25123464334E+03  0.28499458818E+03  0.00000000000E+00 0. -1.
         22    1    3    3    0    0 -0.28261356978E+02 -0.67182287795E+01  0.56757385723E+02  0.63759232510E+02  0.00000000000E+00 0. -1.
</event>
<event>
 7    1  0.6188600E-006  0.8725457E+02  0.7818608E-02  0.1468190E+00
          2   -1    0    0  502    0  0.00000000000E+00  0.00000000000E+00  0.27201987870E+03  0.27201987870E+03  0.00000000000E+00 0. -1.
          1   -1    0    0  501    0 -0.00000000000E+00 -0.00000000000E+00 -0.26338991267E+04  0.26338991267E+04  0.00000000000E+00 0. -1.
         25    2    1    2    0    0 -0.86879549019E+02 -0.77937853165E+00  0.14388239530E+03  0.20946918966E+03  0.12500613693E+03 0.  0.
          2    1    1    2  501    0  0.84098765265E+02 -0.23312117909E+02 -0.25988192188E+04  0.26002840977E+04  0.00000000000E+00 0. -1.
          1    1    1    2  502    0  0.27807837543E+01  0.24091496441E+02  0.93057575480E+02  0.96165717973E+02  0.00000000000E+00 0. -1.
         22    1    3    3    0    0 -0.61588294677E+02  0.59934139814E+02  0.72815542817E+02  0.11263801504E+03  0.00000000000E+00 0. -1.
         22    1    3    3    0    0 -0.25291254341E+02 -0.60713518346E+02  0.71066852485E+02  0.96831174620E+02  0.00000000000E+00 0. -1.
</event>
<event>
 7    1  0.6188600E-006  0.1756739E+03  0.7818608E-02  0.1299380E+00
          2   -1    0    0  502    0  0.00000000000E+00  0.00000000000E+00  0.46515910004E+04  0.46515910004E+04  0.00000000000E+00 0. -1.
          1   -1    0    0  501    0 -0.00000000000E+00 -0.00000000000E+00 -0.16797852722E+04  0.16797852722E+04  0.00000000000E+00 0. -1.
         25    2    1    2    0    0  0.10255880386E+03  0.17214693864E+03 -0.22515807503E+03  0.32630425578E+03  0.12500172741E+03 0.  0.
          2    1    1    2  501    0 -0.47283304293E+02 -0.55240731437E+01 -0.14019754119E+04  0.14027834052E+04  0.00000000000E+00 0. -1.
          1    1    1    2  502    0 -0.55275499563E+02 -0.16662286550E+03  0.45989392151E+04  0.46022886116E+04  0.00000000000E+00 0. -1.
         22    1    3    3    0    0  0.11004165189E+03  0.17066172078E+03 -0.23707636765E+03  0.31215347538E+03  0.00000000000E+00 0. -1.
         22    1    3    3    0    0 -0.74828480327E+01  0.14852178638E+01  0.11918292626E+02  0.14150780399E+02  0.00000000000E+00 0. -1.
</event>
<event>
 7    1  0.6188600E-006  0.6434430E+02  0.7818608E-02  0.1431535E+00
          2   -1    0    0  502    0  0.00000000000E+00  0.00000000000E+00  0.60811428187E+03  0.60811428187E+03  0.00000000000E+00 0. -1.
          1   -1    0    0  501    0 -0.00000000000E+00 -0.00000000000E+00 -0.48936105048E+03  0.48936105048E+03  0.00000000000E+00 0. -1.
         25    2    1    2    0    0  0.26761078779E+02  0.40316155222E+02  0.16148362473E+03  0.20986510936E+03  0.12499942145E+03 0.  0.
          2    1    1    2  501    0  0.92143941805E+01 -0.64026455712E+02 -0.46181164084E+03  0.46631993707E+03  0.00000000000E+00 0. -1.
          1    1    1    2  502    0 -0.35975472960E+02  0.23710300490E+02  0.41908124750E+03  0.42129028592E+03  0.00000000000E+00 0. -1.
         22    1    3    3    0    0  0.68783739831E+02 -0.54009133472E+01  0.10666003600E+03  0.12703045308E+03  0.00000000000E+00 0. -1.
         22    1    3    3    0    0 -0.42022661052E+02  0.45717068569E+02  0.54823588731E+02  0.82834656284E+02  0.00000000000E+00 0. -1.
</event>
<event>
 7    1  0.6188600E-006  0.8817565E+02  0.7818608E-02  0.1392655E+00
          2   -1    0    0  502    0  0.00000000000E+00  0.00000000000E+00  0.17243920659E+04  0.17243920659E+04  0.00000000000E+00 0. -1.
          1   -1    0    0  501    0 -0.00000000000E+00 -0.00000000000E+00 -0.53667585966E+03  0.53667585966E+03  0.00000000000E+00 0. -1.
         25    2    1    2    0    0 -0.16784012186E+01 -0.50565592116E+02  0.83055267891E+03  0.84142907983E+03  0.12500179120E+03 0.  0.
          2    1    1    2  501    0 -0.22821038231E+02  0.85352275793E+02 -0.52704915673E+03  0.53440305424E+03  0.00000000000E+00 0. -1.
          1    1    1    2  502    0  0.24499439450E+02 -0.34786683677E+02  0.88421268411E+03  0.88523579154E+03  0.00000000000E+00 0. -1.
         22    1    3    3    0    0 -0.54189412679E+02  0.24970015456E+01  0.23301660166E+03  0.23924770451E+03  0.00000000000E+00 0. -1.
         22    1    3    3    0    0  0.52511011461E+02 -0.53062593661E+02  0.59753607724E+03  0.60218137532E+03  0.00000000000E+00 0. -1.
</event>
<event>
 7    1  0.6188600E-006  0.1607014E+03  0.7818608E-02  0.1255467E+00
          2   -1    0    0  502    0  0.00000000000E+00  0.00000000000E+00  0.13870306252E+04  0.13870306252E+04  0.00000000000E+00 0. -1.
          1   -1    0    0  501    0 -0.00000000000E+00 -0.00000000000E+00 -0.20820135253E+03  0.20820135253E+03  0.00000000000E+00 0. -1.
         25    2    1    2    0    0  0.65903896600E+02  0.21332018868E+03  0.32120237590E+03  0.41066594346E+03  0.12500689721E+03 0.  0.
          2    1    1    2  501    0 -0.13161556071E+02 -0.15426380708E+03 -0.12485712660E+03  0.19889658316E+03  0.00000000000E+00 0. -1.
          1    1    1    2  502    0 -0.52742340529E+02 -0.59056381600E+02  0.98248402338E+03  0.98566945113E+03  0.00000000000E+00 0. -1.
         22    1    3    3    0    0  0.65036532540E+02  0.41546664288E+02  0.58727729334E+02  0.96978461892E+02  0.00000000000E+00 0. -1.
         22    1    3    3    0    0  0.86736406014E+00  0.17177352439E+03  0.26247464657E+03  0.31368748157E+03  0.00000000000E+00 0. -1.
</event>
<event>
 7    1  0.6188600E-006  0.1089104E+03  0.7818608E-02  0.1391230E+00
          2   -1    0    0  502    0  0.00000000000E+00  0.00000000000E+00  0.79668970574E+03  0.79668970574E+03  0.00000000000E+00 0. -1.
          1   -1    0    0  501    0 -0.00000000000E+00 -0.00000000000E+00 -0.12077405360E+04  0.12077405360E+04  0.00000000000E+00 0. -1.
         25    2    1    2    0    0  0.88060003987E+02  0.28207133984E+02 -0.42444467999E+02  0.16116920022E+03  0.12499508600E+03 0.  0.
          2    1    1    2  501    0  0.21668250214E+02 -0.27286197801E+02 -0.11015740213E+04  0.11021249358E+04  0.00000000000E+00 0. -1.
          1    1    1    2  502    0 -0.10972825420E+03 -0.92093618337E+00  0.73296765909E+03  0.74113610569E+03  0.00000000000E+00 0. -1.
         22    1    3    3    0    0 -0.21472171315E+02  0.25771742042E+02 -0.39156898150E+02  0.51560639073E+02  0.00000000000E+00 0.  1.
         22    1    3    3    0    0  0.10953217530E+03  0.24353919416E+01 -0.32875698493E+01  0.10960856114E+03  0.00000000000E+00 0.  1.
</event>
<event>
 7    1  0.6188600E-006  0.1200419E+03  0.7818608E-02  0.1279359E+00
          2   -1    0    0  502    0  0.00000000000E+00  0.00000000000E+00  0.10662221692E+04  0.10662221692E+04  0.00000000000E+00 0. -1.
          1   -1    0    0  501    0 -0.00000000000E+00 -0.00000000000E+00 -0.21355506416E+03  0.21355506416E+03  0.00000000000E+00 0. -1.
         25    2    1    2    0    0 -0.36641339769E+02 -0.62778686778E+02  0.11833220532E+03  0.18684571220E+03  0.12500023223E+03 0.  0.
          2    1    1    2  501    0  0.54148797449E+02 -0.64283747341E+02 -0.16463953786E+03  0.18485310347E+03  0.00000000000E+00 0. -1.
          1    1    1    2  502    0 -0.17507457680E+02  0.12706243412E+03  0.89897443759E+03  0.90807841769E+03  0.00000000000E+00 0. -1.
         22    1    3    3    0    0  0.18938893882E+02 -0.75733803612E+02  0.10008327847E+03  0.12692893028E+03  0.00000000000E+00 0.  1.
         22    1    3    3    0    0 -0.55580233651E+02  0.12955116834E+02  0.18248926845E+02  0.59916781922E+02  0.00000000000E+00 0.  1.
</event>
<event>
 7    1  0.6188600E-006  0.2827624E+02  0.7818608E-02  0.1645385E+00
          2   -1    0    0  502    0  0.00000000000E+00  0.00000000000E+00  0.13558801917E+04  0.13558801917E+04  0.00000000000E+00 0. -1.
          1   -1    0    0  501    0 -0.00000000000E+00 -0.00000000000E+00 -0.49110420422E+03  0.49110420422E+03  0.00000000000E+00 0. -1.
         25    2    1    2    0    0  0.36027571930E+02 -0.17074028389E+02  0.39689742044E+02  0.13707743198E+03  0.12500175339E+03 0.  0.
          2    1    1    2  501    0 -0.22801291987E+02 -0.79046332165E+01 -0.44192353683E+03  0.44258196364E+03  0.00000000000E+00 0. -1.
          1    1    1    2  502    0 -0.13226279943E+02  0.24978661605E+02  0.12670097823E+04  0.12673250003E+04  0.00000000000E+00 0. -1.
         22    1    3    3    0    0  0.46419006794E+02 -0.60226187359E+02  0.50643387786E+02  0.91360114722E+02  0.00000000000E+00 0. -1.
         22    1    3    3    0    0 -0.10391434864E+02  0.43152158970E+02 -0.10953645742E+02  0.45717317259E+02  0.00000000000E+00 0. -1.
</event>
<event>
 7    1  0.6188600E-006  0.9982686E+02  0.7818608E-02  0.1288862E+00
          2   -1    0    0  502    0  0.00000000000E+00  0.00000000000E+00  0.26692143673E+03  0.26692143673E+03  0.00000000000E+00 0. -1.
          1   -1    0    0  501    0 -0.00000000000E+00 -0.00000000000E+00 -0.92157341285E+03  0.92157341285E+03  0.00000000000E+00 0. -1.
         25    2    1    2    0    0  0.14299215705E+02 -0.50967283529E+02  0.80508780234E+02  0.15782770981E+03  0.12500316288E+03 0.  0.
          2    1    1    2  501    0 -0.10028772547E+03  0.17184134111E+02 -0.86519345764E+03  0.87115592260E+03  0.00000000000E+00 0. -1.
          1    1    1    2  502    0  0.85988509768E+02  0.33783149418E+02  0.13003270129E+03  0.15951121716E+03  0.00000000000E+00 0. -1.
         22    1    3    3    0    0  0.37216283927E+02  0.11586362284E+02  0.82429384155E+02  0.91180584296E+02  0.00000000000E+00 0.  1.
         22    1    3    3    0    0 -0.22917068223E+02 -0.62553645813E+02 -0.19206039212E+01  0.66647125519E+02  0.00000000000E+00 0.  1.
</event>
<event>
 7    1  0.6188600E-006  0.1643640E+03  0.7818608E-02  0.1193312E+00
          2   -1    0    0  502    0  0.00000000000E+00  0.00000000000E+00  0.11974055705E+04  0.11974055705E+04  0.00000000000E+00 0. -1.
          1   -1    0    0  501    0 -0.00000000000E+00 -0.00000000000E+00 -0.10489715136E+04  0.10489715136E+04  0.00000000000E+00 0. -1.
         25    2    1    2    0    0  0.13223196040E+03  0.18266227337E+03  0.12027742260E+03  0.28450632331E+03  0.12500556849E+03 0.  0.
          2    1    1    2  501    0 -0.15980458946E+03 -0.37230347315E+02 -0.95431114618E+03  0.96831470571E+03  0.00000000000E+00 0. -1.
          1    1    1    2  502    0  0.27572629058E+02 -0.14543192606E+03  0.98246778042E+03  0.99355605506E+03  0.00000000000E+00 0. -1.
         22    1    3    3    0    0  0.14501898444E+03  0.19229245745E+03  0.11844066951E+03  0.26839353054E+03  0.00000000000E+00 0. -1.
         22    1    3    3    0    0 -0.12787024039E+02 -0.96301840769E+01  0.18367530844E+01  0.16112792776E+02  0.00000000000E+00 0. -1.
</event>
<event>
 7    1  0.6188600E-006  0.1683535E+03  0.7818608E-02  0.1261797E+00
          2   -1    0    0  502    0  0.00000000000E+00  0.00000000000E+00  0.33421052083E+03  0.33421052083E+03  0.00000000000E+00 0. -1.
          1   -1    0    0  501    0 -0.00000000000E+00 -0.00000000000E+00 -0.52303678842E+03  0.52303678842E+03  0.00000000000E+00 0. -1.
         25    2    1    2    0    0 -0.10585368204E+03 -0.44333960185E+02 -0.28760238392E+03  0.33393202498E+03  0.12499985619E+03 0.  0.
          2    1    1    2  501    0 -0.66114214081E+02  0.25918362117E+02 -0.18098068589E+03  0.19441414420E+03  0.00000000000E+00 0. -1.
          1    1    1    2  502    0  0.17196789612E+03  0.18415598067E+02  0.27975680222E+03  0.32890114007E+03  0.00000000000E+00 0. -1.
         22    1    3    3    0    0 -0.93883357857E+02  0.94996787350E+01 -0.96246010004E+02  0.13478732589E+03  0.00000000000E+00 0. -1.
         22    1    3    3    0    0 -0.11970324184E+02 -0.53833638920E+02 -0.19135637391E+03  0.19914469909E+03  0.00000000000E+00 0. -1.
</event>
<event>
 7    1  0.6188600E-006  0.8872721E+02  0.7818608E-02  0.1383773E+00
          2   -1    0    0  502    0  0.00000000000E+00  0.00000000000E+00  0.81861081019E+03  0.81861081019E+03  0.00000000000E+00 0. -1.
          1   -1    0    0  501    0 -0.00000000000E+00 -0.00000000000E+00 -0.69789613129E+02  0.69789613129E+02  0.00000000000E+00 0. -1.
         25    2    1    2    0    0 -0.65043489040E+02  0.82998472546E+02  0.12444761367E+03  0.20550286545E+03  0.12499926898E+03 0.  0.
          2    1    1    2  501    0  0.75453276381E+02 -0.38787184931E+02  0.34997654198E+02  0.91774061863E+02  0.00000000000E+00 0. -1.
          1    1    1    2  502    0 -0.10409787341E+02 -0.44211287615E+02  0.58937592919E+03  0.59112349601E+03  0.00000000000E+00 0. -1.
         22    1    3    3    0    0 -0.10144949341E+03  0.56952285642E+02  0.73185684707E+02  0.13744710619E+03  0.00000000000E+00 0. -1.
         22    1    3    3    0    0  0.36406004375E+02  0.26046186903E+02  0.51261928967E+02  0.68055759258E+02  0.00000000000E+00 0. -1.
</event>
<event>
 7    1  0.6188600E-006  0.8648892E+02  0.7818608E-02  0.1375113E+00
          2   -1    0    0  502    0  0.00000000000E+00  0.00000000000E+00  0.35494890693E+04  0.35494890693E+04  0.00000000000E+00 0. -1.
          1   -1    0    0  501    0 -0.00000000000E+00 -0.00000000000E+00 -0.12052123505E+03  0.12052123505E+03  0.00000000000E+00 0. -1.
         25    2    1    2    0    0  0.56726074583E+01  0.10639101112E+03  0.11512395875E+04  0.11628965174E+04  0.12499798661E+03 0.  0.
          2    1    1    2  501    0  0.37602917090E+02 -0.32967320320E+02 -0.10844444485E+03  0.11941951767E+03  0.00000000000E+00 0. -1.
          1    1    1    2  502    0 -0.43275524548E+02 -0.73423690799E+02  0.23861726916E+04  0.23876942693E+04  0.00000000000E+00 0. -1.
         22    1    3    3    0    0  0.15441624419E+02  0.10386038483E+03  0.11472498532E+04  0.11520449856E+04  0.00000000000E+00 0. -1.
         22    1    3    3    0    0 -0.97690169606E+01  0.25306262943E+01  0.39897343081E+01  0.10851531766E+02  0.00000000000E+00 0. -1.
</event>
<event>
 7    1  0.6188600E-006  0.8904255E+02  0.7818608E-02  0.1350782E+00
          2   -1    0    0  502    0  0.00000000000E+00  0.00000000000E+00  0.15352134778E+03  0.15352134778E+03  0.00000000000E+00 0. -1.
          1   -1    0    0  501    0 -0.00000000000E+00 -0.00000000000E+00 -0.10153443426E+04  0.10153443426E+04  0.00000000000E+00 0. -1.
         25    2    1    2    0    0  0.57708512134E+02  0.22992324976E+01  0.23770938535E+00  0.13770076877E+03  0.12500354544E+03 0.  0.
          2    1    1    2  501    0  0.40684747034E+02 -0.43472576316E+02 -0.91161331124E+03  0.91355565937E+03  0.00000000000E+00 0. -1.
          1    1    1    2  502    0 -0.98393259167E+02  0.41173343819E+02  0.49552607066E+02  0.11760926221E+03  0.00000000000E+00 0. -1.
         22    1    3    3    0    0  0.68776817900E+02 -0.42711451825E+02 -0.25246961020E+02  0.84805234734E+02  0.00000000000E+00 0.  1.
         22    1    3    3    0    0 -0.11068305767E+02  0.45010684323E+02  0.25484670405E+02  0.52895534040E+02  0.00000000000E+00 0.  1.
</event>
<event>
 7    1  0.6188600E-006  0.8506130E+03  0.7818608E-02  0.1025611E+00
          2   -1    0    0  502    0  0.00000000000E+00  0.00000000000E+00  0.13437368693E+04  0.13437368693E+04  0.00000000000E+00 0. -1.
          1   -1    0    0  501    0 -0.00000000000E+00 -0.00000000000E+00 -0.91426193792E+03  0.91426193792E+03  0.00000000000E+00 0. -1.
         25    2    1    2    0    0 -0.99961936605E+01  0.70052709101E+03 -0.38062547184E+03  0.80705585862E+03  0.12500111997E+03 0.  0.
          2    1    1    2  501    0  0.15138598718E+03  0.19350665393E+03  0.14954871946E+02  0.24614262212E+03  0.00000000000E+00 0. -1.
          1    1    1    2  502    0 -0.14138979352E+03 -0.89403374494E+03  0.79514553129E+03  0.12048003265E+04  0.00000000000E+00 0. -1.
         22    1    3    3    0    0 -0.29507399807E+02  0.48014370139E+03 -0.31962840172E+03  0.57755603694E+03  0.00000000000E+00 0. -1.
         22    1    3    3    0    0  0.19511206146E+02  0.22038338962E+03 -0.60997070128E+02  0.22949982168E+03  0.00000000000E+00 0. -1.
</event>
<event>
 7    1  0.6188600E-006  0.2768706E+03  0.7818608E-02  0.1289962E+00
          2   -1    0    0  502    0  0.00000000000E+00  0.00000000000E+00  0.89878046939E+03  0.89878046939E+03  0.00000000000E+00 0. -1.
          1   -1    0    0  501    0 -0.00000000000E+00 -0.00000000000E+00 -0.10679499385E+04  0.10679499385E+04  0.00000000000E+00 0. -1.
         25    2    1    2    0    0 -0.25578424657E+03 -0.13017000745E+03 -0.66288380892E+02  0.31998326082E+03  0.12500130451E+03 0.  0.
          2    1    1    2  501    0  0.25258584519E+02 -0.21188599927E+02 -0.84985407231E+03  0.85049332572E+03  0.00000000000E+00 0. -1.
          1    1    1    2  502    0  0.23052566206E+03  0.15135860738E+03  0.74697298414E+03  0.79625382130E+03  0.00000000000E+00 0. -1.
         22    1    3    3    0    0 -0.42891243436E+01 -0.17634545489E+02  0.23957090129E+02  0.30055215017E+02  0.00000000000E+00 0. -1.
         22    1    3    3    0    0 -0.25149512223E+03 -0.11253546197E+03 -0.90245471021E+02  0.28992804581E+03  0.00000000000E+00 0. -1.
</event>
<event>
 7    1  0.6188600E-006  0.4605798E+02  0.7818608E-02  0.1562128E+00
          2   -1    0    0  502    0  0.00000000000E+00  0.00000000000E+00  0.15838217124E+04  0.15838217124E+04  0.00000000000E+00 0. -1.
          1   -1    0    0  501    0 -0.00000000000E+00 -0.00000000000E+00 -0.13289439427E+03  0.13289439427E+03  0.00000000000E+00 0. -1.
         25    2    1    2    0    0 -0.55404074557E+02  0.13789365442E+02 -0.54022920886E+02  0.14766095665E+03  0.12500209623E+03 0.  0.
          2    1    1    2  501    0  0.19358880519E+02  0.14849973821E+02 -0.27012944948E+02  0.36400373242E+02  0.00000000000E+00 0. -1.
          1    1    1    2  502    0  0.36045194038E+02 -0.28639339263E+02  0.15319631840E+04  0.15326547768E+04  0.00000000000E+00 0. -1.
         22    1    3    3    0    0 -0.10138601746E+02  0.66329122343E+02 -0.17796755622E+02  0.69419508979E+02  0.00000000000E+00 0.  1.
         22    1    3    3    0    0 -0.45265472811E+02 -0.52539756902E+02 -0.36226165264E+02  0.78241447672E+02  0.00000000000E+00 0.  1.
</event>
<event>
 7    1  0.6188600E-006  0.2674927E+03  0.7818608E-02  0.1106978E+00
          2   -1    0    0  502    0  0.00000000000E+00  0.00000000000E+00  0.20763875120E+04  0.20763875120E+04  0.00000000000E+00 0. -1.
          1   -1    0    0  501    0 -0.00000000000E+00 -0.00000000000E+00 -0.74601458803E+03  0.74601458803E+03  0.00000000000E+00 0. -1.
         25    2    1    2    0    0 -0.20331627977E+03  0.10033152419E+02 -0.10406609181E+03  0.26056315144E+03  0.12500092263E+03 0.  0.
          2    1    1    2  501    0  0.17000598558E+03 -0.27544373525E+03 -0.50729664055E+03  0.60176504379E+03  0.00000000000E+00 0. -1.
          1    1    1    2  502    0  0.33310294193E+02  0.26541058283E+03  0.19417356563E+04  0.19600739048E+04  0.00000000000E+00 0. -1.
         22    1    3    3    0    0 -0.96071444957E+02 -0.56227359498E+00  0.17986776548E+02  0.97742328693E+02  0.00000000000E+00 0.  1.
         22    1    3    3    0    0 -0.10724483481E+03  0.10595426014E+02 -0.12205286836E+03  0.16282082275E+03  0.00000000000E+00 0.  1.
</event>
<event>
 7    1  0.6188600E-006  0.5182872E+02  0.7818608E-02  0.1443482E+00
          2   -1    0    0  502    0  0.00000000000E+00  0.00000000000E+00  0.10227842870E+03  0.10227842870E+03  0.00000000000E+00 0. -1.
          1   -1    0    0  501    0 -0.00000000000E+00 -0.00000000000E+00 -0.28652198663E+04  0.28652198663E+04  0.00000000000E+00 0. -1.
         25    2    1    2    0    0 -0.47778701163E+02  0.50461354159E+02 -0.21957854261E+03  0.26204629938E+03  0.12499749636E+03 0.  0.
          2    1    1    2  501    0  0.48886207798E+02  0.14118833966E+01 -0.26158511282E+04  0.26163082730E+04  0.00000000000E+00 0. -1.
          1    1    1    2  502    0 -0.11075066355E+01 -0.51873237556E+02  0.72488233126E+02  0.89143722646E+02  0.00000000000E+00 0. -1.
         22    1    3    3    0    0 -0.28659215350E+02  0.35663494338E+02 -0.23087194472E+03  0.23536161605E+03  0.00000000000E+00 0. -1.
         22    1    3    3    0    0 -0.19119485812E+02  0.14797859821E+02  0.11293402111E+02  0.26684683327E+02  0.00000000000E+00 0. -1.
</event>
<event>
 7    1  0.6188600E-006  0.7173431E+02  0.7818608E-02  0.1369505E+00
          2   -1    0    0  502    0  0.00000000000E+00  0.00000000000E+00  0.24762064338E+03  0.24762064338E+03  0.00000000000E+00 0. -1.
          1   -1    0    0  501    0 -0.00000000000E+00 -0.00000000000E+00 -0.22917984822E+03  0.22917984822E+03  0.00000000000E+00 0. -1.
         25    2    1    2    0    0  0.10469821693E+02  0.56788515458E+02  0.88623466009E+02  0.16375859453E+03  0.12501282295E+03 0.  0.
          2    1    1    2  501    0  0.60805097645E+02 -0.38059837927E+02 -0.17257314406E+03  0.18688847266E+03  0.00000000000E+00 0. -1.
          1    1    1    2  502    0 -0.71274919338E+02 -0.18728677531E+02  0.10239047320E+03  0.12615342441E+03  0.00000000000E+00 0. -1.
         22    1    3    3    0    0 -0.15507943069E+01  0.11153279627E+02 -0.32164665385E+02  0.34078824932E+02  0.00000000000E+00 0. -1.
         22    1    3    3    0    0  0.12020615999E+02  0.45635235830E+02  0.12078813139E+03  0.12967976960E+03  0.00000000000E+00 0. -1.
</event>
<event>
 7    1  0.6188600E-006  0.1554870E+03  0.7818608E-02  0.1362847E+00
          2   -1    0    0  502    0  0.00000000000E+00  0.00000000000E+00  0.23796837241E+04  0.23796837241E+04  0.00000000000E+00 0. -1.
          1   -1    0    0  501    0 -0.00000000000E+00 -0.00000000000E+00 -0.25224031623E+03  0.25224031623E+03  0.00000000000E+00 0. -1.
         25    2    1    2    0    0  0.34272467300E+02 -0.12218844541E+03  0.73412688172E+02  0.19268871827E+03  0.12503959836E+03 0.  0.
          2    1    1    2  501    0  0.15889984081E+02 -0.26378265989E+02 -0.18861598887E+03  0.19111330610E+03  0.00000000000E+00 0. -1.
          1    1    1    2  502    0 -0.50162451381E+02  0.14856671139E+03  0.22426467085E+04  0.22481220159E+04  0.00000000000E+00 0. -1.
         22    1    3    3    0    0  0.33921916937E+02 -0.14601954967E+03  0.77097725217E+02  0.16857183800E+03  0.00000000000E+00 0. -1.
         22    1    3    3    0    0  0.35055036253E+00  0.23831104261E+02 -0.36850370446E+01  0.24116880268E+02  0.00000000000E+00 0. -1.
</event>
<event>
 7    1  0.6188600E-006  0.5204597E+02  0.7818608E-02  0.1507877E+00
          2   -1    0    0  502    0  0.00000000000E+00  0.00000000000E+00  0.49877341160E+03  0.49877341160E+03  0.00000000000E+00 0. -1.
          1   -1    0    0  501    0 -0.00000000000E+00 -0.00000000000E+00 -0.11790332969E+04  0.11790332969E+04  0.00000000000E+00 0. -1.
         25    2    1    2    0    0 -0.32886532276E+02 -0.67800670077E+02 -0.22039421384E+03  0.26434328201E+03  0.12500122553E+03 0.  0.
          2    1    1    2  501    0  0.71132415558E+01  0.50915101965E+02 -0.93546023008E+03  0.93687180973E+03  0.00000000000E+00 0. -1.
          1    1    1    2  502    0  0.25773290720E+02  0.16885568111E+02  0.47559455865E+03  0.47659161673E+03  0.00000000000E+00 0. -1.
         22    1    3    3    0    0  0.21116533069E+02 -0.31690667957E+02 -0.38631771854E+01  0.38277023687E+02  0.00000000000E+00 0. -1.
         22    1    3    3    0    0 -0.54003065345E+02 -0.36110002120E+02 -0.21653103665E+03  0.22606625833E+03  0.00000000000E+00 0. -1.
</event>
<event>
 7    1  0.6188600E-006  0.1962787E+03  0.7818608E-02  0.1252119E+00
          2   -1    0    0  502    0  0.00000000000E+00  0.00000000000E+00  0.30897134748E+04  0.30897134748E+04  0.00000000000E+00 0. -1.
          1   -1    0    0  501    0 -0.00000000000E+00 -0.00000000000E+00 -0.98315473764E+03  0.98315473764E+03  0.00000000000E+00 0. -1.
         25    2    1    2    0    0 -0.15693032540E+03  0.18774051150E+03 -0.38979923725E+03  0.47690802231E+03  0.12499675875E+03 0.  0.
          2    1    1    2  501    0  0.12678862658E+03 -0.12788263035E+03 -0.53467481941E+03  0.56418656975E+03  0.00000000000E+00 0. -1.
          1    1    1    2  502    0  0.30141698827E+02 -0.59857881147E+02  0.30310327938E+04  0.30317736203E+04  0.00000000000E+00 0. -1.
         22    1    3    3    0    0 -0.10977722610E+03  0.11194716876E+03 -0.13491830719E+03  0.20684815102E+03  0.00000000000E+00 0.  1.
         22    1    3    3    0    0 -0.47153099306E+02  0.75793342731E+02 -0.25488093006E+03  0.27005987129E+03  0.00000000000E+00 0.  1.
</event>
<event>
 7    1  0.6188600E-006  0.1038246E+03  0.7818608E-02  0.1287201E+00
          2   -1    0    0  502    0  0.00000000000E+00  0.00000000000E+00  0.10791781547E+03  0.10791781547E+03  0.00000000000E+00 0. -1.
          1   -1    0    0  501    0 -0.00000000000E+00 -0.00000000000E+00 -0.94774658874E+03  0.94774658874E+03  0.00000000000E+00 0. -1.
         25    2    1    2    0    0  0.73839426480E+02 -0.23456438868E+02 -0.21548523088E+03  0.26088549391E+03  0.12499956310E+03 0.  0.
          2    1    1    2  501    0 -0.36113482695E+02 -0.82683689530E+02 -0.66792890195E+03  0.67399539628E+03  0.00000000000E+00 0. -1.
          1    1    1    2  502    0 -0.37725943785E+02  0.10614012840E+03  0.43585359561E+02  0.12078351402E+03  0.00000000000E+00 0. -1.
         22    1    3    3    0    0  0.34873094915E+02 -0.74721590630E+02 -0.11403674675E+03  0.14072607599E+03  0.00000000000E+00 0.  1.
         22    1    3    3    0    0  0.38966331565E+02  0.51265151763E+02 -0.10144848413E+03  0.12015941792E+03  0.00000000000E+00 0.  1.
</event>
<event>
 7    1  0.6188600E-006  0.5147345E+02  0.7818608E-02  0.1477284E+00
          2   -1    0    0  502    0  0.00000000000E+00  0.00000000000E+00  0.25481818723E+03  0.25481818723E+03  0.00000000000E+00 0. -1.
          1   -1    0    0  501    0 -0.00000000000E+00 -0.00000000000E+00 -0.94457706097E+03  0.94457706097E+03  0.00000000000E+00 0. -1.
         25    2    1    2    0    0  0.28646250914E+02  0.14954550025E+02 -0.38648664383E+03  0.40748187403E+03  0.12500122217E+03 0.  0.
          2    1    1    2  501    0 -0.18144704828E+02 -0.52022405969E+02 -0.54467555827E+03  0.54745504365E+03  0.00000000000E+00 0. -1.
          1    1    1    2  502    0 -0.10501546086E+02  0.37067855944E+02  0.24140332836E+03  0.24445833052E+03  0.00000000000E+00 0. -1.
         22    1    3    3    0    0  0.20440362376E+01  0.24694664919E+02 -0.54216619073E+01  0.25365310514E+02  0.00000000000E+00 0. -1.
         22    1    3    3    0    0  0.26602214677E+02 -0.97401148943E+01 -0.38106498193E+03  0.38211656352E+03  0.00000000000E+00 0. -1.
</event>
<event>
 7    1  0.6188600E-006  0.5505859E+02  0.7818608E-02  0.1420330E+00
          2   -1    0    0  502    0  0.00000000000E+00  0.00000000000E+00  0.52940719868E+03  0.52940719868E+03  0.00000000000E+00 0. -1.
          1   -1    0    0  501    0 -0.00000000000E+00 -0.00000000000E+00 -0.37704086324E+03  0.37704086324E+03  0.00000000000E+00 0. -1.
         25    2    1    2    0    0  0.20143568622E+02 -0.54395127226E+02 -0.19951903408E+03  0.24247755589E+03  0.12499170744E+03 0.  0.
          2    1    1    2  501    0  0.33912981773E+02  0.43101775761E+02 -0.14966079780E+03  0.15939324893E+03  0.00000000000E+00 0. -1.
          1    1    1    2  502    0 -0.54056550394E+02  0.11293351466E+02  0.50154616732E+03  0.50457725709E+03  0.00000000000E+00 0. -1.
         22    1    3    3    0    0  0.64766156138E+02 -0.62086062488E+02 -0.10827449216E+03  0.14061543226E+03  0.00000000000E+00 0. -1.
         22    1    3    3    0    0 -0.44622587517E+02  0.76909352616E+01 -0.91244541912E+02  0.10186212363E+03  0.00000000000E+00 0. -1.
</event>
<event>
 7    1  0.6188600E-006  0.6596686E+02  0.7818608E-02  0.1440647E+00
          2   -1    0    0  502    0  0.00000000000E+00  0.00000000000E+00  0.33640568715E+03  0.33640568715E+03  0.00000000000E+00 0. -1.
          1   -1    0    0  501    0 -0.00000000000E+00 -0.00000000000E+00 -0.14430488305E+04  0.14430488305E+04  0.00000000000E+00 0. -1.
         25    2    1    2    0    0  0.28762921754E+01  0.33390847327E+02 -0.31928054439E+03  0.34450321811E+03  0.12497671591E+03 0.  0.
          2    1    1    2  501    0 -0.29436832030E+02 -0.62282065883E+02 -0.11088949975E+04  0.11110327170E+04  0.00000000000E+00 0. -1.
          1    1    1    2  502    0  0.26560539855E+02  0.28891218556E+02  0.32153239854E+03  0.32391858251E+03  0.00000000000E+00 0. -1.
         22    1    3    3    0    0 -0.18258325438E+01  0.56159169256E+02 -0.31607966756E+03  0.32103511054E+03  0.00000000000E+00 0.  1.
         22    1    3    3    0    0  0.47021247192E+01 -0.22768321930E+02 -0.32008768335E+01  0.23468107569E+02  0.00000000000E+00 0.  1.
</event>
<event>
 7    1  0.6188600E-006  0.1497431E+03  0.7818608E-02  0.1406693E+00
          2   -1    0    0  502    0  0.00000000000E+00  0.00000000000E+00  0.12239891175E+03  0.12239891175E+03  0.00000000000E+00 0. -1.
          1   -1    0    0  501    0 -0.00000000000E+00 -0.00000000000E+00 -0.69739529438E+03  0.69739529438E+03  0.00000000000E+00 0. -1.
         25    2    1    2    0    0 -0.13861379000E+03 -0.10273842380E+02 -0.21511453387E+03  0.28498944291E+03  0.12500154109E+03 0.  0.
          2    1    1    2  501    0  0.15397525680E+03 -0.60530896473E+01 -0.43232827353E+03  0.45896923175E+03  0.00000000000E+00 0. -1.
          1    1    1    2  502    0 -0.15361466800E+02  0.16326932028E+02  0.72446424762E+02  0.75835531464E+02  0.00000000000E+00 0. -1.
         22    1    3    3    0    0 -0.65593010448E+02  0.45866455758E+02 -0.45729595312E+02  0.92181183930E+02  0.00000000000E+00 0. -1.
         22    1    3    3    0    0 -0.73020779556E+02 -0.56140298138E+02 -0.16938493856E+03  0.19280825898E+03  0.00000000000E+00 0. -1.
</event>
<event>
 7    1  0.6188600E-006  0.7418013E+02  0.7818608E-02  0.1476665E+00
          2   -1    0    0  502    0  0.00000000000E+00  0.00000000000E+00  0.13655325462E+04  0.13655325462E+04  0.00000000000E+00 0. -1.
          1   -1    0    0  501    0 -0.00000000000E+00 -0.00000000000E+00 -0.62097317067E+03  0.62097317067E+03  0.00000000000E+00 0. -1.
         25    2    1    2    0    0 -0.10092301181E+03  0.17180663930E+01  0.64498261913E+03  0.66469120394E+03  0.12499364605E+03 0.  0.
          2    1    1    2  501    0  0.74081923448E+02 -0.97494390090E+00 -0.60861801039E+03  0.61311089084E+03  0.00000000000E+00 0. -1.
          1    1    1    2  502    0  0.26841088358E+02 -0.74312249215E+00  0.70819476678E+03  0.70870362208E+03  0.00000000000E+00 0. -1.
         22    1    3    3    0    0 -0.11029358930E+03 -0.39905361927E+02  0.44409354599E+03  0.45932144664E+03  0.00000000000E+00 0.  1.
         22    1    3    3    0    0  0.93705774977E+01  0.41623428320E+02  0.20088907314E+03  0.20536975730E+03  0.00000000000E+00 0.  1.
</event>
<event>
 7    1  0.6188600E-006  0.1920728E+03  0.7818608E-02  0.1293085E+00
          2   -1    0    0  502    0  0.00000000000E+00  0.00000000000E+00  0.18936307652E+04  0.18936307652E+04  0.00000000000E+00 0. -1.
          1   -1    0    0  501    0 -0.00000000000E+00 -0.00000000000E+00 -0.40164792506E+03  0.40164792506E+03  0.00000000000E+00 0. -1.
         25    2    1    2    0    0  0.15172634918E+03 -0.16149210086E+03  0.68424773854E+03  0.73001408180E+03  0.12500003303E+03 0.  0.
          2    1    1    2  501    0 -0.44314440430E+02  0.12913842486E+02 -0.37024077252E+03  0.37310691041E+03  0.00000000000E+00 0. -1.
          1    1    1    2  502    0 -0.10741190875E+03  0.14857825837E+03  0.11779758741E+04  0.11921576980E+04  0.00000000000E+00 0. -1.
         22    1    3    3    0    0  0.48307314143E+02  0.24266049104E+01  0.24765706701E+03  0.25233610096E+03  0.00000000000E+00 0.  1.
         22    1    3    3    0    0  0.10341903504E+03 -0.16391870577E+03  0.43659067154E+03  0.47767798084E+03  0.00000000000E+00 0.  1.
</event>
<event>
 7    1  0.6188600E-006  0.7195026E+02  0.7818608E-02  0.1455474E+00
          2   -1    0    0  502    0  0.00000000000E+00  0.00000000000E+00  0.42340052280E+03  0.42340052280E+03  0.00000000000E+00 0. -1.
          1   -1    0    0  501    0 -0.00000000000E+00 -0.00000000000E+00 -0.49514675598E+03  0.49514675598E+03  0.00000000000E+00 0. -1.
         25    2    1    2    0    0 -0.31096322559E+02  0.35403593935E+02  0.92282327819E+01  0.13390488521E+03  0.12499984906E+03 0.  0.
          2    1    1    2  501    0 -0.32169696763E+02  0.22506439152E+01 -0.42834412411E+03  0.42955633326E+03  0.00000000000E+00 0. -1.
          1    1    1    2  502    0  0.63266019323E+02 -0.37654237850E+02  0.34736965814E+03  0.35508606030E+03  0.00000000000E+00 0. -1.
         22    1    3    3    0    0  0.43938656418E+02 -0.11081616877E+02  0.36588850746E+01  0.45462019317E+02  0.00000000000E+00 0.  1.
         22    1    3    3    0    0 -0.75034978977E+02  0.46485210812E+02  0.55693477073E+01  0.88442865898E+02  0.00000000000E+00 0.  1.
</event>
<event>
 7    1  0.6188600E-006  0.9651133E+02  0.7818608E-02  0.1332966E+00
          2   -1    0    0  502    0  0.00000000000E+00  0.00000000000E+00  0.31162015211E+02  0.31162015211E+02  0.00000000000E+00 0. -1.
          1   -1    0    0  501    0 -0.00000000000E+00 -0.00000000000E+00 -0.41447972350E+04  0.41447972350E+04  0.00000000000E+00 0. -1.
         25    2    1    2    0    0 -0.80133404953E+02  0.13052229256E+03 -0.89824035377E+03  0.91973762385E+03  0.12499652846E+03 0.  0.
          2    1    1    2  501    0  0.62580037352E+02 -0.68901452972E+02 -0.31831182407E+04  0.31844788279E+04  0.00000000000E+00 0. -1.
          1    1    1    2  502    0  0.17553367601E+02 -0.61620839590E+02 -0.32276625335E+02  0.71742798447E+02  0.00000000000E+00 0. -1.
         22    1    3    3    0    0 -0.84235049441E+02  0.29674406705E+02 -0.54855280345E+03  0.55577539721E+03  0.00000000000E+00 0.  1.
         22    1    3    3    0    0  0.41016444879E+01  0.10084788586E+03 -0.34968755032E+03  0.36396222664E+03  0.00000000000E+00 0.  1.
</event>
<event>
 7    1  0.6188600E-006  0.1200273E+03  0.7818608E-02  0.1429124E+00
          2   -1    0    0  502    0  0.00000000000E+00  0.00000000000E+00  0.93144717769E+02  0.93144717769E+02  0.00000000000E+00 0. -1.
          1   -1    0    0  501    0 -0.00000000000E+00 -0.00000000000E+00 -0.54263623018E+03  0.54263623018E+03  0.00000000000E+00 0. -1.
         25    2    1    2    0    0  0.10046062750E+03 -0.25416958249E+02 -0.17816134333E+03  0.24105115368E+03  0.12500333991E+03 0.  0.
          2    1    1    2  501    0  0.22984699579E+02  0.50056944279E+01 -0.26854918182E+03  0.26957747764E+03  0.00000000000E+00 0. -1.
          1    1    1    2  502    0 -0.12344532708E+03  0.20411263821E+02 -0.27809872643E+01  0.12515231664E+03  0.00000000000E+00 0. -1.
         22    1    3    3    0    0  0.66336708345E+02  0.37717238932E+02 -0.14078335374E+03  0.16013463610E+03  0.00000000000E+00 0.  1.
         22    1    3    3    0    0  0.34123919158E+02 -0.63134197181E+02 -0.37377989584E+02  0.80916517583E+02  0.00000000000E+00 0.  1.
</event>
<event>
 7    1  0.6188600E-006  0.4591546E+02  0.7818608E-02  0.1488355E+00
          2   -1    0    0  502    0  0.00000000000E+00  0.00000000000E+00  0.28865006047E+02  0.28865006047E+02  0.00000000000E+00 0. -1.
          1   -1    0    0  501    0 -0.00000000000E+00 -0.00000000000E+00 -0.17386433533E+04  0.17386433533E+04  0.00000000000E+00 0. -1.
         25    2    1    2    0    0  0.56122442316E+02 -0.61797395360E+02 -0.72079421978E+03  0.73630069331E+03  0.12500302837E+03 0.  0.
          2    1    1    2  501    0 -0.30559096941E+02  0.31092063708E+02 -0.99027394718E+03  0.99123310341E+03  0.00000000000E+00 0. -1.
          1    1    1    2  502    0 -0.25563345376E+02  0.30705331652E+02  0.12898197487E+01  0.39974562582E+02  0.00000000000E+00 0. -1.
         22    1    3    3    0    0  0.83240547721E+02 -0.63510189470E+02 -0.37211969521E+03  0.38656901132E+03  0.00000000000E+00 0. -1.
         22    1    3    3    0    0 -0.27118105405E+02  0.17127941103E+01 -0.34867452457E+03  0.34973168199E+03  0.00000000000E+00 0. -1.
</event>
<event>
 7    1  0.6188600E-006  0.1099593E+03  0.7818608E-02  0.1391376E+00
          2   -1    0    0  502    0  0.00000000000E+00  0.00000000000E+00  0.14293188366E+03  0.14293188366E+03  0.00000000000E+00 0. -1.
          1   -1    0    0  501    0 -0.00000000000E+00 -0.00000000000E+00 -0.15954413832E+04  0.15954413832E+04  0.00000000000E+00 0. -1.
         25    2    1    2    0    0 -0.13180506799E+03  0.45904714410E+02 -0.19670435139E+03  0.27165673003E+03  0.12499983344E+03 0.  0.
          2    1    1    2  501    0  0.34365477925E+02 -0.26877058361E+01 -0.13340453054E+04  0.13344905720E+04  0.00000000000E+00 0. -1.
          1    1    1    2  502    0  0.97439590063E+02 -0.43217008574E+02  0.78240157330E+02  0.13222596478E+03  0.00000000000E+00 0. -1.
         22    1    3    3    0    0  0.91216283783E+01  0.43249113639E+02 -0.30349455965E+02  0.53616969442E+02  0.00000000000E+00 0. -1.
         22    1    3    3    0    0 -0.14092669637E+03  0.26556007720E+01 -0.16635489542E+03  0.21803976058E+03  0.00000000000E+00 0. -1.
</event>
<event>
 7    1  0.6188600E-006  0.5038050E+02  0.7818608E-02  0.1516473E+00
          2   -1    0    0  502    0  0.00000000000E+00  0.00000000000E+00  0.50079375188E+03  0.50079375188E+03  0.00000000000E+00 0. -1.
          1   -1    0    0  501    0 -0.00000000000E+00 -0.00000000000E+00 -0.45440317303E+03  0.45440317303E+03  0.00000000000E+00 0. -1.
         25    2    1    2    0    0 -0.32732568174E+02  0.70446930521E+02  0.62347350484E+02  0.15983333254E+03  0.12500124415E+03 0.  0.
          2    1    1    2  501    0  0.19717485514E+02 -0.22655596242E+02 -0.40352594659E+03  0.40464211947E+03  0.00000000000E+00 0. -1.
          1    1    1    2  502    0  0.13015082660E+02 -0.47791334279E+02  0.38756917495E+03  0.39072147290E+03  0.00000000000E+00 0. -1.
         22    1    3    3    0    0  0.20648526960E+02  0.24465708149E+02  0.80877151743E+02  0.86983022567E+02  0.00000000000E+00 0. -1.
         22    1    3    3    0    0 -0.53381095135E+02  0.45981222372E+02 -0.18529801259E+02  0.72850309974E+02  0.00000000000E+00 0. -1.
</event>
<event>
 7    1  0.6188600E-006  0.1266094E+03  0.7818608E-02  0.1289229E+00
          2   -1    0    0  502    0  0.00000000000E+00  0.00000000000E+00  0.37616526844E+04  0.37616526844E+04  0.00000000000E+00 0. -1.
          1   -1    0    0  501    0 -0.00000000000E+00 -0.00000000000E+00 -0.49561273692E+02  0.49561273692E+02  0.00000000000E+00 0. -1.
         25    2    1    2    0    0  0.64167473007E+02  0.31962238147E+01  0.46179628486E+03  0.48270990042E+03  0.12500143524E+03 0.  0.
          2    1    1    2  501    0  0.67656731799E+02  0.26313712003E+02 -0.27592060107E+01  0.72646114933E+02  0.00000000000E+00 0. -1.
          1    1    1    2  502    0 -0.13182420481E+03 -0.29509935818E+02  0.32530543319E+04  0.32558579428E+04  0.00000000000E+00 0. -1.
         22    1    3    3    0    0  0.18224347400E+02  0.43051966076E+02  0.58656548025E+02  0.75007927896E+02  0.00000000000E+00 0.  1.
         22    1    3    3    0    0  0.45943125608E+02 -0.39855742261E+02  0.40313973683E+03  0.40770197252E+03  0.00000000000E+00 0.  1.
</event>
<event>
 7    1  0.6188600E-006  0.1407718E+03  0.7818608E-02  0.1275070E+00
          2   -1    0    0  502    0  0.00000000000E+00  0.00000000000E+00  0.27394381795E+04  0.27394381795E+04  0.00000000000E+00 0. -1.
          1   -1    0    0  501    0 -0.00000000000E+00 -0.00000000000E+00 -0.21206876284E+03  0.21206876284E+03  0.00000000000E+00 0. -1.
         25    2    1    2    0    0  0.54277086184E+02  0.19916809294E+03  0.93435742516E+03  0.96501955714E+03  0.12500006548E+03 0.  0.
          2    1    1    2  501    0 -0.61474445155E+02 -0.12484346994E+03 -0.17124110207E+03  0.22065474033E+03  0.00000000000E+00 0. -1.
          1    1    1    2  502    0  0.71973589711E+01 -0.74324623000E+02  0.17642530936E+04  0.17658326449E+04  0.00000000000E+00 0. -1.
         22    1    3    3    0    0  0.82592536142E+02  0.17345880563E+03  0.86228679572E+03  0.88342968161E+03  0.00000000000E+00 0. -1.
         22    1    3    3    0    0 -0.28315449958E+02  0.25709287306E+02  0.72070629440E+02  0.81589875524E+02  0.00000000000E+00 0. -1.
</event>
<event>
 7    1  0.8323653E-006  0.6409409E+02  0.7818608E-02  0.1433565E+00
          2   -1    0    0  502    0  0.00000000000E+00  0.00000000000E+00  0.13493958201E+04  0.13493958201E+04  0.00000000000E+00 0. -1.
          1   -1    0    0  501    0 -0.00000000000E+00 -0.00000000000E+00 -0.70832326379E+03  0.70832326379E+03  0.00000000000E+00 0. -1.
         25    2    1    2    0    0 -0.45461775397E+02  0.74743960451E+02 -0.21088991828E+03  0.26029470044E+03  0.12500136318E+03 0.  0.
          2    1    1    2  501    0 -0.93232357219E+01 -0.41563502102E+02 -0.47099505541E+03  0.47291731799E+03  0.00000000000E+00 0. -1.
          1    1    1    2  502    0  0.54785011119E+02 -0.33180458349E+02  0.13229575300E+04  0.13245070655E+04  0.00000000000E+00 0. -1.
         22    1    3    3    0    0 -0.13004459210E+02 -0.72833436788E+01  0.12921018111E+02  0.19726017427E+02  0.00000000000E+00 0.  1.
         22    1    3    3    0    0 -0.32457316187E+02  0.82027304130E+02 -0.22381093639E+03  0.24056868301E+03  0.00000000000E+00 0.  1.
</event>
<event>
 7    1  0.6188600E-006  0.6155713E+02  0.7818608E-02  0.1456027E+00
          2   -1    0    0  502    0  0.00000000000E+00  0.00000000000E+00  0.66138391949E+02  0.66138391949E+02  0.00000000000E+00 0. -1.
          1   -1    0    0  501    0 -0.00000000000E+00 -0.00000000000E+00 -0.16635320944E+04  0.16635320944E+04  0.00000000000E+00 0. -1.
         25    2    1    2    0    0  0.28364175092E+02 -0.52959965008E+02 -0.28832690086E+03  0.31995288151E+03  0.12501264058E+03 0.  0.
          2    1    1    2  501    0  0.81750826517E+01  0.61574299077E+02 -0.13515772150E+04  0.13530037674E+04  0.00000000000E+00 0. -1.
          1    1    1    2  502    0 -0.36539257744E+02 -0.86143340684E+01  0.42510413457E+02  0.56713837467E+02  0.00000000000E+00 0. -1.
         22    1    3    3    0    0  0.64667521216E+02 -0.18738718174E+00 -0.85177410964E+02  0.10694444704E+03  0.00000000000E+00 0.  1.
         22    1    3    3    0    0 -0.36303346124E+02 -0.52772577827E+02 -0.20314948990E+03  0.21300843447E+03  0.00000000000E+00 0.  1.
</event>
<event>
 7    1  0.6188600E-006  0.1627331E+03  0.7818608E-02  0.1330607E+00
          2   -1    0    0  502    0  0.00000000000E+00  0.00000000000E+00  0.36281722536E+03  0.36281722536E+03  0.00000000000E+00 0. -1.
          1   -1    0    0  501    0 -0.00000000000E+00 -0.00000000000E+00 -0.96024263787E+03  0.96024263787E+03  0.00000000000E+00 0. -1.
         25    2    1    2    0    0 -0.32762490260E+02 -0.18849912034E+03  0.17117293181E+02  0.22916685409E+03  0.12497658240E+03 0.  0.
          2    1    1    2  501    0  0.49217609044E+02  0.15336836814E+03 -0.84498921129E+03  0.86020404357E+03  0.00000000000E+00 0. -1.
          1    1    1    2  502    0 -0.16455118784E+02  0.35130752202E+02  0.23044650560E+03  0.23368896557E+03  0.00000000000E+00 0. -1.
         22    1    3    3    0    0  0.90827924254E+01  0.16562136040E+02 -0.20682469001E+01  0.19002081825E+02  0.00000000000E+00 0. -1.
         22    1    3    3    0    0 -0.41845282686E+02 -0.20506125638E+03  0.19185540081E+02  0.21016477226E+03  0.00000000000E+00 0. -1.
</event>
<event>
 7    1  0.6188600E-006  0.8534682E+02  0.7818608E-02  0.1412354E+00
          2   -1    0    0  502    0  0.00000000000E+00  0.00000000000E+00  0.20855708416E+03  0.20855708416E+03  0.00000000000E+00 0. -1.
          1   -1    0    0  501    0 -0.00000000000E+00 -0.00000000000E+00 -0.10349055576E+04  0.10349055576E+04  0.00000000000E+00 0. -1.
         25    2    1    2    0    0  0.51618307784E+02  0.67728673392E+01  0.75347680245E+00  0.13540668530E+03  0.12499632501E+03 0.  0.
          2    1    1    2  501    0 -0.85881390525E+02  0.87880471051E+01 -0.96309292711E+03  0.96695440909E+03  0.00000000000E+00 0. -1.
          1    1    1    2  502    0  0.34263082741E+02 -0.15560914444E+02  0.13599097684E+03  0.14110154740E+03  0.00000000000E+00 0. -1.
         22    1    3    3    0    0  0.82593612771E+02 -0.94484676956E+01  0.31446091887E+02  0.88881016575E+02  0.00000000000E+00 0. -1.
         22    1    3    3    0    0 -0.30975304988E+02  0.16221335035E+02 -0.30692615085E+02  0.46525668723E+02  0.00000000000E+00 0. -1.
</event>
<event>
 7    1  0.6188600E-006  0.1058617E+03  0.7818608E-02  0.1351220E+00
          2   -1    0    0  502    0  0.00000000000E+00  0.00000000000E+00  0.15976526833E+03  0.15976526833E+03  0.00000000000E+00 0. -1.
          1   -1    0    0  501    0 -0.00000000000E+00 -0.00000000000E+00 -0.59662482559E+03  0.59662482559E+03  0.00000000000E+00 0. -1.
         25    2    1    2    0    0 -0.55278275666E+02  0.31565944247E+02 -0.85243116688E+02  0.16413565037E+03  0.12498810417E+03 0.  0.
          2    1    1    2  501    0  0.94428266318E+02 -0.62496981009E+02 -0.45957705540E+03  0.47332192001E+03  0.00000000000E+00 0. -1.
          1    1    1    2  502    0 -0.39149990652E+02  0.30931036761E+02  0.10796061482E+03  0.11893252354E+03  0.00000000000E+00 0. -1.
         22    1    3    3    0    0 -0.20777957987E+02  0.34609903295E+01 -0.11082385804E+03  0.11280793191E+03  0.00000000000E+00 0.  1.
         22    1    3    3    0    0 -0.34500317679E+02  0.28104953918E+02  0.25580741348E+02  0.51327718463E+02  0.00000000000E+00 0.  1.
</event>
<event>
 7    1  0.6188600E-006  0.7296451E+02  0.7818608E-02  0.1355882E+00
          2   -1    0    0  502    0  0.00000000000E+00  0.00000000000E+00  0.69039519567E+03  0.69039519567E+03  0.00000000000E+00 0. -1.
          1   -1    0    0  501    0 -0.00000000000E+00 -0.00000000000E+00 -0.69655216482E+03  0.69655216482E+03  0.00000000000E+00 0. -1.
         25    2    1    2    0    0 -0.30553954222E+02  0.28920900696E+02  0.25078650322E+03  0.28335191456E+03  0.12499789868E+03 0.  0.
          2    1    1    2  501    0  0.54125354713E+02  0.48931238791E+02 -0.67437585320E+03  0.67831158883E+03  0.00000000000E+00 0. -1.
          1    1    1    2  502    0 -0.23571400491E+02 -0.77852139487E+02  0.41743238083E+03  0.42528385710E+03  0.00000000000E+00 0. -1.
         22    1    3    3    0    0  0.31805601711E+02  0.16186876932E+02  0.14292674061E+02  0.38443358553E+02  0.00000000000E+00 0.  1.
         22    1    3    3    0    0 -0.62359555933E+02  0.12734023764E+02  0.23649382916E+03  0.24490855601E+03  0.00000000000E+00 0.  1.
</event>
<event>
 7    1  0.6188600E-006  0.1849532E+03  0.7818608E-02  0.1384125E+00
          2   -1    0    0  502    0  0.00000000000E+00  0.00000000000E+00  0.19035970315E+04  0.19035970315E+04  0.00000000000E+00 0. -1.
          1   -1    0    0  501    0 -0.00000000000E+00 -0.00000000000E+00 -0.11778365869E+03  0.11778365869E+03  0.00000000000E+00 0. -1.
         25    2    1    2    0    0  0.14745518039E+03 -0.11090799851E+03  0.30651534481E+03  0.37897232725E+03  0.12499901544E+03 0.  0.
          2    1    1    2  501    0 -0.16019604633E+03  0.93308468998E+02  0.23986594707E+02  0.18693474897E+03  0.00000000000E+00 0. -1.
          1    1    1    2  502    0  0.12740865940E+02  0.17599529510E+02  0.14553114333E+04  0.14554736139E+04  0.00000000000E+00 0. -1.
         22    1    3    3    0    0  0.69110330265E+02 -0.52718373591E+02  0.25333529855E+03  0.26783248152E+03  0.00000000000E+00 0. -1.
         22    1    3    3    0    0  0.78344850126E+02 -0.58189624917E+02  0.53180046252E+02  0.11113984573E+03  0.00000000000E+00 0. -1.
</event>
<event>
 7    1  0.6188600E-006  0.9097849E+02  0.7818608E-02  0.1354365E+00
          2   -1    0    0  502    0  0.00000000000E+00  0.00000000000E+00  0.13016165502E+04  0.13016165502E+04  0.00000000000E+00 0. -1.
          1   -1    0    0  501    0 -0.00000000000E+00 -0.00000000000E+00 -0.37034130904E+03  0.37034130904E+03  0.00000000000E+00 0. -1.
         25    2    1    2    0    0 -0.15187151600E+01 -0.56412331696E+02  0.21466765838E+02  0.13882158865E+03  0.12500381505E+03 0.  0.
          2    1    1    2  501    0 -0.49370623810E+02  0.81018379798E+02 -0.30377029856E+03  0.31824178017E+03  0.00000000000E+00 0. -1.
          1    1    1    2  502    0  0.50889338970E+02 -0.24606048103E+02  0.12135787739E+04  0.12148944904E+04  0.00000000000E+00 0. -1.
         22    1    3    3    0    0 -0.54329011504E+02 -0.17748421480E+02 -0.20898974028E+02  0.60855690543E+02  0.00000000000E+00 0.  1.
         22    1    3    3    0    0  0.52810296344E+02 -0.38663910216E+02  0.42365739866E+02  0.77965898106E+02  0.00000000000E+00 0.  1.
</event>
<event>
 7    1  0.6188600E-006  0.6434215E+02  0.7818608E-02  0.1466709E+00
          2   -1    0    0  502    0  0.00000000000E+00  0.00000000000E+00  0.75409751901E+03  0.75409751901E+03  0.00000000000E+00 0. -1.
          1   -1    0    0  501    0 -0.00000000000E+00 -0.00000000000E+00 -0.27671782795E+02  0.27671782795E+02  0.00000000000E+00 0. -1.
         25    2    1    2    0    0 -0.63241991328E+02 -0.21357946161E+02  0.29987009107E+03  0.33166919960E+03  0.12500670028E+03 0.  0.
          2    1    1    2  501    0 -0.80937379457E+00  0.33229719328E+02  0.20937203134E+02  0.39284040113E+02  0.00000000000E+00 0. -1.
          1    1    1    2  502    0  0.64051365123E+02 -0.11871773167E+02  0.40561844201E+03  0.41081606209E+03  0.00000000000E+00 0. -1.
         22    1    3    3    0    0 -0.66714502956E+02  0.33660301740E+02  0.23470691916E+03  0.24631520196E+03  0.00000000000E+00 0.  1.
         22    1    3    3    0    0  0.34725116282E+01 -0.55018247901E+02  0.65163171915E+02  0.85353997639E+02  0.00000000000E+00 0.  1.
</event>
<event>
 7    1  0.6188600E-006  0.1092978E+03  0.7818608E-02  0.1380554E+00
          2   -1    0    0  502    0  0.00000000000E+00  0.00000000000E+00  0.83361858271E+03  0.83361858271E+03  0.00000000000E+00 0. -1.
          1   -1    0    0  501    0 -0.00000000000E+00 -0.00000000000E+00 -0.79964266220E+03  0.79964266220E+03  0.00000000000E+00 0. -1.
         25    2    1    2    0    0 -0.63937156997E+02  0.38522196855E+02 -0.23137296226E+03  0.27336929562E+03  0.12500161769E+03 0.  0.
          2    1    1    2  501    0 -0.37729847829E+02  0.30037010309E+01 -0.54289924212E+03  0.54421700702E+03  0.00000000000E+00 0. -1.
          1    1    1    2  502    0  0.10166700483E+03 -0.41525897886E+02  0.80824812489E+03  0.81567494227E+03  0.00000000000E+00 0. -1.
         22    1    3    3    0    0 -0.15824524831E+02  0.19329794046E+02  0.96968677063E+01  0.26797122370E+02  0.00000000000E+00 0.  1.
         22    1    3    3    0    0 -0.48112632165E+02  0.19192402809E+02 -0.24106982997E+03  0.24657217325E+03  0.00000000000E+00 0.  1.
</event>
<event>
 7    1  0.6188600E-006  0.1695585E+03  0.7818608E-02  0.1256361E+00
          2   -1    0    0  502    0  0.00000000000E+00  0.00000000000E+00  0.69566586153E+03  0.69566586153E+03  0.00000000000E+00 0. -1.
          1   -1    0    0  501    0 -0.00000000000E+00 -0.00000000000E+00 -0.11797484264E+04  0.11797484264E+04  0.00000000000E+00 0. -1.
         25    2    1    2    0    0  0.24571670990E+02  0.16394776232E+03  0.30547013183E+03  0.36935011521E+03  0.12499948152E+03 0.  0.
          2    1    1    2  501    0 -0.95238726011E+02 -0.14073015514E+03 -0.11375673564E+04  0.11501890635E+04  0.00000000000E+00 0. -1.
          1    1    1    2  502    0  0.70667055021E+02 -0.23217607178E+02  0.34801465972E+03  0.35587510918E+03  0.00000000000E+00 0. -1.
         22    1    3    3    0    0  0.79499123101E+01  0.37126283572E+02 -0.23189235519E+00  0.37968616141E+02  0.00000000000E+00 0.  1.
         22    1    3    3    0    0  0.16621758680E+02  0.12682147875E+03  0.30570202419E+03  0.33138149907E+03  0.00000000000E+00 0.  1.
</event>
<event>
 7    1  0.6188600E-006  0.1440416E+03  0.7818608E-02  0.1379632E+00
          2   -1    0    0  502    0  0.00000000000E+00  0.00000000000E+00  0.20537094700E+04  0.20537094700E+04  0.00000000000E+00 0. -1.
          1   -1    0    0  501    0 -0.00000000000E+00 -0.00000000000E+00 -0.18486796496E+04  0.18486796496E+04  0.00000000000E+00 0. -1.
         25    2    1    2    0    0 -0.12960202704E+03  0.10735479366E+02  0.47601939861E+03  0.50904998404E+03  0.12500192986E+03 0.  0.
          2    1    1    2  501    0 -0.17173896375E+02 -0.23288985286E+02 -0.18285745629E+04  0.18288035027E+04  0.00000000000E+00 0. -1.
          1    1    1    2  502    0  0.14677592341E+03  0.12553505920E+02  0.15575849847E+04  0.15645356329E+04  0.00000000000E+00 0. -1.
         22    1    3    3    0    0  0.10501620772E+02 -0.27401952977E+02  0.40869019231E+02  0.50313296440E+02  0.00000000000E+00 0.  1.
         22    1    3    3    0    0 -0.14010364781E+03  0.38137432342E+02  0.43515037938E+03  0.45873668760E+03  0.00000000000E+00 0.  1.
</event>
<event>
 7    1  0.6188600E-006  0.8876200E+02  0.7818608E-02  0.1382777E+00
          2   -1    0    0  502    0  0.00000000000E+00  0.00000000000E+00  0.14351646043E+04  0.14351646043E+04  0.00000000000E+00 0. -1.
          1   -1    0    0  501    0 -0.00000000000E+00 -0.00000000000E+00 -0.18633947026E+03  0.18633947026E+03  0.00000000000E+00 0. -1.
         25    2    1    2    0    0 -0.89604664279E+01  0.68775051424E+02 -0.12225400389E+02  0.14347314718E+03  0.12499914356E+03 0.  0.
          2    1    1    2  501    0  0.43742453034E+02  0.13475062963E+02 -0.10213574479E+03  0.11192269602E+03  0.00000000000E+00 0. -1.
          1    1    1    2  502    0 -0.34781986606E+02 -0.82250114386E+02  0.13631862793E+04  0.13661082314E+04  0.00000000000E+00 0. -1.
         22    1    3    3    0    0 -0.10374687961E+01  0.44605337050E+02  0.55452364169E+02  0.71173570423E+02  0.00000000000E+00 0.  1.
         22    1    3    3    0    0 -0.79229976318E+01  0.24169714374E+02 -0.67677764558E+02  0.72299576761E+02  0.00000000000E+00 0.  1.
</event>
<event>
 7    1  0.6188600E-006  0.1367152E+03  0.7818608E-02  0.1229488E+00
          2   -1    0    0  502    0  0.00000000000E+00  0.00000000000E+00  0.12062220747E+04  0.12062220747E+04  0.00000000000E+00 0. -1.
          1   -1    0    0  501    0 -0.00000000000E+00 -0.00000000000E+00 -0.21754878444E+03  0.21754878444E+03  0.00000000000E+00 0. -1.
         25    2    1    2    0    0  0.24187358704E+03 -0.11771793553E+02  0.13940245590E+03  0.30610603355E+03  0.12500580719E+03 0.  0.
          2    1    1    2  501    0 -0.12276459435E+03 -0.97708915629E+01 -0.10127294925E+03  0.15944537057E+03  0.00000000000E+00 0. -1.
          1    1    1    2  502    0 -0.11910899269E+03  0.21542685116E+02  0.95054378364E+03  0.95821945505E+03  0.00000000000E+00 0. -1.
         22    1    3    3    0    0  0.57977649449E+02 -0.48984945672E+02  0.64955143915E+01  0.76178241285E+02  0.00000000000E+00 0. -1.
         22    1    3    3    0    0  0.18389593759E+03  0.37213152119E+02  0.13290694151E+03  0.22992779226E+03  0.00000000000E+00 0. -1.
</event>
