<event>
 7    1  0.6273950E-006  0.4348701E+02  0.7818608E-02  0.1495657E+00
          2   -1    0    0  502    0  0.00000000000E+00  0.00000000000E+00  0.12582503151E+04  0.12582503151E+04  0.00000000000E+00 0. -1.
          1   -1    0    0  501    0 -0.00000000000E+00 -0.00000000000E+00 -0.16455608174E+02  0.16455608174E+02  0.00000000000E+00 0. -1.
         25    2    1    2    0    0  0.25978170296E+01  0.38483614055E+02  0.93192038418E+03  0.94105754303E+03  0.12500383844E+03 0.  0.
          2    1    1    2  501    0  0.39199450134E+02 -0.84423936789E+01  0.32717595326E+02  0.51752410048E+02  0.00000000000E+00 0. -1.
          1    1    1    2  502    0 -0.41797267163E+02 -0.30041220376E+02  0.27715672742E+03  0.28189597020E+03  0.00000000000E+00 0. -1.
         22    1    3    3    0    0 -0.18770574152E+02 -0.40948723178E+02  0.44088109464E+03  0.44317634413E+03  0.00000000000E+00 0.  1.
         22    1    3    3    0    0  0.21368391182E+02  0.79432337232E+02  0.49103928955E+03  0.49788119890E+03  0.00000000000E+00 0.  1.
</event>
<event>
 7    1  0.6273950E-006  0.8116474E+02  0.7818608E-02  0.1371579E+00
          2   -1    0    0  502    0  0.00000000000E+00  0.00000000000E+00  0.17740055303E+04  0.17740055303E+04  0.00000000000E+00 0. -1.
          1   -1    0    0  501    0 -0.00000000000E+00 -0.00000000000E+00 -0.17558310010E+02  0.17558310010E+02  0.00000000000E+00 0. -1.
         25    2    1    2    0    0  0.71567486394E+02 -0.26509333195E+01  0.80759060928E+03  0.82033895736E+03  0.12499792081E+03 0.  0.
          2    1    1    2  501    0 -0.64856786501E+02  0.57101808138E+02  0.17251102656E+03  0.19294318732E+03  0.00000000000E+00 0. -1.
          1    1    1    2  502    0 -0.67106998929E+01 -0.54450874819E+02  0.77634558444E+03  0.77828169562E+03  0.00000000000E+00 0. -1.
         22    1    3    3    0    0 -0.94579596964E+01  0.25313378375E+02  0.41851326457E+02  0.49817202376E+02  0.00000000000E+00 0.  1.
         22    1    3    3    0    0  0.81025446090E+02 -0.27964311694E+02  0.76573928282E+03  0.77052175498E+03  0.00000000000E+00 0.  1.
</event>
<event>
 7    1  0.6273950E-006  0.9229973E+02  0.7818608E-02  0.1412639E+00
          2   -1    0    0  502    0  0.00000000000E+00  0.00000000000E+00  0.10411098071E+04  0.10411098071E+04  0.00000000000E+00 0. -1.
          1   -1    0    0  501    0 -0.00000000000E+00 -0.00000000000E+00 -0.36784080250E+02  0.36784080250E+02  0.00000000000E+00 0. -1.
         25    2    1    2    0    0 -0.91799974396E+01  0.65640914530E+02  0.16836304896E+03  0.21992560897E+03  0.12501262021E+03 0.  0.
          2    1    1    2  501    0 -0.26079296836E+02  0.22919637929E+02  0.28555868874E+02  0.44954167475E+02  0.00000000000E+00 0. -1.
          1    1    1    2  502    0  0.35259294276E+02 -0.88560552459E+02  0.80740680904E+03  0.81301411093E+03  0.00000000000E+00 0. -1.
         22    1    3    3    0    0 -0.13634737628E+01  0.13486039639E+02  0.16660859513E+03  0.16715907483E+03  0.00000000000E+00 0.  1.
         22    1    3    3    0    0 -0.78165236768E+01  0.52154874891E+02  0.17544538299E+01  0.52766534143E+02  0.00000000000E+00 0.  1.
</event>
<event>
 7    1  0.6273950E-006  0.4619391E+02  0.7818608E-02  0.1493993E+00
          2   -1    0    0  502    0  0.00000000000E+00  0.00000000000E+00  0.11002669346E+04  0.11002669346E+04  0.00000000000E+00 0. -1.
          1   -1    0    0  501    0 -0.00000000000E+00 -0.00000000000E+00 -0.11350201257E+04  0.11350201257E+04  0.00000000000E+00 0. -1.
         25    2    1    2    0    0 -0.16639982905E+01  0.41212098262E+02 -0.87891502208E+03  0.88871679257E+03  0.12499886175E+03 0.  0.
          2    1    1    2  501    0 -0.36504375323E+02 -0.40062810619E+02 -0.24794312320E+03  0.25379793253E+03  0.00000000000E+00 0. -1.
          1    1    1    2  502    0  0.38168373613E+02 -0.11492876426E+01  0.10921049542E+04  0.10927723352E+04  0.00000000000E+00 0. -1.
         22    1    3    3    0    0 -0.24871375200E+02 -0.24813909678E+02 -0.88636364582E+02  0.95345270172E+02  0.00000000000E+00 0.  1.
         22    1    3    3    0    0  0.23207376910E+02  0.66026007940E+02 -0.79027865749E+03  0.79337152240E+03  0.00000000000E+00 0.  1.
</event>
<event>
 7    1  0.6273950E-006  0.1979297E+03  0.7818608E-02  0.1298340E+00
          2   -1    0    0  502    0  0.00000000000E+00  0.00000000000E+00  0.18375776325E+03  0.18375776325E+03  0.00000000000E+00 0. -1.
          1   -1    0    0  501    0 -0.00000000000E+00 -0.00000000000E+00 -0.89033873400E+03  0.89033873400E+03  0.00000000000E+00 0. -1.
         25    2    1    2    0    0  0.10835325575E+03  0.13321544089E+03 -0.15543557108E+03  0.26319563888E+03  0.12499978338E+03 0.  0.
          2    1    1    2  501    0 -0.10712451927E+03 -0.17585766232E+03 -0.66138292964E+03  0.69269687429E+03  0.00000000000E+00 0. -1.
          1    1    1    2  502    0 -0.12287364791E+01  0.42642221424E+02  0.11023752996E+03  0.11820398408E+03  0.00000000000E+00 0. -1.
         22    1    3    3    0    0 -0.25166849671E+02  0.15058615984E+02 -0.44210050555E+02  0.53053376969E+02  0.00000000000E+00 0.  1.
         22    1    3    3    0    0  0.13352010542E+03  0.11815682491E+03 -0.11122552052E+03  0.21014226191E+03  0.00000000000E+00 0.  1.
</event>
<event>
 7    1  0.6273950E-006  0.2190807E+03  0.7818608E-02  0.1158823E+00
          2   -1    0    0  502    0  0.00000000000E+00  0.00000000000E+00  0.28880866098E+04  0.28880866098E+04  0.00000000000E+00 0. -1.
          1   -1    0    0  501    0 -0.00000000000E+00 -0.00000000000E+00 -0.12776891071E+04  0.12776891071E+04  0.00000000000E+00 0. -1.
         25    2    1    2    0    0 -0.65369718370E+01 -0.24196737955E+03 -0.44081261701E+03  0.51819975651E+03  0.12499711822E+03 0.  0.
          2    1    1    2  501    0 -0.14264863467E+03  0.81087944231E+02 -0.78546887477E+03  0.80242460138E+03  0.00000000000E+00 0. -1.
          1    1    1    2  502    0  0.14918560651E+03  0.16087943532E+03  0.28366789945E+04  0.28451513590E+04  0.00000000000E+00 0. -1.
         22    1    3    3    0    0  0.41660972239E+02 -0.20788027681E+03 -0.32201912940E+03  0.38554658057E+03  0.00000000000E+00 0.  1.
         22    1    3    3    0    0 -0.48197944076E+02 -0.34087102742E+02 -0.11879348761E+03  0.13265317593E+03  0.00000000000E+00 0.  1.
</event>
<event>
 7    1  0.6273950E-006  0.7691191E+02  0.7818608E-02  0.1447898E+00
          2   -1    0    0  502    0  0.00000000000E+00  0.00000000000E+00  0.13449065552E+04  0.13449065552E+04  0.00000000000E+00 0. -1.
          1   -1    0    0  501    0 -0.00000000000E+00 -0.00000000000E+00 -0.82840149432E+03  0.82840149432E+03  0.00000000000E+00 0. -1.
         25    2    1    2    0    0 -0.10408633220E+03  0.21854874555E+02 -0.11487724607E+03  0.20033368353E+03  0.12500081200E+03 0.  0.
          2    1    1    2  501    0  0.72191215826E+02 -0.21997316919E+02 -0.66847713304E+03  0.67272366614E+03  0.00000000000E+00 0. -1.
          1    1    1    2  502    0  0.31895116372E+02  0.14244236374E+00  0.12998594400E+04  0.13002506999E+04  0.00000000000E+00 0. -1.
         22    1    3    3    0    0 -0.12223520992E+03  0.14354424196E+02 -0.50508623623E+02  0.13303614959E+03  0.00000000000E+00 0. -1.
         22    1    3    3    0    0  0.18148877721E+02  0.75004503597E+01 -0.64368622449E+02  0.67297533938E+02  0.00000000000E+00 0. -1.
</event>
<event>
 7    1  0.6273950E-006  0.8922150E+02  0.7818608E-02  0.1360652E+00
          2   -1    0    0  502    0  0.00000000000E+00  0.00000000000E+00  0.15905285784E+04  0.15905285784E+04  0.00000000000E+00 0. -1.
          1   -1    0    0  501    0 -0.00000000000E+00 -0.00000000000E+00 -0.14289106827E+03  0.14289106827E+03  0.00000000000E+00 0. -1.
         25    2    1    2    0    0  0.11594247260E+02 -0.39074569668E+02 -0.81440493665E+02  0.15465714555E+03  0.12500012039E+03 0.  0.
          2    1    1    2  501    0  0.45578184964E+02 -0.30175830399E+02  0.82449491074E+01  0.55280474588E+02  0.00000000000E+00 0. -1.
          1    1    1    2  502    0 -0.57172432224E+02  0.69250400068E+02  0.15208330547E+04  0.15234820265E+04  0.00000000000E+00 0. -1.
         22    1    3    3    0    0 -0.32681681190E+02 -0.66764560038E+02 -0.67972877036E+02  0.10072691187E+03  0.00000000000E+00 0.  1.
         22    1    3    3    0    0  0.44275928450E+02  0.27689990370E+02 -0.13467616629E+02  0.53930233678E+02  0.00000000000E+00 0.  1.
</event>
<event>
 7    1  0.6273950E-006  0.9657700E+02  0.7818608E-02  0.1433616E+00
          2   -1    0    0  502    0  0.00000000000E+00  0.00000000000E+00  0.98937054727E+02  0.98937054727E+02  0.00000000000E+00 0. -1.
          1   -1    0    0  501    0 -0.00000000000E+00 -0.00000000000E+00 -0.56709440466E+03  0.56709440466E+03  0.00000000000E+00 0. -1.
         25    2    1    2    0    0  0.72051279741E+02 -0.28254223662E+02 -0.26652415869E+03  0.30438420229E+03  0.12499970948E+03 0.  0.
          2    1    1    2  501    0  0.10347527938E+02 -0.26295861085E+02 -0.25002387737E+03  0.25161574454E+03  0.00000000000E+00 0. -1.
          1    1    1    2  502    0 -0.82398807678E+02  0.54550084747E+02  0.48390686125E+02  0.11003151256E+03  0.00000000000E+00 0. -1.
         22    1    3    3    0    0  0.19936267790E+02 -0.38355426290E+02 -0.24213742113E+03  0.24596569722E+03  0.00000000000E+00 0.  1.
         22    1    3    3    0    0  0.52115011951E+02  0.10101202628E+02 -0.24386737558E+02  0.58418505064E+02  0.00000000000E+00 0.  1.
</event>
<event>
 7    1  0.6273950E-006  0.2494945E+03  0.7818608E-02  0.1249377E+00
          2   -1    0    0  502    0  0.00000000000E+00  0.00000000000E+00  0.84764080348E+03  0.84764080348E+03  0.00000000000E+00 0. -1.
          1   -1    0    0  501    0 -0.00000000000E+00 -0.00000000000E+00 -0.86697429553E+03  0.86697429553E+03  0.00000000000E+00 0. -1.
         25    2    1    2    0    0  0.15024490687E+03  0.25337749923E+03 -0.18699578551E+03  0.37062959433E+03  0.12500073295E+03 0.  0.
          2    1    1    2  501    0 -0.44513973924E+02 -0.30897231911E+02 -0.56676539915E+03  0.56934976112E+03  0.00000000000E+00 0. -1.
          1    1    1    2  502    0 -0.10573093294E+03 -0.22248026732E+03  0.73442769261E+03  0.77463574356E+03  0.00000000000E+00 0. -1.
         22    1    3    3    0    0  0.76084094565E+02  0.21846021385E+03 -0.16958220439E+03  0.28683057460E+03  0.00000000000E+00 0. -1.
         22    1    3    3    0    0  0.74160812302E+02  0.34917285383E+02 -0.17413581122E+02  0.83799019727E+02  0.00000000000E+00 0. -1.
</event>
<event>
 7    1  0.6273950E-006  0.5877391E+02  0.7818608E-02  0.1478247E+00
          2   -1    0    0  502    0  0.00000000000E+00  0.00000000000E+00  0.27241477579E+03  0.27241477579E+03  0.00000000000E+00 0. -1.
          1   -1    0    0  501    0 -0.00000000000E+00 -0.00000000000E+00 -0.74296500051E+02  0.74296500051E+02  0.00000000000E+00 0. -1.
         25    2    1    2    0    0 -0.18133337192E+02  0.66599872326E+02  0.55607660580E+02  0.15324026588E+03  0.12500402498E+03 0.  0.
          2    1    1    2  501    0 -0.13582509382E+02 -0.55776614171E+02  0.11896435150E+02  0.58626277545E+02  0.00000000000E+00 0. -1.
          1    1    1    2  502    0  0.31715846575E+02 -0.10823258156E+02  0.13061418001E+03  0.13484473242E+03  0.00000000000E+00 0. -1.
         22    1    3    3    0    0 -0.15417117208E+02  0.56409877504E+02  0.95497441982E+02  0.11198001254E+03  0.00000000000E+00 0.  1.
         22    1    3    3    0    0 -0.27162199840E+01  0.10189994822E+02 -0.39889781402E+02  0.41260253341E+02  0.00000000000E+00 0.  1.
</event>
<event>
 7    1  0.6273950E-006  0.7773303E+02  0.7818608E-02  0.1393949E+00
          2   -1    0    0  502    0  0.00000000000E+00  0.00000000000E+00  0.14962543187E+04  0.14962543187E+04  0.00000000000E+00 0. -1.
          1   -1    0    0  501    0 -0.00000000000E+00 -0.00000000000E+00 -0.14851607840E+02  0.14851607840E+02  0.00000000000E+00 0. -1.
         25    2    1    2    0    0  0.33060426451E+02 -0.60641268812E+02  0.64936352623E+03  0.66488234028E+03  0.12500072776E+03 0.  0.
          2    1    1    2  501    0  0.41714013361E+02  0.23273497227E+02  0.11790354177E+03  0.12721226256E+03  0.00000000000E+00 0. -1.
          1    1    1    2  502    0 -0.74774439812E+02  0.37367771585E+02  0.71413564286E+03  0.71901132369E+03  0.00000000000E+00 0. -1.
         22    1    3    3    0    0  0.20800516608E+01  0.37678351966E+02  0.12898354829E+03  0.13439025468E+03  0.00000000000E+00 0. -1.
         22    1    3    3    0    0  0.30980374790E+02 -0.98319620778E+02  0.52037997794E+03  0.53049208561E+03  0.00000000000E+00 0. -1.
</event>
<event>
 7    1  0.6273950E-006  0.5143879E+02  0.7818608E-02  0.1439371E+00
          2   -1    0    0  502    0  0.00000000000E+00  0.00000000000E+00  0.29760033903E+04  0.29760033903E+04  0.00000000000E+00 0. -1.
          1   -1    0    0  501    0 -0.00000000000E+00 -0.00000000000E+00 -0.10147271409E+04  0.10147271409E+04  0.00000000000E+00 0. -1.
         25    2    1    2    0    0  0.94414752433E+02 -0.16521064443E+02 -0.15289880930E+03  0.21952240367E+03  0.12499979513E+03 0.  0.
          2    1    1    2  501    0 -0.49959654700E+02 -0.92649307067E+01 -0.82751283494E+03  0.82907134677E+03  0.00000000000E+00 0. -1.
          1    1    1    2  502    0 -0.44455097733E+02  0.25785995149E+02  0.29416878937E+04  0.29421367808E+04  0.00000000000E+00 0. -1.
         22    1    3    3    0    0  0.15669037678E+02 -0.20437736664E+02  0.17927937903E+02  0.31378826924E+02  0.00000000000E+00 0. -1.
         22    1    3    3    0    0  0.78745714755E+02  0.39166722212E+01 -0.17082674720E+03  0.18814357675E+03  0.00000000000E+00 0. -1.
</event>
<event>
 7    1  0.6273950E-006  0.1207959E+03  0.7818608E-02  0.1374459E+00
          2   -1    0    0  502    0  0.00000000000E+00  0.00000000000E+00  0.22818424196E+03  0.22818424196E+03  0.00000000000E+00 0. -1.
          1   -1    0    0  501    0 -0.00000000000E+00 -0.00000000000E+00 -0.11425878174E+04  0.11425878174E+04  0.00000000000E+00 0. -1.
         25    2    1    2    0    0 -0.12779988975E+03  0.68832393229E+02 -0.13049982483E+03  0.23178648962E+03  0.12499624920E+03 0.  0.
          2    1    1    2  501    0  0.35591941219E+02  0.53953569367E+01 -0.94133155667E+03  0.94201963660E+03  0.00000000000E+00 0. -1.
          1    1    1    2  502    0  0.92207948536E+02 -0.74227750165E+02  0.15742780610E+03  0.19696593310E+03  0.00000000000E+00 0. -1.
         22    1    3    3    0    0 -0.11333759862E+02  0.19901764895E+02  0.23357186033E+02  0.32712268309E+02  0.00000000000E+00 0. -1.
         22    1    3    3    0    0 -0.11646612989E+03  0.48930628334E+02 -0.15385701086E+03  0.19907422131E+03  0.00000000000E+00 0. -1.
</event>
<event>
 7    1  0.6273950E-006  0.2437747E+03  0.7818608E-02  0.1238872E+00
          2   -1    0    0  502    0  0.00000000000E+00  0.00000000000E+00  0.31436184925E+04  0.31436184925E+04  0.00000000000E+00 0. -1.
          1   -1    0    0  501    0 -0.00000000000E+00 -0.00000000000E+00 -0.48949997744E+03  0.48949997744E+03  0.00000000000E+00 0. -1.
         25    2    1    2    0    0 -0.19207979416E+03 -0.23364152395E+03  0.64655554025E+03  0.72466485380E+03  0.12498829813E+03 0.  0.
          2    1    1    2  501    0  0.15653585066E+03  0.18326148133E+03 -0.41778612333E+03  0.48232093872E+03  0.00000000000E+00 0. -1.
          1    1    1    2  502    0  0.35543943504E+02  0.50380042616E+02  0.24253490982E+04  0.24261326775E+04  0.00000000000E+00 0. -1.
         22    1    3    3    0    0 -0.11655238207E+03 -0.17481606138E+03  0.54968337937E+03  0.58846999129E+03  0.00000000000E+00 0. -1.
         22    1    3    3    0    0 -0.75527412086E+02 -0.58825462564E+02  0.96872160872E+02  0.13619486251E+03  0.00000000000E+00 0. -1.
</event>
<event>
 7    1  0.6273950E-006  0.4045455E+02  0.7818608E-02  0.1572851E+00
          2   -1    0    0  502    0  0.00000000000E+00  0.00000000000E+00  0.40279295067E+03  0.40279295067E+03  0.00000000000E+00 0. -1.
          1   -1    0    0  501    0 -0.00000000000E+00 -0.00000000000E+00 -0.44620268805E+03  0.44620268805E+03  0.00000000000E+00 0. -1.
         25    2    1    2    0    0 -0.42708672882E+02  0.43893814399E+02 -0.38721396955E+02  0.14448296379E+03  0.12500113025E+03 0.  0.
          2    1    1    2  501    0  0.72230695526E+01 -0.24945466055E+02 -0.35296567661E+03  0.35391979017E+03  0.00000000000E+00 0. -1.
          1    1    1    2  502    0  0.35485603330E+02 -0.18948348344E+02  0.34827733618E+03  0.35059288476E+03  0.00000000000E+00 0. -1.
         22    1    3    3    0    0 -0.19050294175E+02  0.87197513290E+02 -0.18477370954E+02  0.91146767740E+02  0.00000000000E+00 0. -1.
         22    1    3    3    0    0 -0.23658378707E+02 -0.43303698892E+02 -0.20244026002E+02  0.53336196054E+02  0.00000000000E+00 0. -1.
</event>
<event>
 7    1  0.6273950E-006  0.7085162E+02  0.7818608E-02  0.1433217E+00
          2   -1    0    0  502    0  0.00000000000E+00  0.00000000000E+00  0.27693852952E+04  0.27693852952E+04  0.00000000000E+00 0. -1.
          1   -1    0    0  501    0 -0.00000000000E+00 -0.00000000000E+00 -0.19397976338E+04  0.19397976338E+04  0.00000000000E+00 0. -1.
         25    2    1    2    0    0  0.10735960314E+03  0.10328075482E+02  0.79400313423E+03  0.81098604754E+03  0.12499855441E+03 0.  0.
          2    1    1    2  501    0 -0.70790189912E+02  0.21348259344E+01 -0.19304670525E+04  0.19317657335E+04  0.00000000000E+00 0. -1.
          1    1    1    2  502    0 -0.36569413227E+02 -0.12462901416E+02  0.19660515796E+04  0.19664311480E+04  0.00000000000E+00 0. -1.
         22    1    3    3    0    0  0.12438852510E+03  0.34707234984E+02  0.53898689951E+03  0.55424180208E+03  0.00000000000E+00 0. -1.
         22    1    3    3    0    0 -0.17028921964E+02 -0.24379159502E+02  0.25501623472E+03  0.25674424546E+03  0.00000000000E+00 0. -1.
</event>
<event>
 7    1  0.6273950E-006  0.1689399E+03  0.7818608E-02  0.1186245E+00
          2   -1    0    0  502    0  0.00000000000E+00  0.00000000000E+00  0.22894445819E+04  0.22894445819E+04  0.00000000000E+00 0. -1.
          1   -1    0    0  501    0 -0.00000000000E+00 -0.00000000000E+00 -0.58909006787E+03  0.58909006787E+03  0.00000000000E+00 0. -1.
         25    2    1    2    0    0 -0.44569944067E+01  0.10866983688E+03 -0.76101309488E+02  0.18233389266E+03  0.12500096344E+03 0.  0.
          2    1    1    2  501    0 -0.14589667566E+03 -0.14916537355E+03 -0.43332346204E+03  0.48094217052E+03  0.00000000000E+00 0. -1.
          1    1    1    2  502    0  0.15035367007E+03  0.40495536673E+02  0.22097792855E+04  0.22152585866E+04  0.00000000000E+00 0. -1.
         22    1    3    3    0    0  0.93957442270E-01  0.12748404129E+03 -0.92058187973E+02  0.15724789215E+03  0.00000000000E+00 0. -1.
         22    1    3    3    0    0 -0.45509518490E+01 -0.18814204417E+02  0.15956878485E+02  0.25086000510E+02  0.00000000000E+00 0. -1.
</event>
<event>
 7    1  0.6273950E-006  0.1056804E+03  0.7818608E-02  0.1350145E+00
          2   -1    0    0  502    0  0.00000000000E+00  0.00000000000E+00  0.14078679431E+04  0.14078679431E+04  0.00000000000E+00 0. -1.
          1   -1    0    0  501    0 -0.00000000000E+00 -0.00000000000E+00 -0.59740828894E+03  0.59740828894E+03  0.00000000000E+00 0. -1.
         25    2    1    2    0    0 -0.35390103182E+02 -0.13775804501E+03  0.17599082520E+03  0.25850509602E+03  0.12498950253E+03 0.  0.
          2    1    1    2  501    0 -0.16458100539E+02  0.47679449299E+02 -0.55273238443E+03  0.55502908730E+03  0.00000000000E+00 0. -1.
          1    1    1    2  502    0  0.51848203722E+02  0.90078595716E+02  0.11872012134E+04  0.11917420487E+04  0.00000000000E+00 0. -1.
         22    1    3    3    0    0 -0.63166407646E+02 -0.17816250648E+02  0.51571676900E+02  0.83468866653E+02  0.00000000000E+00 0.  1.
         22    1    3    3    0    0  0.27776304464E+02 -0.11994179437E+03  0.12441914830E+03  0.17503622936E+03  0.00000000000E+00 0.  1.
</event>
<event>
 7    1  0.6273950E-006  0.1055881E+03  0.7818608E-02  0.1458452E+00
          2   -1    0    0  502    0  0.00000000000E+00  0.00000000000E+00  0.35807770636E+03  0.35807770636E+03  0.00000000000E+00 0. -1.
          1   -1    0    0  501    0 -0.00000000000E+00 -0.00000000000E+00 -0.21324165542E+03  0.21324165542E+03  0.00000000000E+00 0. -1.
         25    2    1    2    0    0 -0.75632915268E+02 -0.46087675807E+02  0.18919930839E+02  0.15435734944E+03  0.12499526315E+03 0.  0.
          2    1    1    2  501    0  0.91200192531E+02  0.60920597088E+02 -0.12433144617E+03  0.16579234836E+03  0.00000000000E+00 0. -1.
          1    1    1    2  502    0 -0.15567277263E+02 -0.14832921281E+02  0.25024756627E+03  0.25116966397E+03  0.00000000000E+00 0. -1.
         22    1    3    3    0    0  0.34105726437E+02 -0.15972706776E+01  0.10144298915E+02  0.35618234795E+02  0.00000000000E+00 0. -1.
         22    1    3    3    0    0 -0.10973864171E+03 -0.44490405129E+02  0.87756319236E+01  0.11873911465E+03  0.00000000000E+00 0. -1.
</event>
<event>
 7    1  0.6273950E-006  0.7384608E+02  0.7818608E-02  0.1414179E+00
          2   -1    0    0  502    0  0.00000000000E+00  0.00000000000E+00  0.16585627133E+04  0.16585627133E+04  0.00000000000E+00 0. -1.
          1   -1    0    0  501    0 -0.00000000000E+00 -0.00000000000E+00 -0.57129029708E+02  0.57129029708E+02  0.00000000000E+00 0. -1.
         25    2    1    2    0    0 -0.38012699138E+02 -0.66431813442E+01  0.15793834206E+04  0.15847915233E+04  0.12499234412E+03 0.  0.
          2    1    1    2  501    0  0.61173470062E+02  0.42729717697E+02 -0.12719112251E+02  0.75695429389E+02  0.00000000000E+00 0. -1.
          1    1    1    2  502    0 -0.23160770924E+02 -0.36086536353E+02  0.34769375311E+02  0.55204790329E+02  0.00000000000E+00 0. -1.
         22    1    3    3    0    0 -0.15679850453E+02  0.39392015900E+02  0.13043671133E+04  0.13050559969E+04  0.00000000000E+00 0.  1.
         22    1    3    3    0    0 -0.22332848685E+02 -0.46035197244E+02  0.27501630724E+03  0.27973552646E+03  0.00000000000E+00 0.  1.
</event>
<event>
 7    1  0.6273950E-006  0.5194374E+02  0.7818608E-02  0.1487414E+00
          2   -1    0    0  502    0  0.00000000000E+00  0.00000000000E+00  0.33712745894E+03  0.33712745894E+03  0.00000000000E+00 0. -1.
          1   -1    0    0  501    0 -0.00000000000E+00 -0.00000000000E+00 -0.34796612010E+03  0.34796612010E+03  0.00000000000E+00 0. -1.
         25    2    1    2    0    0 -0.43183694899E+02 -0.37880451561E+02 -0.71783537431E+02  0.15516955665E+03  0.12499981979E+03 0.  0.
          2    1    1    2  501    0  0.10270726138E+02  0.51316774626E+02 -0.23047582840E+03  0.23634298519E+03  0.00000000000E+00 0. -1.
          1    1    1    2  502    0  0.32912968760E+02 -0.13436323065E+02  0.29142070467E+03  0.29358103720E+03  0.00000000000E+00 0. -1.
         22    1    3    3    0    0  0.84673976205E+01  0.18612579709E+02  0.24663837697E+02  0.32037943689E+02  0.00000000000E+00 0. -1.
         22    1    3    3    0    0 -0.51651092519E+02 -0.56493031269E+02 -0.96447375128E+02  0.12313161296E+03  0.00000000000E+00 0. -1.
</event>
<event>
 7    1  0.6273950E-006  0.7778992E+02  0.7818608E-02  0.1349847E+00
          2   -1    0    0  502    0  0.00000000000E+00  0.00000000000E+00  0.20734325618E+03  0.20734325618E+03  0.00000000000E+00 0. -1.
          1   -1    0    0  501    0 -0.00000000000E+00 -0.00000000000E+00 -0.45415026421E+03  0.45415026421E+03  0.00000000000E+00 0. -1.
         25    2    1    2    0    0  0.77742574472E+01  0.36971556842E+02 -0.16277244503E+03  0.20866903777E+03  0.12498225221E+03 0.  0.
          2    1    1    2  501    0  0.69257725897E+02 -0.47804134293E+02 -0.25309876467E+03  0.26672242600E+03  0.00000000000E+00 0. -1.
          1    1    1    2  502    0 -0.77031983344E+02  0.10832577451E+02  0.16906420167E+03  0.18610205662E+03  0.00000000000E+00 0. -1.
         22    1    3    3    0    0  0.50759354143E+02  0.57005662755E+02 -0.13090210718E+03  0.15153058861E+03  0.00000000000E+00 0. -1.
         22    1    3    3    0    0 -0.42985096695E+02 -0.20034105913E+02 -0.31870337851E+02  0.57138449160E+02  0.00000000000E+00 0. -1.
</event>
<event>
 7    1  0.6273950E-006  0.1173339E+03  0.7818608E-02  0.1308907E+00
          2   -1    0    0  502    0  0.00000000000E+00  0.00000000000E+00  0.32572273528E+03  0.32572273528E+03  0.00000000000E+00 0. -1.
          1   -1    0    0  501    0 -0.00000000000E+00 -0.00000000000E+00 -0.21465843263E+04  0.21465843263E+04  0.00000000000E+00 0. -1.
         25    2    1    2    0    0  0.55426112442E+02  0.68840443030E+02 -0.36331539316E+03  0.39425105814E+03  0.12499904559E+03 0.  0.
          2    1    1    2  501    0 -0.17094236934E+02 -0.12173037679E+03 -0.17621980686E+04  0.17664802661E+04  0.00000000000E+00 0. -1.
          1    1    1    2  502    0 -0.38331875508E+02  0.52889933762E+02  0.30465187072E+03  0.31157573735E+03  0.00000000000E+00 0. -1.
         22    1    3    3    0    0  0.64387973205E+02  0.11312318167E+00 -0.80584704128E+02  0.10314901080E+03  0.00000000000E+00 0.  1.
         22    1    3    3    0    0 -0.89618607636E+01  0.68727319848E+02 -0.28273068904E+03  0.29110204734E+03  0.00000000000E+00 0.  1.
</event>
<event>
 7    1  0.6273950E-006  0.5788866E+02  0.7818608E-02  0.1447229E+00
          2   -1    0    0  502    0  0.00000000000E+00  0.00000000000E+00  0.11028775323E+04  0.11028775323E+04  0.00000000000E+00 0. -1.
          1   -1    0    0  501    0 -0.00000000000E+00 -0.00000000000E+00 -0.23277201380E+03  0.23277201380E+03  0.00000000000E+00 0. -1.
         25    2    1    2    0    0  0.63690748018E+02  0.31521587799E+02  0.55091007974E+02  0.15398393641E+03  0.12500364648E+03 0.  0.
          2    1    1    2  501    0 -0.26163624738E+02 -0.51655079523E+02 -0.17828571247E+03  0.18745286813E+03  0.00000000000E+00 0. -1.
          1    1    1    2  502    0 -0.37527123280E+02  0.20133491724E+02  0.99330022299E+03  0.99421274156E+03  0.00000000000E+00 0. -1.
         22    1    3    3    0    0  0.48997667489E+02  0.70171648135E+02  0.69444187113E+02  0.11021491163E+03  0.00000000000E+00 0. -1.
         22    1    3    3    0    0  0.14693080529E+02 -0.38650060336E+02 -0.14353179138E+02  0.43769024787E+02  0.00000000000E+00 0. -1.
</event>
<event>
 7    1  0.6273950E-006  0.4269981E+02  0.7818608E-02  0.1557231E+00
          2   -1    0    0  502    0  0.00000000000E+00  0.00000000000E+00  0.94196314954E+03  0.94196314954E+03  0.00000000000E+00 0. -1.
          1   -1    0    0  501    0 -0.00000000000E+00 -0.00000000000E+00 -0.29936632890E+03  0.29936632890E+03  0.00000000000E+00 0. -1.
         25    2    1    2    0    0 -0.42903520136E+02 -0.51589404460E+02  0.53773543874E+03  0.55613566319E+03  0.12500118039E+03 0.  0.
          2    1    1    2  501    0  0.18419889983E+02  0.19942295430E+02 -0.28851416845E+03  0.28978856584E+03  0.00000000000E+00 0. -1.
          1    1    1    2  502    0  0.24483630153E+02  0.31647109030E+02  0.39337555035E+03  0.39540524942E+03  0.00000000000E+00 0. -1.
         22    1    3    3    0    0 -0.86492589992E+02 -0.39012361090E+02  0.40090737412E+03  0.41198259073E+03  0.00000000000E+00 0. -1.
         22    1    3    3    0    0  0.43589069856E+02 -0.12577043370E+02  0.13682806462E+03  0.14415307246E+03  0.00000000000E+00 0. -1.
</event>
<event>
 7    1  0.6273950E-006  0.3478987E+02  0.7818608E-02  0.1565177E+00
          2   -1    0    0  502    0  0.00000000000E+00  0.00000000000E+00  0.57027162221E+03  0.57027162221E+03  0.00000000000E+00 0. -1.
          1   -1    0    0  501    0 -0.00000000000E+00 -0.00000000000E+00 -0.75832262061E+03  0.75832262061E+03  0.00000000000E+00 0. -1.
         25    2    1    2    0    0 -0.98806785082E+01 -0.63890512374E+02  0.77535777078E+02  0.16066770484E+03  0.12499075674E+03 0.  0.
          2    1    1    2  501    0 -0.22461260026E+01  0.34617136844E+02 -0.71577975113E+03  0.71661987369E+03  0.00000000000E+00 0. -1.
          1    1    1    2  502    0  0.12126804511E+02  0.29273375530E+02  0.45019297565E+03  0.45130666429E+03  0.00000000000E+00 0. -1.
         22    1    3    3    0    0  0.44654580249E+02  0.69071414241E+01  0.47953559634E+01  0.45439361556E+02  0.00000000000E+00 0.  1.
         22    1    3    3    0    0 -0.54535258757E+02 -0.70797653798E+02  0.72740421114E+02  0.11522834328E+03  0.00000000000E+00 0.  1.
</event>
<event>
 7    1  0.6273950E-006  0.9080650E+02  0.7818608E-02  0.1372104E+00
          2   -1    0    0  502    0  0.00000000000E+00  0.00000000000E+00  0.62934580880E+03  0.62934580880E+03  0.00000000000E+00 0. -1.
          1   -1    0    0  501    0 -0.00000000000E+00 -0.00000000000E+00 -0.29744801825E+03  0.29744801825E+03  0.00000000000E+00 0. -1.
         25    2    1    2    0    0 -0.33231028343E+02  0.83627458658E+02 -0.89269125870E+02  0.17801748770E+03  0.12499358386E+03 0.  0.
          2    1    1    2  501    0  0.74468394774E+02 -0.57486033459E+02 -0.14916788381E+03  0.17635544625E+03  0.00000000000E+00 0. -1.
          1    1    1    2  502    0 -0.41237366432E+02 -0.26141425199E+02  0.57033480023E+03  0.57242089310E+03  0.00000000000E+00 0. -1.
         22    1    3    3    0    0  0.39325790511E+02 -0.36037622445E+01 -0.14185261977E+02  0.41961012368E+02  0.00000000000E+00 0.  1.
         22    1    3    3    0    0 -0.72556818854E+02  0.87231220903E+02 -0.75083863893E+02  0.13605647533E+03  0.00000000000E+00 0.  1.
</event>
<event>
 7    1  0.6273950E-006  0.1740083E+03  0.7818608E-02  0.1196637E+00
          2   -1    0    0  502    0  0.00000000000E+00  0.00000000000E+00  0.65028939283E+03  0.65028939283E+03  0.00000000000E+00 0. -1.
          1   -1    0    0  501    0 -0.00000000000E+00 -0.00000000000E+00 -0.78951325789E+03  0.78951325789E+03  0.00000000000E+00 0. -1.
         25    2    1    2    0    0  0.50255115585E+02 -0.10614631855E+02  0.98322914074E+02  0.16712165280E+03  0.12499601733E+03 0.  0.
          2    1    1    2  501    0  0.72390527904E+02  0.15823561773E+03 -0.72669026447E+03  0.74723332348E+03  0.00000000000E+00 0. -1.
          1    1    1    2  502    0 -0.12264564349E+03 -0.14762098588E+03  0.48914348533E+03  0.52544767445E+03  0.00000000000E+00 0. -1.
         22    1    3    3    0    0  0.16940810031E+02  0.47213867717E+02  0.85551390153E+02  0.99172479582E+02  0.00000000000E+00 0. -1.
         22    1    3    3    0    0  0.33314305554E+02 -0.57828499572E+02  0.12771523922E+02  0.67949173215E+02  0.00000000000E+00 0. -1.
</event>
<event>
 7    1  0.6273950E-006  0.1055325E+03  0.7818608E-02  0.1381953E+00
          2   -1    0    0  502    0  0.00000000000E+00  0.00000000000E+00  0.86040026676E+03  0.86040026676E+03  0.00000000000E+00 0. -1.
          1   -1    0    0  501    0 -0.00000000000E+00 -0.00000000000E+00 -0.11415536869E+04  0.11415536869E+04  0.00000000000E+00 0. -1.
         25    2    1    2    0    0 -0.27434933610E+01 -0.14116255663E+03  0.16972756368E+03  0.25370445153E+03  0.12499643476E+03 0.  0.
          2    1    1    2  501    0 -0.10183095559E+02  0.10462594528E+03 -0.10964703693E+04  0.11014978687E+04  0.00000000000E+00 0. -1.
          1    1    1    2  502    0  0.12926588920E+02  0.36536611353E+02  0.64558938552E+03  0.64675163345E+03  0.00000000000E+00 0. -1.
         22    1    3    3    0    0 -0.22836535462E+02 -0.99990880650E+02  0.17961529894E+03  0.20683650350E+03  0.00000000000E+00 0.  1.
         22    1    3    3    0    0  0.20093042101E+02 -0.41171675980E+02 -0.98877352627E+01  0.46867948030E+02  0.00000000000E+00 0.  1.
</event>
<event>
 7    1  0.6273950E-006  0.7770849E+02  0.7818608E-02  0.1360949E+00
          2   -1    0    0  502    0  0.00000000000E+00  0.00000000000E+00  0.12648033850E+04  0.12648033850E+04  0.00000000000E+00 0. -1.
          1   -1    0    0  501    0 -0.00000000000E+00 -0.00000000000E+00 -0.42341087715E+03  0.42341087715E+03  0.00000000000E+00 0. -1.
         25    2    1    2    0    0  0.27907268434E+02 -0.34223480181E+02 -0.12555970915E+03  0.18259103246E+03  0.12499672933E+03 0.  0.
          2    1    1    2  501    0  0.27350491442E+01  0.88816234139E+02 -0.26118748071E+03  0.27588893421E+03  0.00000000000E+00 0. -1.
          1    1    1    2  502    0 -0.30642317578E+02 -0.54592753958E+02  0.12281396977E+04  0.12297342955E+04  0.00000000000E+00 0. -1.
         22    1    3    3    0    0  0.21148777189E+02 -0.46371664678E+02  0.50750021150E+01  0.51218724194E+02  0.00000000000E+00 0.  1.
         22    1    3    3    0    0  0.67584912447E+01  0.12148184497E+02 -0.13063471127E+03  0.13137230826E+03  0.00000000000E+00 0.  1.
</event>
<event>
 7    1  0.6273950E-006  0.3951015E+02  0.7818608E-02  0.1515781E+00
          2   -1    0    0  502    0  0.00000000000E+00  0.00000000000E+00  0.14404664539E+04  0.14404664539E+04  0.00000000000E+00 0. -1.
          1   -1    0    0  501    0 -0.00000000000E+00 -0.00000000000E+00 -0.68617398818E+02  0.68617398818E+02  0.00000000000E+00 0. -1.
         25    2    1    2    0    0 -0.13451681575E+02 -0.12384523761E+02  0.12251625391E+03  0.17600538154E+03  0.12503334632E+03 0.  0.
          2    1    1    2  501    0  0.30208193503E+02 -0.23830067774E+02 -0.32657675968E+02  0.50467126771E+02  0.00000000000E+00 0. -1.
          1    1    1    2  502    0 -0.16756511928E+02  0.36214591536E+02  0.12819904772E+04  0.12826113444E+04  0.00000000000E+00 0. -1.
         22    1    3    3    0    0  0.30862447431E+01 -0.13372396679E+02  0.14634284850E+03  0.14698494892E+03  0.00000000000E+00 0. -1.
         22    1    3    3    0    0 -0.16537926318E+02  0.98787291748E+00 -0.23826594592E+02  0.29020432624E+02  0.00000000000E+00 0. -1.
</event>
<event>
 7    1  0.6273950E-006  0.6708911E+02  0.7818608E-02  0.1425768E+00
          2   -1    0    0  502    0  0.00000000000E+00  0.00000000000E+00  0.57040276819E+03  0.57040276819E+03  0.00000000000E+00 0. -1.
          1   -1    0    0  501    0 -0.00000000000E+00 -0.00000000000E+00 -0.17664106393E+04  0.17664106393E+04  0.00000000000E+00 0. -1.
         25    2    1    2    0    0 -0.90839751917E+02  0.43347731624E+02 -0.40497081880E+03  0.43561240004E+03  0.12500365044E+03 0.  0.
          2    1    1    2  501    0  0.24328045790E+02 -0.35666797707E+02 -0.13437520894E+04  0.13444454812E+04  0.00000000000E+00 0. -1.
          1    1    1    2  502    0  0.66511706126E+02 -0.76809339172E+01  0.55271503706E+03  0.55675552623E+03  0.00000000000E+00 0. -1.
         22    1    3    3    0    0 -0.31951146284E+02  0.81639664444E+02 -0.26275952285E+03  0.27699905669E+03  0.00000000000E+00 0. -1.
         22    1    3    3    0    0 -0.58888605632E+02 -0.38291932820E+02 -0.14221129595E+03  0.15861334335E+03  0.00000000000E+00 0. -1.
</event>
<event>
 7    1  0.6273950E-006  0.2202217E+03  0.7818608E-02  0.1228730E+00
          2   -1    0    0  502    0  0.00000000000E+00  0.00000000000E+00  0.77203805245E+03  0.77203805245E+03  0.00000000000E+00 0. -1.
          1   -1    0    0  501    0 -0.00000000000E+00 -0.00000000000E+00 -0.27341546151E+03  0.27341546151E+03  0.00000000000E+00 0. -1.
         25    2    1    2    0    0  0.34710614462E+02  0.16038725464E+03 -0.12120931037E+03  0.23926150572E+03  0.12500189195E+03 0.  0.
          2    1    1    2  501    0 -0.37212669672E+02  0.65961523851E+02 -0.55525635451E+02  0.93908474618E+02  0.00000000000E+00 0. -1.
          1    1    1    2  502    0  0.25020552107E+01 -0.22634877849E+03  0.67535753676E+03  0.71228353362E+03  0.00000000000E+00 0. -1.
         22    1    3    3    0    0  0.24911915174E+02  0.17859804618E+03 -0.89274650910E+02  0.20121587639E+03  0.00000000000E+00 0.  1.
         22    1    3    3    0    0  0.97986992879E+01 -0.18210791538E+02 -0.31934659458E+02  0.38045629326E+02  0.00000000000E+00 0.  1.
</event>
<event>
 7    1  0.6273950E-006  0.6098812E+02  0.7818608E-02  0.1492419E+00
          2   -1    0    0  502    0  0.00000000000E+00  0.00000000000E+00  0.96055635596E+03  0.96055635596E+03  0.00000000000E+00 0. -1.
          1   -1    0    0  501    0 -0.00000000000E+00 -0.00000000000E+00 -0.35191508785E+03  0.35191508785E+03  0.00000000000E+00 0. -1.
         25    2    1    2    0    0 -0.81803522546E+02  0.93612197543E+00  0.81391887347E+02  0.17012485340E+03  0.12500053518E+03 0.  0.
          2    1    1    2  501    0  0.58293935300E+02  0.16450692472E+02 -0.30430684207E+03  0.31027642886E+03  0.00000000000E+00 0. -1.
          1    1    1    2  502    0  0.23509587246E+02 -0.17386814447E+02  0.83155622283E+03  0.83207016155E+03  0.00000000000E+00 0. -1.
         22    1    3    3    0    0 -0.35676259281E+02  0.61727793435E+02  0.26244630492E+02  0.75972999074E+02  0.00000000000E+00 0.  1.
         22    1    3    3    0    0 -0.46127263265E+02 -0.60791671459E+02  0.55147256854E+02  0.94151854329E+02  0.00000000000E+00 0.  1.
</event>
<event>
 7    1  0.6273950E-006  0.6487255E+02  0.7818608E-02  0.1495767E+00
          2   -1    0    0  502    0  0.00000000000E+00  0.00000000000E+00  0.22548113582E+03  0.22548113582E+03  0.00000000000E+00 0. -1.
          1   -1    0    0  501    0 -0.00000000000E+00 -0.00000000000E+00 -0.36103083972E+03  0.36103083972E+03  0.00000000000E+00 0. -1.
         25    2    1    2    0    0 -0.30234434472E+02  0.67264696779E+02  0.33138257375E+02  0.14886817651E+03  0.12499971766E+03 0.  0.
          2    1    1    2  501    0  0.46000221602E+02 -0.45519443571E+02 -0.29831988000E+03  0.30525856407E+03  0.00000000000E+00 0. -1.
          1    1    1    2  502    0 -0.15765787130E+02 -0.21745253208E+02  0.12963191873E+03  0.13238523496E+03  0.00000000000E+00 0. -1.
         22    1    3    3    0    0 -0.59524597720E+02  0.86485853344E+00 -0.15485352813E+02  0.61511965224E+02  0.00000000000E+00 0.  1.
         22    1    3    3    0    0  0.29290163248E+02  0.66399838246E+02  0.48623610188E+02  0.87356211284E+02  0.00000000000E+00 0.  1.
</event>
<event>
 7    1  0.6273950E-006  0.8809226E+02  0.7818608E-02  0.1396071E+00
          2   -1    0    0  502    0  0.00000000000E+00  0.00000000000E+00  0.21568395266E+04  0.21568395266E+04  0.00000000000E+00 0. -1.
          1   -1    0    0  501    0 -0.00000000000E+00 -0.00000000000E+00 -0.12008540196E+03  0.12008540196E+03  0.00000000000E+00 0. -1.
         25    2    1    2    0    0  0.46417938959E+02 -0.64268560755E+02  0.83847184208E+03  0.85143748245E+03  0.12500273443E+03 0.  0.
          2    1    1    2  501    0 -0.79345415906E+02  0.39103754062E+02 -0.96000826465E+02  0.13054101765E+03  0.00000000000E+00 0. -1.
          1    1    1    2  502    0  0.32927476947E+02  0.25164806693E+02  0.12942831090E+04  0.12949464284E+04  0.00000000000E+00 0. -1.
         22    1    3    3    0    0  0.30268540171E+02 -0.50074912561E+02  0.12911173138E+03  0.14175161576E+03  0.00000000000E+00 0.  1.
         22    1    3    3    0    0  0.16149398788E+02 -0.14193648193E+02  0.70936011070E+03  0.70968586669E+03  0.00000000000E+00 0.  1.
</event>
<event>
 7    1  0.6273950E-006  0.3839912E+02  0.7818608E-02  0.1589609E+00
          2   -1    0    0  502    0  0.00000000000E+00  0.00000000000E+00  0.91122801097E+03  0.91122801097E+03  0.00000000000E+00 0. -1.
          1   -1    0    0  501    0 -0.00000000000E+00 -0.00000000000E+00 -0.22433249036E+02  0.22433249036E+02  0.00000000000E+00 0. -1.
         25    2    1    2    0    0  0.13575488963E+02 -0.55449634272E+01  0.24014204420E+03  0.27112296348E+03  0.12499767764E+03 0.  0.
          2    1    1    2  501    0  0.22995118077E+02 -0.89480807292E+01  0.17714869502E+02  0.30375322313E+02  0.00000000000E+00 0. -1.
          1    1    1    2  502    0 -0.36570607041E+02  0.14493044156E+02  0.63093784824E+03  0.63216297421E+03  0.00000000000E+00 0. -1.
         22    1    3    3    0    0  0.27008063104E+02 -0.48353447604E+02  0.20973224986E+03  0.21692189378E+03  0.00000000000E+00 0.  1.
         22    1    3    3    0    0 -0.13432574141E+02  0.42808484177E+02  0.30409794334E+02  0.54201069704E+02  0.00000000000E+00 0.  1.
</event>
<event>
 7    1  0.6273950E-006  0.6438551E+02  0.7818608E-02  0.1442830E+00
          2   -1    0    0  502    0  0.00000000000E+00  0.00000000000E+00  0.64210060739E+03  0.64210060739E+03  0.00000000000E+00 0. -1.
          1   -1    0    0  501    0 -0.00000000000E+00 -0.00000000000E+00 -0.26237928240E+03  0.26237928240E+03  0.00000000000E+00 0. -1.
         25    2    1    2    0    0  0.27066588033E+02  0.16002198203E+01  0.18884708559E+03  0.22808653372E+03  0.12500033695E+03 0.  0.
          2    1    1    2  501    0 -0.61979896732E+02 -0.20202656837E+02 -0.23745517418E+03  0.24624096874E+03  0.00000000000E+00 0. -1.
          1    1    1    2  502    0  0.34913308699E+02  0.18602437016E+02  0.42832941358E+03  0.43015238733E+03  0.00000000000E+00 0. -1.
         22    1    3    3    0    0  0.26878750908E+02  0.24310348710E+02 -0.16126210390E+01  0.36277552997E+02  0.00000000000E+00 0.  1.
         22    1    3    3    0    0  0.18783712459E+00 -0.22710128890E+02  0.19045970663E+03  0.19180898072E+03  0.00000000000E+00 0.  1.
</event>
<event>
 7    1  0.6273950E-006  0.5003269E+02  0.7818608E-02  0.1548499E+00
          2   -1    0    0  502    0  0.00000000000E+00  0.00000000000E+00  0.95753973859E+03  0.95753973859E+03  0.00000000000E+00 0. -1.
          1   -1    0    0  501    0 -0.00000000000E+00 -0.00000000000E+00 -0.20627446479E+03  0.20627446479E+03  0.00000000000E+00 0. -1.
         25    2    1    2    0    0 -0.69169678274E+02 -0.14432976899E+01 -0.10788951517E+02  0.14327750574E+03  0.12500205869E+03 0.  0.
          2    1    1    2  501    0  0.47230909933E+02  0.12349433243E+02 -0.12445583528E+03  0.13368815314E+03  0.00000000000E+00 0. -1.
          1    1    1    2  502    0  0.21938768341E+02 -0.10906135553E+02  0.88651006059E+03  0.88684854450E+03  0.00000000000E+00 0. -1.
         22    1    3    3    0    0 -0.99719426595E+02 -0.18800323535E+02 -0.26362433177E+02  0.10484461879E+03  0.00000000000E+00 0. -1.
         22    1    3    3    0    0  0.30549748321E+02  0.17357025845E+02  0.15573481660E+02  0.38432886955E+02  0.00000000000E+00 0. -1.
</event>
<event>
 7    1  0.6273950E-006  0.1177460E+03  0.7818608E-02  0.1257581E+00
          2   -1    0    0  502    0  0.00000000000E+00  0.00000000000E+00  0.11158493559E+04  0.11158493559E+04  0.00000000000E+00 0. -1.
          1   -1    0    0  501    0 -0.00000000000E+00 -0.00000000000E+00 -0.12573722125E+04  0.12573722125E+04  0.00000000000E+00 0. -1.
         25    2    1    2    0    0  0.13738757773E+02  0.67816615623E+02  0.29089620936E+03  0.32408796539E+03  0.12499823145E+03 0.  0.
          2    1    1    2  501    0  0.11113207291E+03 -0.38907391171E+02 -0.12328728608E+04  0.12384827870E+04  0.00000000000E+00 0. -1.
          1    1    1    2  502    0 -0.12487083068E+03 -0.28909224452E+02  0.80045379488E+03  0.81065081592E+03  0.00000000000E+00 0. -1.
         22    1    3    3    0    0 -0.46852861054E+02  0.14613938632E+02  0.18253249175E+03  0.18901552406E+03  0.00000000000E+00 0. -1.
         22    1    3    3    0    0  0.60591618827E+02  0.53202676990E+02  0.10836371762E+03  0.13507244133E+03  0.00000000000E+00 0. -1.
</event>
<event>
 7    1  0.6273950E-006  0.1027619E+03  0.7818608E-02  0.1471577E+00
          2   -1    0    0  502    0  0.00000000000E+00  0.00000000000E+00  0.14726082917E+03  0.14726082917E+03  0.00000000000E+00 0. -1.
          1   -1    0    0  501    0 -0.00000000000E+00 -0.00000000000E+00 -0.10435692373E+04  0.10435692373E+04  0.00000000000E+00 0. -1.
         25    2    1    2    0    0  0.21809137058E+02  0.11554557917E+03 -0.58854575349E+03  0.61305533718E+03  0.12499729268E+03 0.  0.
          2    1    1    2  501    0 -0.14917104596E+02 -0.13469172825E+02 -0.42311321054E+03  0.42359028265E+03  0.00000000000E+00 0. -1.
          1    1    1    2  502    0 -0.68920324614E+01 -0.10207640635E+03  0.11535055589E+03  0.15418444665E+03  0.00000000000E+00 0. -1.
         22    1    3    3    0    0 -0.12603296828E+02  0.11245569842E+03 -0.27158245282E+03  0.29421447259E+03  0.00000000000E+00 0.  1.
         22    1    3    3    0    0  0.34412433886E+02  0.30898807514E+01 -0.31696330066E+03  0.31884086459E+03  0.00000000000E+00 0.  1.
</event>
<event>
 7    1  0.6273950E-006  0.6658464E+02  0.7818608E-02  0.1496463E+00
          2   -1    0    0  502    0  0.00000000000E+00  0.00000000000E+00  0.52692210802E+03  0.52692210802E+03  0.00000000000E+00 0. -1.
          1   -1    0    0  501    0 -0.00000000000E+00 -0.00000000000E+00 -0.18842034484E+04  0.18842034484E+04  0.00000000000E+00 0. -1.
         25    2    1    2    0    0  0.38016368706E+02 -0.25008253245E+02 -0.97955228049E+03  0.98854277888E+03  0.12499399367E+03 0.  0.
          2    1    1    2  501    0  0.25552492499E+02  0.50312785477E+01 -0.89784159891E+03  0.89821922734E+03  0.00000000000E+00 0. -1.
          1    1    1    2  502    0 -0.63568861206E+02  0.19976974697E+02  0.52011253896E+03  0.52436355024E+03  0.00000000000E+00 0. -1.
         22    1    3    3    0    0  0.55665882630E+02 -0.11412230610E+02 -0.18166892701E+03  0.19034843981E+03  0.00000000000E+00 0.  1.
         22    1    3    3    0    0 -0.17649513924E+02 -0.13596022635E+02 -0.79788335348E+03  0.79819433907E+03  0.00000000000E+00 0.  1.
</event>
<event>
 7    1  0.6273950E-006  0.7658704E+02  0.7818608E-02  0.1380212E+00
          2   -1    0    0  502    0  0.00000000000E+00  0.00000000000E+00  0.75727545646E+03  0.75727545646E+03  0.00000000000E+00 0. -1.
          1   -1    0    0  501    0 -0.00000000000E+00 -0.00000000000E+00 -0.61152081884E+02  0.61152081884E+02  0.00000000000E+00 0. -1.
         25    2    1    2    0    0 -0.10299624239E+03 -0.67503637358E+02  0.31587456316E+03  0.36133891556E+03  0.12499642091E+03 0.  0.
          2    1    1    2  501    0  0.49638163713E+02  0.21679178962E+02 -0.14540032334E+02  0.56083390032E+02  0.00000000000E+00 0. -1.
          1    1    1    2  502    0  0.53358078676E+02  0.45824458397E+02  0.39478884374E+03  0.40100523275E+03  0.00000000000E+00 0. -1.
         22    1    3    3    0    0 -0.82713965082E+02 -0.47170304313E+02  0.31856740387E+03  0.33249335097E+03  0.00000000000E+00 0.  1.
         22    1    3    3    0    0 -0.20282277307E+02 -0.20333333045E+02 -0.26928407089E+01  0.28845564591E+02  0.00000000000E+00 0.  1.
</event>
<event>
 7    1  0.1047417E-005  0.8915461E+02  0.7818608E-02  0.1407616E+00
          2   -1    0    0  502    0  0.00000000000E+00  0.00000000000E+00  0.21156864749E+04  0.21156864749E+04  0.00000000000E+00 0. -1.
          1   -1    0    0  501    0 -0.00000000000E+00 -0.00000000000E+00 -0.13852335737E+04  0.13852335737E+04  0.00000000000E+00 0. -1.
         25    2    1    2    0    0 -0.66974159600E+02 -0.82976084394E+02 -0.25943499922E+03  0.30708450267E+03  0.12499521721E+03 0.  0.
          2    1    1    2  501    0  0.29593955219E+02  0.83158561659E+02 -0.11000388755E+04  0.11035744996E+04  0.00000000000E+00 0. -1.
          1    1    1    2  502    0  0.37380204380E+02 -0.18247726480E+00  0.20899267759E+04  0.20902610463E+04  0.00000000000E+00 0. -1.
         22    1    3    3    0    0 -0.68762349636E+02 -0.36788251187E+02 -0.50063306653E+02  0.92671305300E+02  0.00000000000E+00 0.  1.
         22    1    3    3    0    0  0.17881900367E+01 -0.46187833207E+02 -0.20937169256E+03  0.21441319737E+03  0.00000000000E+00 0.  1.
</event>
<event>
 7    1  0.6273950E-006  0.6588321E+02  0.7818608E-02  0.1411702E+00
          2   -1    0    0  502    0  0.00000000000E+00  0.00000000000E+00  0.63230434239E+03  0.63230434239E+03  0.00000000000E+00 0. -1.
          1   -1    0    0  501    0 -0.00000000000E+00 -0.00000000000E+00 -0.15249442782E+03  0.15249442782E+03  0.00000000000E+00 0. -1.
         25    2    1    2    0    0 -0.58184694422E+02 -0.17184621598E+02 -0.66477696909E+02  0.15402764943E+03  0.12499785086E+03 0.  0.
          2    1    1    2  501    0  0.26651338875E+02 -0.41113554206E+02 -0.25445123490E+02  0.55209351678E+02  0.00000000000E+00 0. -1.
          1    1    1    2  502    0  0.31533355547E+02  0.58298175804E+02  0.57173273497E+03  0.57556176910E+03  0.00000000000E+00 0. -1.
         22    1    3    3    0    0  0.20547601624E+02  0.18794580296E+01  0.24619360575E+02  0.32122409781E+02  0.00000000000E+00 0. -1.
         22    1    3    3    0    0 -0.78732296046E+02 -0.19064079628E+02 -0.91097057484E+02  0.12190523965E+03  0.00000000000E+00 0. -1.
</event>
<event>
 7    1  0.6273950E-006  0.5693519E+02  0.7818608E-02  0.1535028E+00
          2   -1    0    0  502    0  0.00000000000E+00  0.00000000000E+00  0.23428973030E+03  0.23428973030E+03  0.00000000000E+00 0. -1.
          1   -1    0    0  501    0 -0.00000000000E+00 -0.00000000000E+00 -0.70133495345E+02  0.70133495345E+02  0.00000000000E+00 0. -1.
         25    2    1    2    0    0  0.69755238748E+02  0.30045715034E+02  0.80417870894E+02  0.16691278664E+03  0.12499722421E+03 0.  0.
          2    1    1    2  501    0 -0.23359726367E+02 -0.25448730390E+01 -0.12925516516E+02  0.26818317843E+02  0.00000000000E+00 0. -1.
          1    1    1    2  502    0 -0.46395512381E+02 -0.27500841995E+02  0.96663880580E+02  0.11069212117E+03  0.00000000000E+00 0. -1.
         22    1    3    3    0    0  0.15540809792E+02  0.69135620327E+02  0.13121532748E+02  0.72065424363E+02  0.00000000000E+00 0.  1.
         22    1    3    3    0    0  0.54214428956E+02 -0.39089905293E+02  0.67296338146E+02  0.94847362276E+02  0.00000000000E+00 0.  1.
</event>
<event>
 7    1  0.6273950E-006  0.4974047E+02  0.7818608E-02  0.1525361E+00
          2   -1    0    0  502    0  0.00000000000E+00  0.00000000000E+00  0.73961483357E+03  0.73961483357E+03  0.00000000000E+00 0. -1.
          1   -1    0    0  501    0 -0.00000000000E+00 -0.00000000000E+00 -0.51732260706E+03  0.51732260706E+03  0.00000000000E+00 0. -1.
         25    2    1    2    0    0 -0.13899255980E+02 -0.75932511569E+02  0.18659858834E+03  0.23749203551E+03  0.12499799251E+03 0.  0.
          2    1    1    2  501    0  0.46081889695E+01  0.28294705006E+02 -0.49034005527E+03  0.49117735650E+03  0.00000000000E+00 0. -1.
          1    1    1    2  502    0  0.92910670107E+01  0.47637806563E+02  0.52603369344E+03  0.52826804860E+03  0.00000000000E+00 0. -1.
         22    1    3    3    0    0 -0.29897746720E+02 -0.55696102766E+02  0.16341124472E+02  0.65291373636E+02  0.00000000000E+00 0.  1.
         22    1    3    3    0    0  0.15998490740E+02 -0.20236408803E+02  0.17025746387E+03  0.17220066188E+03  0.00000000000E+00 0.  1.
</event>
<event>
 7    1  0.6273950E-006  0.8139057E+02  0.7818608E-02  0.1339389E+00
          2   -1    0    0  502    0  0.00000000000E+00  0.00000000000E+00  0.50074740903E+03  0.50074740903E+03  0.00000000000E+00 0. -1.
          1   -1    0    0  501    0 -0.00000000000E+00 -0.00000000000E+00 -0.37414071370E+03  0.37414071370E+03  0.00000000000E+00 0. -1.
         25    2    1    2    0    0  0.94520080785E+02 -0.40732789902E+02  0.32479114560E+03  0.36292154448E+03  0.12501821205E+03 0.  0.
          2    1    1    2  501    0 -0.64060700924E+02 -0.32515586923E+02 -0.34106065866E+03  0.34854470256E+03  0.00000000000E+00 0. -1.
          1    1    1    2  502    0 -0.30459379861E+02  0.73248376825E+02  0.14287620839E+03  0.16342187569E+03  0.00000000000E+00 0. -1.
         22    1    3    3    0    0  0.31369170689E+02 -0.76801988639E+01  0.20034284559E+01  0.32357751001E+02  0.00000000000E+00 0.  1.
         22    1    3    3    0    0  0.63150910096E+02 -0.33052591038E+02  0.32278771715E+03  0.33056379348E+03  0.00000000000E+00 0.  1.
</event>
<event>
 7    1  0.6273950E-006  0.1073770E+03  0.7818608E-02  0.1285339E+00
          2   -1    0    0  502    0  0.00000000000E+00  0.00000000000E+00  0.30455209495E+04  0.30455209495E+04  0.00000000000E+00 0. -1.
          1   -1    0    0  501    0 -0.00000000000E+00 -0.00000000000E+00 -0.11700566933E+04  0.11700566933E+04  0.00000000000E+00 0. -1.
         25    2    1    2    0    0 -0.10484288203E+03 -0.22264327345E+02 -0.57109105580E+02  0.17429197329E+03  0.12501404652E+03 0.  0.
          2    1    1    2  501    0  0.53765137564E+02  0.94886132371E+02 -0.10508737619E+04  0.10565177384E+04  0.00000000000E+00 0. -1.
          1    1    1    2  502    0  0.51077744471E+02 -0.72621805026E+02  0.29834471237E+04  0.29847679311E+04  0.00000000000E+00 0. -1.
         22    1    3    3    0    0 -0.72079514597E+02 -0.34761936041E+02  0.25956255426E+02  0.84128329460E+02  0.00000000000E+00 0.  1.
         22    1    3    3    0    0 -0.32763367437E+02  0.12497608697E+02 -0.83065361006E+02  0.90163643826E+02  0.00000000000E+00 0.  1.
</event>
<event>
 7    1  0.6273950E-006  0.2257311E+03  0.7818608E-02  0.1258193E+00
          2   -1    0    0  502    0  0.00000000000E+00  0.00000000000E+00  0.82389460879E+03  0.82389460879E+03  0.00000000000E+00 0. -1.
          1   -1    0    0  501    0 -0.00000000000E+00 -0.00000000000E+00 -0.39989054858E+03  0.39989054858E+03  0.00000000000E+00 0. -1.
         25    2    1    2    0    0 -0.21736520185E+03  0.15055720158E+03  0.23421171534E+03  0.37469252774E+03  0.12499704324E+03 0.  0.
          2    1    1    2  501    0  0.31474466169E+02 -0.44947693425E+02 -0.30509951508E+03  0.30999459877E+03  0.00000000000E+00 0. -1.
          1    1    1    2  502    0  0.18589073568E+03 -0.10560950815E+03  0.49489185995E+03  0.53909803085E+03  0.00000000000E+00 0. -1.
         22    1    3    3    0    0 -0.10010555564E+03  0.70398922534E+01  0.12227057456E+03  0.15817956807E+03  0.00000000000E+00 0.  1.
         22    1    3    3    0    0 -0.11725964621E+03  0.14351730932E+03  0.11194114079E+03  0.21651295967E+03  0.00000000000E+00 0.  1.
</event>
<event>
 7    1  0.6273950E-006  0.7010161E+02  0.7818608E-02  0.1379567E+00
          2   -1    0    0  502    0  0.00000000000E+00  0.00000000000E+00  0.22284586845E+04  0.22284586845E+04  0.00000000000E+00 0. -1.
          1   -1    0    0  501    0 -0.00000000000E+00 -0.00000000000E+00 -0.10242462558E+02  0.10242462558E+02  0.00000000000E+00 0. -1.
         25    2    1    2    0    0  0.60708546258E+01 -0.20799455799E+02  0.54467477296E+03  0.55925338432E+03  0.12499706773E+03 0.  0.
          2    1    1    2  501    0 -0.10153971427E+01 -0.59480446304E+02  0.62460508286E+03  0.62743164095E+03  0.00000000000E+00 0. -1.
          1    1    1    2  502    0 -0.50554574832E+01  0.80279902103E+02  0.10489363661E+04  0.10520161218E+04  0.00000000000E+00 0. -1.
         22    1    3    3    0    0  0.23015323940E+02 -0.12686385631E+02  0.17121052899E+02  0.31365266918E+02  0.00000000000E+00 0.  1.
         22    1    3    3    0    0 -0.16944469314E+02 -0.81130701681E+01  0.52755372006E+03  0.52788811740E+03  0.00000000000E+00 0.  1.
</event>
<event>
 7    1  0.6273950E-006  0.9238792E+02  0.7818608E-02  0.1328237E+00
          2   -1    0    0  502    0  0.00000000000E+00  0.00000000000E+00  0.35135082221E+03  0.35135082221E+03  0.00000000000E+00 0. -1.
          1   -1    0    0  501    0 -0.00000000000E+00 -0.00000000000E+00 -0.51878795882E+03  0.51878795882E+03  0.00000000000E+00 0. -1.
         25    2    1    2    0    0  0.11081518831E+03 -0.10853773769E+02  0.28761461239E+03  0.33278109329E+03  0.12499312151E+03 0.  0.
          2    1    1    2  501    0 -0.57210793925E+02 -0.39939084883E+02 -0.45816310870E+03  0.46344540090E+03  0.00000000000E+00 0. -1.
          1    1    1    2  502    0 -0.53604394390E+02  0.50792858651E+02  0.31113597019E+01  0.73912286848E+02  0.00000000000E+00 0. -1.
         22    1    3    3    0    0  0.84910348729E+02 -0.63658091955E+02  0.21109002270E+03  0.23626493112E+03  0.00000000000E+00 0.  1.
         22    1    3    3    0    0  0.25904839586E+02  0.52804318186E+02  0.76524589683E+02  0.96516162166E+02  0.00000000000E+00 0.  1.
</event>
<event>
 7    1  0.6273950E-006  0.9086458E+02  0.7818608E-02  0.1333591E+00
          2   -1    0    0  502    0  0.00000000000E+00  0.00000000000E+00  0.11382150980E+03  0.11382150980E+03  0.00000000000E+00 0. -1.
          1   -1    0    0  501    0 -0.00000000000E+00 -0.00000000000E+00 -0.10590452795E+04  0.10590452795E+04  0.00000000000E+00 0. -1.
         25    2    1    2    0    0 -0.25303854246E+02 -0.14766872967E+03 -0.39179659210E+03  0.43770272594E+03  0.12503106796E+03 0.  0.
          2    1    1    2  501    0  0.25156965397E+02  0.79986254312E+02 -0.62850979996E+03  0.63407826208E+03  0.00000000000E+00 0. -1.
          1    1    1    2  502    0  0.14688884833E+00  0.67682475360E+02  0.75082622341E+02  0.10108580130E+03  0.00000000000E+00 0. -1.
         22    1    3    3    0    0  0.19861697581E+01 -0.28567252339E+02 -0.24517664724E+03  0.24684331291E+03  0.00000000000E+00 0.  1.
         22    1    3    3    0    0 -0.27290024004E+02 -0.11910147733E+03 -0.14661994486E+03  0.19085941303E+03  0.00000000000E+00 0.  1.
</event>
<event>
 7    1  0.6273950E-006  0.1004578E+03  0.7818608E-02  0.1333128E+00
          2   -1    0    0  502    0  0.00000000000E+00  0.00000000000E+00  0.11325665889E+04  0.11325665889E+04  0.00000000000E+00 0. -1.
          1   -1    0    0  501    0 -0.00000000000E+00 -0.00000000000E+00 -0.37991975459E+03  0.37991975459E+03  0.00000000000E+00 0. -1.
         25    2    1    2    0    0 -0.29366280198E+02  0.43285819366E+02  0.80641162639E+02  0.15768814653E+03  0.12500605534E+03 0.  0.
          2    1    1    2  501    0  0.14670723097E+02 -0.10297097223E+03 -0.33251289780E+03  0.34840074403E+03  0.00000000000E+00 0. -1.
          1    1    1    2  502    0  0.14695557101E+02  0.59685152864E+02  0.10045185695E+04  0.10063974529E+04  0.00000000000E+00 0. -1.
         22    1    3    3    0    0  0.47702914705E+00 -0.16888929236E+02 -0.26384777207E+02  0.31330814796E+02  0.00000000000E+00 0. -1.
         22    1    3    3    0    0 -0.29843309345E+02  0.60174748602E+02  0.10702593985E+03  0.12635733173E+03  0.00000000000E+00 0. -1.
</event>
<event>
 7    1  0.6273950E-006  0.1044755E+03  0.7818608E-02  0.1386983E+00
          2   -1    0    0  502    0  0.00000000000E+00  0.00000000000E+00  0.83911475016E+03  0.83911475016E+03  0.00000000000E+00 0. -1.
          1   -1    0    0  501    0 -0.00000000000E+00 -0.00000000000E+00 -0.84430512236E+02  0.84430512236E+02  0.00000000000E+00 0. -1.
         25    2    1    2    0    0  0.24481466097E+02  0.87630149107E+02  0.43578511928E+02  0.16064271809E+03  0.12501444301E+03 0.  0.
          2    1    1    2  501    0 -0.33135375099E+02  0.17738633412E+02 -0.59865837756E+01  0.38058525767E+02  0.00000000000E+00 0. -1.
          1    1    1    2  502    0  0.86539090018E+01 -0.10536878252E+03  0.71709230977E+03  0.72484401853E+03  0.00000000000E+00 0. -1.
         22    1    3    3    0    0 -0.10097910458E+02  0.79979428970E+02  0.77338932481E+02  0.11171386365E+03  0.00000000000E+00 0. -1.
         22    1    3    3    0    0  0.34579376555E+02  0.76507201375E+01 -0.33760420553E+02  0.48928854446E+02  0.00000000000E+00 0. -1.
</event>
<event>
 7    1  0.6273950E-006  0.8838931E+02  0.7818608E-02  0.1399734E+00
          2   -1    0    0  502    0  0.00000000000E+00  0.00000000000E+00  0.54701532384E+03  0.54701532384E+03  0.00000000000E+00 0. -1.
          1   -1    0    0  501    0 -0.00000000000E+00 -0.00000000000E+00 -0.19179900814E+04  0.19179900814E+04  0.00000000000E+00 0. -1.
         25    2    1    2    0    0 -0.10476331757E+03  0.34305769612E+02 -0.20598211558E+03  0.26496372800E+03  0.12499962670E+03 0.  0.
          2    1    1    2  501    0  0.69554988357E+02 -0.53538917847E+02 -0.16805926260E+04  0.16828832065E+04  0.00000000000E+00 0. -1.
          1    1    1    2  502    0  0.35208329218E+02  0.19233148235E+02  0.51559998398E+03  0.51715847080E+03  0.00000000000E+00 0. -1.
         22    1    3    3    0    0 -0.10301508015E+03  0.69656042295E+02 -0.12374423835E+03  0.17543291451E+03  0.00000000000E+00 0.  1.
         22    1    3    3    0    0 -0.17482374232E+01 -0.35350272683E+02 -0.82237877232E+02  0.89530813492E+02  0.00000000000E+00 0.  1.
</event>
<event>
 7    1  0.6273950E-006  0.1096573E+03  0.7818608E-02  0.1293247E+00
          2   -1    0    0  502    0  0.00000000000E+00  0.00000000000E+00  0.32596955996E+03  0.32596955996E+03  0.00000000000E+00 0. -1.
          1   -1    0    0  501    0 -0.00000000000E+00 -0.00000000000E+00 -0.50831929900E+03  0.50831929900E+03  0.00000000000E+00 0. -1.
         25    2    1    2    0    0  0.18213392833E+03  0.96079719586E+01  0.98754775742E+02  0.24216721834E+03  0.12500949936E+03 0.  0.
          2    1    1    2  501    0 -0.10337959729E+03 -0.27341633830E+02 -0.41894780613E+03  0.43237965995E+03  0.00000000000E+00 0. -1.
          1    1    1    2  502    0 -0.78754331045E+02  0.17733661871E+02  0.13784329135E+03  0.15974198068E+03  0.00000000000E+00 0. -1.
         22    1    3    3    0    0  0.10777858618E+03 -0.75798103638E+01 -0.10874424739E+02  0.10859065465E+03  0.00000000000E+00 0.  1.
         22    1    3    3    0    0  0.74355342153E+02  0.17187782322E+02  0.10962920048E+03  0.13357656369E+03  0.00000000000E+00 0.  1.
</event>
<event>
 7    1  0.6273950E-006  0.1435548E+03  0.7818608E-02  0.1256489E+00
          2   -1    0    0  502    0  0.00000000000E+00  0.00000000000E+00  0.82686000506E+03  0.82686000506E+03  0.00000000000E+00 0. -1.
          1   -1    0    0  501    0 -0.00000000000E+00 -0.00000000000E+00 -0.12123123530E+04  0.12123123530E+04  0.00000000000E+00 0. -1.
         25    2    1    2    0    0  0.23270892110E+02 -0.62845848267E+02  0.42419422905E+02  0.14803924649E+03  0.12500030400E+03 0.  0.
          2    1    1    2  501    0 -0.31108711682E+00  0.14753426419E+03 -0.11521507530E+04  0.11615583557E+04  0.00000000000E+00 0. -1.
          1    1    1    2  502    0 -0.22959804994E+02 -0.84688415925E+02  0.72427898218E+03  0.72957475591E+03  0.00000000000E+00 0. -1.
         22    1    3    3    0    0 -0.41977461916E+02 -0.95117410574E+01 -0.15538185282E+02  0.45760416614E+02  0.00000000000E+00 0.  1.
         22    1    3    3    0    0  0.65248354026E+02 -0.53334107210E+02  0.57957608187E+02  0.10227882988E+03  0.00000000000E+00 0.  1.
</event>
<event>
 7    1  0.6273950E-006  0.1122674E+03  0.7818608E-02  0.1351682E+00
          2   -1    0    0  502    0  0.00000000000E+00  0.00000000000E+00  0.21080674347E+04  0.21080674347E+04  0.00000000000E+00 0. -1.
          1   -1    0    0  501    0 -0.00000000000E+00 -0.00000000000E+00 -0.65181529744E+03  0.65181529744E+03  0.00000000000E+00 0. -1.
         25    2    1    2    0    0  0.17366181616E+02 -0.84997772685E+02 -0.86273611029E+02  0.17491084441E+03  0.12499784761E+03 0.  0.
          2    1    1    2  501    0  0.18363594644E+02  0.11532148691E+03 -0.51441232061E+03  0.52750004981E+03  0.00000000000E+00 0. -1.
          1    1    1    2  502    0 -0.35729776260E+02 -0.30323714228E+02  0.20569380689E+04  0.20574718379E+04  0.00000000000E+00 0. -1.
         22    1    3    3    0    0 -0.28058539937E+02 -0.67126013624E+02 -0.10049610307E+03  0.12406711933E+03  0.00000000000E+00 0.  1.
         22    1    3    3    0    0  0.45424721553E+02 -0.17871759061E+02  0.14222492037E+02  0.50843725078E+02  0.00000000000E+00 0.  1.
</event>
<event>
 7    1  0.6273950E-006  0.5830820E+02  0.7818608E-02  0.1460331E+00
          2   -1    0    0  502    0  0.00000000000E+00  0.00000000000E+00  0.13796939560E+02  0.13796939560E+02  0.00000000000E+00 0. -1.
          1   -1    0    0  501    0 -0.00000000000E+00 -0.00000000000E+00 -0.14220475340E+04  0.14220475340E+04  0.00000000000E+00 0. -1.
         25    2    1    2    0    0 -0.35837465104E+02 -0.58011822138E+02 -0.11529750892E+04  0.11617343442E+04  0.12500173893E+03 0.  0.
          2    1    1    2  501    0  0.38408393295E+02 -0.31489973988E+00 -0.13588200954E+03  0.14120631839E+03  0.00000000000E+00 0. -1.
          1    1    1    2  502    0 -0.25709281912E+01  0.58326721878E+02 -0.11939349567E+03  0.13290381095E+03  0.00000000000E+00 0. -1.
         22    1    3    3    0    0  0.15811602781E+01  0.37984855199E+02 -0.24498210995E+03  0.24791446809E+03  0.00000000000E+00 0.  1.
         22    1    3    3    0    0 -0.37418625382E+02 -0.95996677337E+02 -0.90799297924E+03  0.91381987609E+03  0.00000000000E+00 0.  1.
</event>
<event>
 7    1  0.6273950E-006  0.3372226E+02  0.7818608E-02  0.1609732E+00
          2   -1    0    0  502    0  0.00000000000E+00  0.00000000000E+00  0.26987201411E+03  0.26987201411E+03  0.00000000000E+00 0. -1.
          1   -1    0    0  501    0 -0.00000000000E+00 -0.00000000000E+00 -0.44934178435E+03  0.44934178435E+03  0.00000000000E+00 0. -1.
         25    2    1    2    0    0  0.54437931106E+01  0.42125522475E+02 -0.18523006689E+02  0.13331623328E+03  0.12500368695E+03 0.  0.
          2    1    1    2  501    0  0.17639415898E+02 -0.17562734817E+02 -0.37166641607E+03  0.37249902481E+03  0.00000000000E+00 0. -1.
          1    1    1    2  502    0 -0.23083209008E+02 -0.24562787658E+02  0.21071965252E+03  0.21339854037E+03  0.00000000000E+00 0. -1.
         22    1    3    3    0    0 -0.23599779744E+02  0.24366629643E+02  0.47889863629E+02  0.58686636320E+02  0.00000000000E+00 0.  1.
         22    1    3    3    0    0  0.29043572855E+02  0.17758892832E+02 -0.66412870317E+02  0.74629596961E+02  0.00000000000E+00 0.  1.
</event>
<event>
 7    1  0.6273950E-006  0.1100434E+03  0.7818608E-02  0.1362927E+00
          2   -1    0    0  502    0  0.00000000000E+00  0.00000000000E+00  0.16814204941E+03  0.16814204941E+03  0.00000000000E+00 0. -1.
          1   -1    0    0  501    0 -0.00000000000E+00 -0.00000000000E+00 -0.26551291420E+03  0.26551291420E+03  0.00000000000E+00 0. -1.
         25    2    1    2    0    0 -0.66076989197E+02 -0.61949179399E+02  0.42367725343E+02  0.16007601710E+03  0.12500175107E+03 0.  0.
          2    1    1    2  501    0 -0.24590909191E+02 -0.35860667346E+02 -0.13312414570E+03  0.14004548706E+03  0.00000000000E+00 0. -1.
          1    1    1    2  502    0  0.90667898388E+02  0.97809846744E+02 -0.66144444329E+01  0.13353345945E+03  0.00000000000E+00 0. -1.
         22    1    3    3    0    0  0.22247573998E+02 -0.33520943627E+02  0.53155492249E+02  0.66664192538E+02  0.00000000000E+00 0. -1.
         22    1    3    3    0    0 -0.88324563195E+02 -0.28428235771E+02 -0.10787766906E+02  0.93411824559E+02  0.00000000000E+00 0. -1.
</event>
<event>
 7    1  0.6273950E-006  0.6652139E+02  0.7818608E-02  0.1377181E+00
          2   -1    0    0  502    0  0.00000000000E+00  0.00000000000E+00  0.18649603069E+04  0.18649603069E+04  0.00000000000E+00 0. -1.
          1   -1    0    0  501    0 -0.00000000000E+00 -0.00000000000E+00 -0.10921365003E+03  0.10921365003E+03  0.00000000000E+00 0. -1.
         25    2    1    2    0    0  0.25274549580E+02  0.64038874628E+00  0.84747566728E+03  0.85701873885E+03  0.12500759643E+03 0.  0.
          2    1    1    2  501    0  0.40988286254E+02  0.49055746607E+02 -0.92787127362E+02  0.11267633686E+03  0.00000000000E+00 0. -1.
          1    1    1    2  502    0 -0.66262835834E+02 -0.49696135354E+02  0.10010581170E+04  0.10044788813E+04  0.00000000000E+00 0. -1.
         22    1    3    3    0    0  0.20258131137E+02  0.45741325686E+02  0.15110185645E+03  0.15916793577E+03  0.00000000000E+00 0. -1.
         22    1    3    3    0    0  0.50164184431E+01 -0.45100936940E+02  0.69637381082E+03  0.69785080308E+03  0.00000000000E+00 0. -1.
</event>
<event>
 7    1  0.8829974E-006  0.4034753E+02  0.7818608E-02  0.1533647E+00
          2   -1    0    0  502    0  0.00000000000E+00  0.00000000000E+00  0.12529698513E+04  0.12529698513E+04  0.00000000000E+00 0. -1.
          1   -1    0    0  501    0 -0.00000000000E+00 -0.00000000000E+00 -0.10678224794E+04  0.10678224794E+04  0.00000000000E+00 0. -1.
         25    2    1    2    0    0 -0.49590823948E+01 -0.80924050445E+01 -0.30209810242E+03  0.32707632527E+03  0.12500231818E+03 0.  0.
          2    1    1    2  501    0  0.97708277551E+01 -0.32001814009E+02 -0.75253477003E+03  0.75327827878E+03  0.00000000000E+00 0. -1.
          1    1    1    2  502    0 -0.48117453603E+01  0.40094219053E+02  0.12397802444E+04  0.12404377266E+04  0.00000000000E+00 0. -1.
         22    1    3    3    0    0 -0.63619740827E+02 -0.16141095273E+02 -0.17356856219E+03  0.18556414568E+03  0.00000000000E+00 0. -1.
         22    1    3    3    0    0  0.58660658433E+02  0.80486902286E+01 -0.12852954023E+03  0.14151217960E+03  0.00000000000E+00 0. -1.
</event>
<event>
 7    1  0.6273950E-006  0.1234283E+03  0.7818608E-02  0.1270041E+00
          2   -1    0    0  502    0  0.00000000000E+00  0.00000000000E+00  0.20933625440E+04  0.20933625440E+04  0.00000000000E+00 0. -1.
          1   -1    0    0  501    0 -0.00000000000E+00 -0.00000000000E+00 -0.25588230698E+03  0.25588230698E+03  0.00000000000E+00 0. -1.
         25    2    1    2    0    0  0.51288461199E+02  0.10429520328E+03  0.10700807178E+04  0.10836078837E+04  0.12500122880E+03 0.  0.
          2    1    1    2  501    0  0.76850239510E+02 -0.45660065567E+02 -0.23601462533E+03  0.25237611668E+03  0.00000000000E+00 0. -1.
          1    1    1    2  502    0 -0.12813870071E+03 -0.58635137711E+02  0.10034141445E+04  0.10132608506E+04  0.00000000000E+00 0. -1.
         22    1    3    3    0    0 -0.40811946524E+02  0.20802081711E+02  0.25066635853E+03  0.25481751290E+03  0.00000000000E+00 0. -1.
         22    1    3    3    0    0  0.92100407723E+02  0.83493121567E+02  0.81941435930E+03  0.82879037076E+03  0.00000000000E+00 0. -1.
</event>
<event>
 7    1  0.6273950E-006  0.8343700E+02  0.7818608E-02  0.1480229E+00
          2   -1    0    0  502    0  0.00000000000E+00  0.00000000000E+00  0.10808300000E+04  0.10808300000E+04  0.00000000000E+00 0. -1.
          1   -1    0    0  501    0 -0.00000000000E+00 -0.00000000000E+00 -0.24429023294E+03  0.24429023294E+03  0.00000000000E+00 0. -1.
         25    2    1    2    0    0  0.35396480691E+02  0.67804530077E+02 -0.73023858482E+00  0.14654328741E+03  0.12499614672E+03 0.  0.
          2    1    1    2  501    0  0.22171746386E+02 -0.70891965321E+01 -0.16811378934E+03  0.16971767501E+03  0.00000000000E+00 0. -1.
          1    1    1    2  502    0 -0.57568227077E+02 -0.60715333545E+02  0.10053837949E+04  0.10088592705E+04  0.00000000000E+00 0. -1.
         22    1    3    3    0    0 -0.33481624660E+02  0.75443239755E+01  0.34326286361E+02  0.48541013066E+02  0.00000000000E+00 0.  1.
         22    1    3    3    0    0  0.68878105351E+02  0.60260206102E+02 -0.35056524946E+02  0.98002274349E+02  0.00000000000E+00 0.  1.
</event>
<event>
 7    1  0.6273950E-006  0.5317531E+02  0.7818608E-02  0.1482646E+00
          2   -1    0    0  502    0  0.00000000000E+00  0.00000000000E+00  0.24269044101E+04  0.24269044101E+04  0.00000000000E+00 0. -1.
          1   -1    0    0  501    0 -0.00000000000E+00 -0.00000000000E+00 -0.17783053567E+03  0.17783053567E+03  0.00000000000E+00 0. -1.
         25    2    1    2    0    0 -0.85415092741E+02 -0.24476200905E+02  0.74120333456E+02  0.17033420339E+03  0.12500037813E+03 0.  0.
          2    1    1    2  501    0  0.34398577395E+02  0.10299851733E+02 -0.12692849923E+03  0.13190979110E+03  0.00000000000E+00 0. -1.
          1    1    1    2  502    0  0.51016515345E+02  0.14176349172E+02  0.23018820402E+04  0.23024909513E+04  0.00000000000E+00 0. -1.
         22    1    3    3    0    0 -0.96040117666E+02  0.27824891770E+02  0.48831403745E+02  0.11127638921E+03  0.00000000000E+00 0.  1.
         22    1    3    3    0    0  0.10625024925E+02 -0.52301092676E+02  0.25288929712E+02  0.59057814180E+02  0.00000000000E+00 0.  1.
</event>
<event>
 7    1  0.6273950E-006  0.1315301E+03  0.7818608E-02  0.1283209E+00
          2   -1    0    0  502    0  0.00000000000E+00  0.00000000000E+00  0.27279351019E+04  0.27279351019E+04  0.00000000000E+00 0. -1.
          1   -1    0    0  501    0 -0.00000000000E+00 -0.00000000000E+00 -0.32193315211E+03  0.32193315211E+03  0.00000000000E+00 0. -1.
         25    2    1    2    0    0 -0.18309009350E+03  0.59562945141E+02  0.63879548661E+03  0.67878874474E+03  0.12499903800E+03 0.  0.
          2    1    1    2  501    0  0.13010841104E+03 -0.79652533533E+01 -0.28717120344E+03  0.31537112101E+03  0.00000000000E+00 0. -1.
          1    1    1    2  502    0  0.52981682462E+02 -0.51597691788E+02  0.20543776666E+04  0.20557083883E+04  0.00000000000E+00 0. -1.
         22    1    3    3    0    0  0.15372077027E+02  0.53555628558E+01  0.15731910040E+02  0.22637928331E+02  0.00000000000E+00 0. -1.
         22    1    3    3    0    0 -0.19846217053E+03  0.54207382285E+02  0.62306357657E+03  0.65615081640E+03  0.00000000000E+00 0. -1.
</event>
<event>
 7    1  0.8017400E-006  0.7382287E+02  0.7818608E-02  0.1353168E+00
          2   -1    0    0  502    0  0.00000000000E+00  0.00000000000E+00  0.49817924426E+03  0.49817924426E+03  0.00000000000E+00 0. -1.
          1   -1    0    0  501    0 -0.00000000000E+00 -0.00000000000E+00 -0.22902998778E+04  0.22902998778E+04  0.00000000000E+00 0. -1.
         25    2    1    2    0    0 -0.59317141148E+02 -0.68280194940E+02 -0.99635304415E+03  0.10082297743E+04  0.12500872337E+03 0.  0.
          2    1    1    2  501    0  0.75627692744E+02 -0.17654894331E+00 -0.12843752239E+04  0.12865998969E+04  0.00000000000E+00 0. -1.
          1    1    1    2  502    0 -0.16310551596E+02  0.68456743884E+02  0.48860763447E+03  0.49364945086E+03  0.00000000000E+00 0. -1.
         22    1    3    3    0    0 -0.24271018511E+02 -0.55730010818E+02 -0.93127881555E+03  0.93326049350E+03  0.00000000000E+00 0. -1.
         22    1    3    3    0    0 -0.35046122637E+02 -0.12550184122E+02 -0.65074228606E+02  0.74969280789E+02  0.00000000000E+00 0. -1.
</event>
<event>
 7    1  0.6273950E-006  0.9709242E+02  0.7818608E-02  0.1345710E+00
          2   -1    0    0  502    0  0.00000000000E+00  0.00000000000E+00  0.86009928662E+03  0.86009928662E+03  0.00000000000E+00 0. -1.
          1   -1    0    0  501    0 -0.00000000000E+00 -0.00000000000E+00 -0.38017805981E+03  0.38017805981E+03  0.00000000000E+00 0. -1.
         25    2    1    2    0    0 -0.10313697283E+03  0.76521268294E+02  0.11761643863E+03  0.21436241830E+03  0.12499952031E+03 0.  0.
          2    1    1    2  501    0  0.56587313642E+02  0.70551212339E+01 -0.32602217753E+03  0.33097184026E+03  0.00000000000E+00 0. -1.
          1    1    1    2  502    0  0.46549659184E+02 -0.83576389527E+02  0.68832696571E+03  0.69494308787E+03  0.00000000000E+00 0. -1.
         22    1    3    3    0    0  0.24596872374E+02  0.37872778880E+02  0.37570423924E+02  0.58744278568E+02  0.00000000000E+00 0.  1.
         22    1    3    3    0    0 -0.12773384520E+03  0.38648489414E+02  0.80046014701E+02  0.15561813973E+03  0.00000000000E+00 0.  1.
</event>
<event>
 7    1  0.6273950E-006  0.5238472E+02  0.7818608E-02  0.1447022E+00
          2   -1    0    0  502    0  0.00000000000E+00  0.00000000000E+00  0.23712440099E+04  0.23712440099E+04  0.00000000000E+00 0. -1.
          1   -1    0    0  501    0 -0.00000000000E+00 -0.00000000000E+00 -0.12984091847E+03  0.12984091847E+03  0.00000000000E+00 0. -1.
         25    2    1    2    0    0 -0.23583568019E+02  0.12901341178E+02  0.52212856160E+03  0.53755594295E+03  0.12500211071E+03 0.  0.
          2    1    1    2  501    0 -0.22878344216E+02 -0.41208521720E+02 -0.11716167349E+03  0.12628704855E+03  0.00000000000E+00 0. -1.
          1    1    1    2  502    0  0.46461912235E+02  0.28307180543E+02  0.18364362033E+04  0.18372419368E+04  0.00000000000E+00 0. -1.
         22    1    3    3    0    0 -0.60058169768E+02 -0.28402581699E+02  0.19992466963E+03  0.21067407037E+03  0.00000000000E+00 0.  1.
         22    1    3    3    0    0  0.36474601749E+02  0.41303922876E+02  0.32220389197E+03  0.32688187258E+03  0.00000000000E+00 0.  1.
</event>
<event>
 7    1  0.6273950E-006  0.1146547E+03  0.7818608E-02  0.1370773E+00
          2   -1    0    0  502    0  0.00000000000E+00  0.00000000000E+00  0.15755015097E+04  0.15755015097E+04  0.00000000000E+00 0. -1.
          1   -1    0    0  501    0 -0.00000000000E+00 -0.00000000000E+00 -0.84322742525E+03  0.84322742525E+03  0.00000000000E+00 0. -1.
         25    2    1    2    0    0 -0.56833379160E+02  0.87415435335E+02 -0.56779148301E+02  0.17239594244E+03  0.12499999187E+03 0.  0.
          2    1    1    2  501    0  0.27041243131E+02 -0.11273376259E+03 -0.72377434236E+03  0.73300029244E+03  0.00000000000E+00 0. -1.
          1    1    1    2  502    0  0.29792136029E+02  0.25318327257E+02  0.15128275751E+04  0.15133327001E+04  0.00000000000E+00 0. -1.
         22    1    3    3    0    0 -0.46071269836E+02  0.55538386702E+02  0.30889100525E+02  0.78493380823E+02  0.00000000000E+00 0. -1.
         22    1    3    3    0    0 -0.10762109324E+02  0.31877048633E+02 -0.87668248827E+02  0.93902561621E+02  0.00000000000E+00 0. -1.
</event>
<event>
 7    1  0.6273950E-006  0.1072142E+03  0.7818608E-02  0.1357533E+00
          2   -1    0    0  502    0  0.00000000000E+00  0.00000000000E+00  0.67552050222E+03  0.67552050222E+03  0.00000000000E+00 0. -1.
          1   -1    0    0  501    0 -0.00000000000E+00 -0.00000000000E+00 -0.66956829412E+03  0.66956829412E+03  0.00000000000E+00 0. -1.
         25    2    1    2    0    0  0.13578112821E+03  0.54760728825E+02  0.19958416330E+02  0.19356049150E+03  0.12502828994E+03 0.  0.
          2    1    1    2  501    0 -0.89117744832E+02 -0.56574773685E+02 -0.57701254621E+03  0.58658857468E+03  0.00000000000E+00 0. -1.
          1    1    1    2  502    0 -0.46663383383E+02  0.18140448606E+01  0.56300633798E+03  0.56493973016E+03  0.00000000000E+00 0. -1.
         22    1    3    3    0    0  0.18080395734E+02 -0.18191894901E+02 -0.36002728219E+02  0.44204549418E+02  0.00000000000E+00 0. -1.
         22    1    3    3    0    0  0.11770073248E+03  0.72952623726E+02  0.55961144549E+02  0.14935594208E+03  0.00000000000E+00 0. -1.
</event>
<event>
 7    1  0.6273950E-006  0.8972642E+02  0.7818608E-02  0.1326093E+00
          2   -1    0    0  502    0  0.00000000000E+00  0.00000000000E+00  0.10193631653E+04  0.10193631653E+04  0.00000000000E+00 0. -1.
          1   -1    0    0  501    0 -0.00000000000E+00 -0.00000000000E+00 -0.23846088719E+03  0.23846088719E+03  0.00000000000E+00 0. -1.
         25    2    1    2    0    0  0.12916451864E+03  0.76480017838E+02  0.91139813149E+02  0.21555566033E+03  0.12500044461E+03 0.  0.
          2    1    1    2  501    0 -0.56942666260E+02 -0.64457510410E+02 -0.16409988405E+03  0.18527279842E+03  0.00000000000E+00 0. -1.
          1    1    1    2  502    0 -0.72221852384E+02 -0.12022507428E+02  0.85386234897E+03  0.85699559371E+03  0.00000000000E+00 0. -1.
         22    1    3    3    0    0  0.83337323963E+02  0.77805585705E+02  0.11663026309E+03  0.16309946965E+03  0.00000000000E+00 0. -1.
         22    1    3    3    0    0  0.45827194682E+02 -0.13255678668E+01 -0.25490449938E+02  0.52456190679E+02  0.00000000000E+00 0. -1.
</event>
<event>
 7    1  0.6273950E-006  0.1234393E+03  0.7818608E-02  0.1267618E+00
          2   -1    0    0  502    0  0.00000000000E+00  0.00000000000E+00  0.17464186341E+04  0.17464186341E+04  0.00000000000E+00 0. -1.
          1   -1    0    0  501    0 -0.00000000000E+00 -0.00000000000E+00 -0.12373694085E+04  0.12373694085E+04  0.00000000000E+00 0. -1.
         25    2    1    2    0    0 -0.13973833298E+03 -0.15175437985E+03 -0.76590405301E+02  0.25307269947E+03  0.12499402995E+03 0.  0.
          2    1    1    2  501    0  0.97591420381E+02  0.70532622654E+02 -0.10678892673E+04  0.10746564211E+04  0.00000000000E+00 0. -1.
          1    1    1    2  502    0  0.42146912602E+02  0.81221757199E+02  0.16535288982E+04  0.16560589221E+04  0.00000000000E+00 0. -1.
         22    1    3    3    0    0 -0.13967627111E+03 -0.15007072769E+03 -0.10104341976E+03  0.22856171310E+03  0.00000000000E+00 0.  1.
         22    1    3    3    0    0 -0.62061875004E-01 -0.16836521609E+01  0.24453014460E+02  0.24510986362E+02  0.00000000000E+00 0.  1.
</event>
<event>
 7    1  0.6273950E-006  0.7568896E+02  0.7818608E-02  0.1472110E+00
          2   -1    0    0  502    0  0.00000000000E+00  0.00000000000E+00  0.38226405183E+03  0.38226405183E+03  0.00000000000E+00 0. -1.
          1   -1    0    0  501    0 -0.00000000000E+00 -0.00000000000E+00 -0.17064655668E+04  0.17064655668E+04  0.00000000000E+00 0. -1.
         25    2    1    2    0    0 -0.18771408774E+02 -0.10607314348E+02  0.35199619921E+03  0.37415318562E+03  0.12499760458E+03 0.  0.
          2    1    1    2  501    0 -0.75675416000E+02 -0.14316425451E+01 -0.15704854747E+04  0.15723083172E+04  0.00000000000E+00 0. -1.
          1    1    1    2  502    0  0.94446824774E+02  0.12038956894E+02 -0.10571223948E+03  0.14226811578E+03  0.00000000000E+00 0. -1.
         22    1    3    3    0    0 -0.24821427859E+02  0.54209843954E+02  0.20257371053E+03  0.21116561903E+03  0.00000000000E+00 0.  1.
         22    1    3    3    0    0  0.60500190849E+01 -0.64817158302E+02  0.14942248868E+03  0.16298756659E+03  0.00000000000E+00 0.  1.
</event>
<event>
 7    1  0.6273950E-006  0.4514087E+02  0.7818608E-02  0.1533362E+00
          2   -1    0    0  502    0  0.00000000000E+00  0.00000000000E+00  0.59059690486E+03  0.59059690486E+03  0.00000000000E+00 0. -1.
          1   -1    0    0  501    0 -0.00000000000E+00 -0.00000000000E+00 -0.32968163818E+02  0.32968163818E+02  0.00000000000E+00 0. -1.
         25    2    1    2    0    0 -0.37570824533E+02  0.55244418466E+02  0.24710377305E+03  0.28486754817E+03  0.12500293085E+03 0.  0.
          2    1    1    2  501    0  0.34341541239E+02 -0.25455712657E+02  0.21001478625E+02  0.47627690118E+02  0.00000000000E+00 0. -1.
          1    1    1    2  502    0  0.32292832943E+01 -0.29788705809E+02  0.28952348937E+03  0.29106983039E+03  0.00000000000E+00 0. -1.
         22    1    3    3    0    0 -0.31082596248E+02 -0.36774736480E+02  0.10403163762E+03  0.11463459625E+03  0.00000000000E+00 0.  1.
         22    1    3    3    0    0 -0.64882282856E+01  0.92019154946E+02  0.14307213543E+03  0.17023295192E+03  0.00000000000E+00 0.  1.
</event>
<event>
 7    1  0.6273950E-006  0.4770260E+02  0.7818608E-02  0.1517571E+00
          2   -1    0    0  502    0  0.00000000000E+00  0.00000000000E+00  0.19560530830E+03  0.19560530830E+03  0.00000000000E+00 0. -1.
          1   -1    0    0  501    0 -0.00000000000E+00 -0.00000000000E+00 -0.17757106519E+04  0.17757106519E+04  0.00000000000E+00 0. -1.
         25    2    1    2    0    0 -0.30332710613E+02  0.12899191225E+02 -0.68685822807E+02  0.14638080432E+03  0.12499254038E+03 0.  0.
          2    1    1    2  501    0  0.45614954358E+02  0.14630736588E+02 -0.16662484545E+04  0.16669369198E+04  0.00000000000E+00 0. -1.
          1    1    1    2  502    0 -0.15282243746E+02 -0.27529927813E+02  0.15482893369E+03  0.15799823609E+03  0.00000000000E+00 0. -1.
         22    1    3    3    0    0 -0.55604961719E+01  0.59838622627E+01  0.36856024669E+02  0.37750394431E+02  0.00000000000E+00 0. -1.
         22    1    3    3    0    0 -0.24772214441E+02  0.69153289624E+01 -0.10554184748E+03  0.10863040988E+03  0.00000000000E+00 0. -1.
</event>
<event>
 7    1  0.6273950E-006  0.8305800E+02  0.7818608E-02  0.1471320E+00
          2   -1    0    0  502    0  0.00000000000E+00  0.00000000000E+00  0.12574744819E+04  0.12574744819E+04  0.00000000000E+00 0. -1.
          1   -1    0    0  501    0 -0.00000000000E+00 -0.00000000000E+00 -0.35757410935E+03  0.35757410935E+03  0.00000000000E+00 0. -1.
         25    2    1    2    0    0 -0.58141214596E+02  0.13445065899E+02  0.16192123141E+03  0.21309276840E+03  0.12501548757E+03 0.  0.
          2    1    1    2  501    0 -0.24328603871E+02  0.53592203375E+01 -0.32984615314E+03  0.33078556037E+03  0.00000000000E+00 0. -1.
          1    1    1    2  502    0  0.82469818467E+02 -0.18804286236E+02  0.10678252942E+04  0.10711702624E+04  0.00000000000E+00 0. -1.
         22    1    3    3    0    0 -0.40458607190E+02  0.54055260523E+02  0.29907553224E+02  0.73846677826E+02  0.00000000000E+00 0. -1.
         22    1    3    3    0    0 -0.17682607406E+02 -0.40610194625E+02  0.13201367819E+03  0.13924609058E+03  0.00000000000E+00 0. -1.
</event>
<event>
 7    1  0.6273950E-006  0.7644459E+02  0.7818608E-02  0.1509424E+00
          2   -1    0    0  502    0  0.00000000000E+00  0.00000000000E+00  0.76488171349E+03  0.76488171349E+03  0.00000000000E+00 0. -1.
          1   -1    0    0  501    0 -0.00000000000E+00 -0.00000000000E+00 -0.12042331601E+03  0.12042331601E+03  0.00000000000E+00 0. -1.
         25    2    1    2    0    0 -0.46528916925E+02  0.72570512802E+02  0.69261685840E+02  0.16689393026E+03  0.12499993358E+03 0.  0.
          2    1    1    2  501    0 -0.77585184473E+01 -0.19254240152E+02 -0.67810863657E+02  0.70917089635E+02  0.00000000000E+00 0. -1.
          1    1    1    2  502    0  0.54287435373E+02 -0.53316272650E+02  0.64300757530E+03  0.64749400960E+03  0.00000000000E+00 0. -1.
         22    1    3    3    0    0  0.34760051617E+02  0.13277393237E+02  0.53324683174E+02  0.65023627976E+02  0.00000000000E+00 0. -1.
         22    1    3    3    0    0 -0.81288968542E+02  0.59293119565E+02  0.15937002666E+02  0.10187030229E+03  0.00000000000E+00 0. -1.
</event>
<event>
 7    1  0.6273950E-006  0.5493644E+02  0.7818608E-02  0.1484855E+00
          2   -1    0    0  502    0  0.00000000000E+00  0.00000000000E+00  0.12370172864E+03  0.12370172864E+03  0.00000000000E+00 0. -1.
          1   -1    0    0  501    0 -0.00000000000E+00 -0.00000000000E+00 -0.50272220315E+03  0.50272220315E+03  0.00000000000E+00 0. -1.
         25    2    1    2    0    0  0.28895950687E+02 -0.66981053736E+01  0.14080224956E+02  0.12924230630E+03  0.12500192167E+03 0.  0.
          2    1    1    2  501    0  0.34180905179E+02 -0.16588083545E+01 -0.42474340891E+03  0.42611975939E+03  0.00000000000E+00 0. -1.
          1    1    1    2  502    0 -0.63076855866E+02  0.83569137281E+01  0.31642709447E+02  0.71061866103E+02  0.00000000000E+00 0. -1.
         22    1    3    3    0    0 -0.71095753111E+01  0.52065730627E+02  0.27070080208E+02  0.59111552249E+02  0.00000000000E+00 0. -1.
         22    1    3    3    0    0  0.36005525998E+02 -0.58763836001E+02 -0.12989855252E+02  0.70130754048E+02  0.00000000000E+00 0. -1.
</event>
<event>
 7    1  0.6273950E-006  0.5120657E+02  0.7818608E-02  0.1492914E+00
          2   -1    0    0  502    0  0.00000000000E+00  0.00000000000E+00  0.53209434232E+03  0.53209434232E+03  0.00000000000E+00 0. -1.
          1   -1    0    0  501    0 -0.00000000000E+00 -0.00000000000E+00 -0.28854162010E+03  0.28854162010E+03  0.00000000000E+00 0. -1.
         25    2    1    2    0    0 -0.35399122747E+02 -0.84400866167E+01  0.18325293992E+03  0.22479080182E+03  0.12499972656E+03 0.  0.
          2    1    1    2  501    0  0.29010523231E+02  0.42553534412E+02 -0.26436284066E+03  0.26933274081E+03  0.00000000000E+00 0. -1.
          1    1    1    2  502    0  0.63885995160E+01 -0.34113447795E+02  0.32466262297E+03  0.32651241979E+03  0.00000000000E+00 0. -1.
         22    1    3    3    0    0  0.14895305524E+02 -0.40388968409E+02  0.13860458152E+02  0.45224453518E+02  0.00000000000E+00 0.  1.
         22    1    3    3    0    0 -0.50294428272E+02  0.31948881792E+02  0.16939248177E+03  0.17956634830E+03  0.00000000000E+00 0.  1.
</event>
<event>
 7    1  0.6273950E-006  0.8843665E+02  0.7818608E-02  0.1376812E+00
          2   -1    0    0  502    0  0.00000000000E+00  0.00000000000E+00  0.89613976035E+03  0.89613976035E+03  0.00000000000E+00 0. -1.
          1   -1    0    0  501    0 -0.00000000000E+00 -0.00000000000E+00 -0.54373982308E+03  0.54373982308E+03  0.00000000000E+00 0. -1.
         25    2    1    2    0    0  0.46639775187E+02 -0.55450139213E+01  0.74303725466E+02  0.15281440976E+03  0.12500073761E+03 0.  0.
          2    1    1    2  501    0 -0.87858769152E+02 -0.19497547634E+02 -0.49971793495E+03  0.50775715868E+03  0.00000000000E+00 0. -1.
          1    1    1    2  502    0  0.41218993965E+02  0.25042561555E+02  0.77781414675E+03  0.77930801499E+03  0.00000000000E+00 0. -1.
         22    1    3    3    0    0  0.55476590331E+02 -0.55908157510E+02  0.61963115341E+02  0.10021378056E+03  0.00000000000E+00 0.  1.
         22    1    3    3    0    0 -0.88368151439E+01  0.50363143588E+02  0.12340610125E+02  0.52600629200E+02  0.00000000000E+00 0.  1.
</event>
<event>
 7    1  0.6273950E-006  0.1259767E+03  0.7818608E-02  0.1345479E+00
          2   -1    0    0  502    0  0.00000000000E+00  0.00000000000E+00  0.61283779758E+03  0.61283779758E+03  0.00000000000E+00 0. -1.
          1   -1    0    0  501    0 -0.00000000000E+00 -0.00000000000E+00 -0.43564646966E+03  0.43564646966E+03  0.00000000000E+00 0. -1.
         25    2    1    2    0    0  0.91206923335E+02  0.38649228706E+02  0.85107532150E+02  0.18077699717E+03  0.12499825973E+03 0.  0.
          2    1    1    2  501    0 -0.98860129435E+02 -0.82016981549E+02 -0.37611339427E+03  0.39744357562E+03  0.00000000000E+00 0. -1.
          1    1    1    2  502    0  0.76532060995E+01  0.43367752844E+02  0.46819719004E+03  0.47026369445E+03  0.00000000000E+00 0. -1.
         22    1    3    3    0    0 -0.52226517570E+01  0.46122631640E+02  0.68343728127E+02  0.82616211576E+02  0.00000000000E+00 0.  1.
         22    1    3    3    0    0  0.96429575092E+02 -0.74734029346E+01  0.16763804023E+02  0.98160785598E+02  0.00000000000E+00 0.  1.
</event>
<event>
 7    1  0.6273950E-006  0.9543114E+02  0.7818608E-02  0.1292694E+00
          2   -1    0    0  502    0  0.00000000000E+00  0.00000000000E+00  0.49794871834E+03  0.49794871834E+03  0.00000000000E+00 0. -1.
          1   -1    0    0  501    0 -0.00000000000E+00 -0.00000000000E+00 -0.15082033525E+04  0.15082033525E+04  0.00000000000E+00 0. -1.
         25    2    1    2    0    0  0.88217443955E+02 -0.17076946306E+02  0.25300408682E+03  0.29615845633E+03  0.12499929518E+03 0.  0.
          2    1    1    2  501    0 -0.62455158190E+02 -0.72533581706E+02 -0.14752768998E+04  0.14783787398E+04  0.00000000000E+00 0. -1.
          1    1    1    2  502    0 -0.25762285766E+02  0.89610528013E+02  0.21201817874E+03  0.23161487477E+03  0.00000000000E+00 0. -1.
         22    1    3    3    0    0  0.45602146094E+02 -0.22025671111E+01  0.24633706716E+03  0.25053214901E+03  0.00000000000E+00 0. -1.
         22    1    3    3    0    0  0.42615297861E+02 -0.14874379195E+02  0.66670196567E+01  0.45626307317E+02  0.00000000000E+00 0. -1.
</event>
<event>
 7    1  0.6273950E-006  0.7082395E+02  0.7818608E-02  0.1370963E+00
          2   -1    0    0  502    0  0.00000000000E+00  0.00000000000E+00  0.26011623619E+04  0.26011623619E+04  0.00000000000E+00 0. -1.
          1   -1    0    0  501    0 -0.00000000000E+00 -0.00000000000E+00 -0.52912898538E+02  0.52912898538E+02  0.00000000000E+00 0. -1.
         25    2    1    2    0    0  0.28687312307E+02  0.18511022526E+02  0.12522279974E+03  0.18019824167E+03  0.12500014754E+03 0.  0.
          2    1    1    2  501    0  0.34368225184E+02 -0.53030784033E+02  0.15224146579E+02  0.65001643029E+02  0.00000000000E+00 0. -1.
          1    1    1    2  502    0 -0.63055537491E+02  0.34519761507E+02  0.24078025171E+04  0.24088753758E+04  0.00000000000E+00 0. -1.
         22    1    3    3    0    0 -0.49115467588E+02  0.14904212740E+02  0.43196426262E+02  0.67084990539E+02  0.00000000000E+00 0.  1.
         22    1    3    3    0    0  0.77802779895E+02  0.36068097864E+01  0.82026373477E+02  0.11311325113E+03  0.00000000000E+00 0.  1.
</event>
<event>
 7    1  0.6273950E-006  0.9113410E+02  0.7818608E-02  0.1344368E+00
          2   -1    0    0  502    0  0.00000000000E+00  0.00000000000E+00  0.28078671121E+04  0.28078671121E+04  0.00000000000E+00 0. -1.
          1   -1    0    0  501    0 -0.00000000000E+00 -0.00000000000E+00 -0.15466273940E+02  0.15466273940E+02  0.00000000000E+00 0. -1.
         25    2    1    2    0    0 -0.89867226007E+02 -0.31991161863E+02  0.13645432505E+04  0.13735728285E+04  0.12499791970E+03 0.  0.
          2    1    1    2  501    0  0.88451347194E+02 -0.29451526623E+02  0.20323483324E+03  0.22359658021E+03  0.00000000000E+00 0. -1.
          1    1    1    2  502    0  0.14158788138E+01  0.61442688486E+02  0.12246227544E+04  0.12261639774E+04  0.00000000000E+00 0. -1.
         22    1    3    3    0    0  0.10296664584E+02 -0.14780472390E+02  0.78357902647E+03  0.78378605141E+03  0.00000000000E+00 0.  1.
         22    1    3    3    0    0 -0.10016389059E+03 -0.17210689473E+02  0.58096422404E+03  0.58978677709E+03  0.00000000000E+00 0.  1.
</event>
<event>
 7    1  0.6273950E-006  0.8413924E+02  0.7818608E-02  0.1350928E+00
          2   -1    0    0  502    0  0.00000000000E+00  0.00000000000E+00  0.80937473891E+02  0.80937473891E+02  0.00000000000E+00 0. -1.
          1   -1    0    0  501    0 -0.00000000000E+00 -0.00000000000E+00 -0.25095978582E+04  0.25095978582E+04  0.00000000000E+00 0. -1.
         25    2    1    2    0    0 -0.51343682608E+02 -0.76347658551E+02 -0.16089517103E+03  0.22356199865E+03  0.12501028946E+03 0.  0.
          2    1    1    2  501    0  0.62237376681E+02 -0.93257993680E+01 -0.22790120856E+04  0.22798808188E+04  0.00000000000E+00 0. -1.
          1    1    1    2  502    0 -0.10893694072E+02  0.85673457919E+02  0.11246872363E+02  0.87092514606E+02  0.00000000000E+00 0. -1.
         22    1    3    3    0    0 -0.27385386668E+02 -0.49518757764E+02  0.21191814036E+01  0.56626475286E+02  0.00000000000E+00 0.  1.
         22    1    3    3    0    0 -0.23958295940E+02 -0.26828900787E+02 -0.16301435244E+03  0.16693552337E+03  0.00000000000E+00 0.  1.
</event>
<event>
 7    1  0.6273950E-006  0.5597180E+02  0.7818608E-02  0.1515079E+00
          2   -1    0    0  502    0  0.00000000000E+00  0.00000000000E+00  0.86915348868E+03  0.86915348868E+03  0.00000000000E+00 0. -1.
          1   -1    0    0  501    0 -0.00000000000E+00 -0.00000000000E+00 -0.12788280951E+04  0.12788280951E+04  0.00000000000E+00 0. -1.
         25    2    1    2    0    0  0.50641722988E+02 -0.57287823767E+02 -0.30298225775E+03  0.33655613820E+03  0.12500122714E+03 0.  0.
          2    1    1    2  501    0 -0.36006949946E+01  0.27049955296E+02 -0.95794718140E+03  0.95833578011E+03  0.00000000000E+00 0. -1.
          1    1    1    2  502    0 -0.47041027993E+02  0.30237868471E+02  0.85125483276E+03  0.85308966545E+03  0.00000000000E+00 0. -1.
         22    1    3    3    0    0  0.56299239423E+02 -0.36097601922E+02 -0.30705068245E+03  0.31424952318E+03  0.00000000000E+00 0. -1.
         22    1    3    3    0    0 -0.56575164349E+01 -0.21190221845E+02  0.40684246991E+01  0.22306615018E+02  0.00000000000E+00 0. -1.
</event>
<event>
 7    1  0.6273950E-006  0.1123433E+03  0.7818608E-02  0.1291248E+00
          2   -1    0    0  502    0  0.00000000000E+00  0.00000000000E+00  0.14059439966E+04  0.14059439966E+04  0.00000000000E+00 0. -1.
          1   -1    0    0  501    0 -0.00000000000E+00 -0.00000000000E+00 -0.20180434887E+03  0.20180434887E+03  0.00000000000E+00 0. -1.
         25    2    1    2    0    0 -0.83152439749E+01  0.51250837157E+02  0.32989350597E+03  0.35658126441E+03  0.12499872502E+03 0.  0.
          2    1    1    2  501    0  0.82742585518E+02 -0.81342534792E+02 -0.16891170912E+03  0.20492464201E+03  0.00000000000E+00 0. -1.
          1    1    1    2  502    0 -0.74427341543E+02  0.30091697635E+02  0.10431578509E+04  0.10462424391E+04  0.00000000000E+00 0. -1.
         22    1    3    3    0    0 -0.20605099994E+02  0.88307436017E+02  0.17820995142E+03  0.19995389515E+03  0.00000000000E+00 0.  1.
         22    1    3    3    0    0  0.12289856019E+02 -0.37056598860E+02  0.15168355455E+03  0.15662736926E+03  0.00000000000E+00 0.  1.
</event>
<event>
 7    1  0.6273950E-006  0.8121415E+02  0.7818608E-02  0.1468251E+00
          2   -1    0    0  502    0  0.00000000000E+00  0.00000000000E+00  0.77766924413E+02  0.77766924413E+02  0.00000000000E+00 0. -1.
          1   -1    0    0  501    0 -0.00000000000E+00 -0.00000000000E+00 -0.92684519738E+03  0.92684519738E+03  0.00000000000E+00 0. -1.
         25    2    1    2    0    0  0.56260172780E+02  0.69901427692E+01 -0.15828589003E+02  0.13817595361E+03  0.12501192259E+03 0.  0.
          2    1    1    2  501    0 -0.81975554924E+02 -0.28669228465E+01 -0.83621109330E+03  0.84022449584E+03  0.00000000000E+00 0. -1.
          1    1    1    2  502    0  0.25715382144E+02 -0.41232199227E+01  0.29614093389E+01  0.26211672335E+02  0.00000000000E+00 0. -1.
         22    1    3    3    0    0  0.73165580427E+02  0.12670964264E+01 -0.57355803329E+02  0.92975781083E+02  0.00000000000E+00 0.  1.
         22    1    3    3    0    0 -0.16905407647E+02  0.57230463428E+01  0.41527214326E+02  0.45200172531E+02  0.00000000000E+00 0.  1.
</event>
<event>
 7    1  0.6273950E-006  0.7853320E+02  0.7818608E-02  0.1450518E+00
          2   -1    0    0  502    0  0.00000000000E+00  0.00000000000E+00  0.94967088075E+03  0.94967088075E+03  0.00000000000E+00 0. -1.
          1   -1    0    0  501    0 -0.00000000000E+00 -0.00000000000E+00 -0.49928833320E+03  0.49928833320E+03  0.00000000000E+00 0. -1.
         25    2    1    2    0    0 -0.29989283561E+02 -0.49822994006E+02  0.57211084905E+02  0.14926570126E+03  0.12500181389E+03 0.  0.
          2    1    1    2  501    0  0.12889861146E+02 -0.27795699104E+02 -0.45087417426E+03  0.45191400778E+03  0.00000000000E+00 0. -1.
          1    1    1    2  502    0  0.17099422415E+02  0.77618693110E+02  0.84404563691E+03  0.84777950492E+03  0.00000000000E+00 0. -1.
         22    1    3    3    0    0 -0.47179480199E+02 -0.81368501596E+02  0.17420348244E+02  0.95656703564E+02  0.00000000000E+00 0.  1.
         22    1    3    3    0    0  0.17190196638E+02  0.31545507590E+02  0.39790736661E+02  0.53608997692E+02  0.00000000000E+00 0.  1.
</event>
<event>
 7    1  0.6273950E-006  0.5606699E+02  0.7818608E-02  0.1556856E+00
          2   -1    0    0  502    0  0.00000000000E+00  0.00000000000E+00  0.14483164778E+04  0.14483164778E+04  0.00000000000E+00 0. -1.
          1   -1    0    0  501    0 -0.00000000000E+00 -0.00000000000E+00 -0.62928081714E+02  0.62928081714E+02  0.00000000000E+00 0. -1.
         25    2    1    2    0    0  0.10421394839E+02  0.41280382599E+02  0.58445402838E+03  0.59918555807E+03  0.12499658497E+03 0.  0.
          2    1    1    2  501    0 -0.30113120493E+02 -0.47740943175E+02 -0.41066594414E+02  0.69803029002E+02  0.00000000000E+00 0. -1.
          1    1    1    2  502    0  0.19691725654E+02  0.64605605765E+01  0.84200096212E+03  0.84225597245E+03  0.00000000000E+00 0. -1.
         22    1    3    3    0    0 -0.54416948972E+01 -0.44307978025E+02  0.17765550630E+03  0.18317829532E+03  0.00000000000E+00 0. -1.
         22    1    3    3    0    0  0.15863089736E+02  0.85588360623E+02  0.40679852208E+03  0.41600726275E+03  0.00000000000E+00 0. -1.
</event>
<event>
 7    1  0.6273950E-006  0.6356302E+02  0.7818608E-02  0.1503442E+00
          2   -1    0    0  502    0  0.00000000000E+00  0.00000000000E+00  0.18410924922E+04  0.18410924922E+04  0.00000000000E+00 0. -1.
          1   -1    0    0  501    0 -0.00000000000E+00 -0.00000000000E+00 -0.33055989416E+03  0.33055989416E+03  0.00000000000E+00 0. -1.
         25    2    1    2    0    0 -0.49925322909E+02  0.40604999413E+02 -0.14532738666E+03  0.20220258339E+03  0.12499812627E+03 0.  0.
          2    1    1    2  501    0  0.61939912106E+02 -0.17543347196E+02 -0.15008949067E+03  0.16331312548E+03  0.00000000000E+00 0. -1.
          1    1    1    2  502    0 -0.12014589196E+02 -0.23061652217E+02  0.18059494753E+04  0.18061366774E+04  0.00000000000E+00 0. -1.
         22    1    3    3    0    0 -0.86093912343E+02  0.27021990647E+00 -0.95767177566E+02  0.12877727696E+03  0.00000000000E+00 0.  1.
         22    1    3    3    0    0  0.36168589434E+02  0.40334779507E+02 -0.49560209096E+02  0.73425306436E+02  0.00000000000E+00 0.  1.
</event>
<event>
 7    1  0.6273950E-006  0.1510713E+03  0.7818608E-02  0.1281875E+00
          2   -1    0    0  502    0  0.00000000000E+00  0.00000000000E+00  0.19356368388E+04  0.19356368388E+04  0.00000000000E+00 0. -1.
          1   -1    0    0  501    0 -0.00000000000E+00 -0.00000000000E+00 -0.59722787016E+03  0.59722787016E+03  0.00000000000E+00 0. -1.
         25    2    1    2    0    0 -0.20353601444E+03  0.58650273746E+02  0.98175315884E+02  0.26483640467E+03  0.12503265497E+03 0.  0.
          2    1    1    2  501    0  0.57302338593E+02 -0.31122547853E+02 -0.50865648798E+03  0.51281926032E+03  0.00000000000E+00 0. -1.
          1    1    1    2  502    0  0.14623367584E+03 -0.27527725893E+02  0.17488901407E+04  0.17552090439E+04  0.00000000000E+00 0. -1.
         22    1    3    3    0    0 -0.10115190727E+02 -0.15741063607E+02  0.48139677602E+02  0.51648104772E+02  0.00000000000E+00 0.  1.
         22    1    3    3    0    0 -0.19342082371E+03  0.74391337353E+02  0.50035638283E+02  0.21318829990E+03  0.00000000000E+00 0.  1.
</event>
<event>
 7    1  0.6273950E-006  0.1756860E+03  0.7818608E-02  0.1288243E+00
          2   -1    0    0  502    0  0.00000000000E+00  0.00000000000E+00  0.47511817071E+02  0.47511817071E+02  0.00000000000E+00 0. -1.
          1   -1    0    0  501    0 -0.00000000000E+00 -0.00000000000E+00 -0.11535122404E+04  0.11535122404E+04  0.00000000000E+00 0. -1.
         25    2    1    2    0    0 -0.13804415403E+03  0.34090737255E+02 -0.55369099982E+03  0.58516471482E+03  0.12500261338E+03 0.  0.
          2    1    1    2  501    0 -0.50360301930E+02  0.15868087169E+02 -0.25460365970E+03  0.26002111401E+03  0.00000000000E+00 0. -1.
          1    1    1    2  502    0  0.18840445596E+03 -0.49958824424E+02 -0.29770576385E+03  0.35583822868E+03  0.00000000000E+00 0. -1.
         22    1    3    3    0    0 -0.89437291567E+02  0.79786338806E+02 -0.40117613667E+03  0.41869700455E+03  0.00000000000E+00 0.  1.
         22    1    3    3    0    0 -0.48606862463E+02 -0.45695601551E+02 -0.15251486315E+03  0.16646771027E+03  0.00000000000E+00 0.  1.
</event>
<event>
 7    1  0.6273950E-006  0.8543230E+02  0.7818608E-02  0.1424837E+00
          2   -1    0    0  502    0  0.00000000000E+00  0.00000000000E+00  0.15826942264E+04  0.15826942264E+04  0.00000000000E+00 0. -1.
          1   -1    0    0  501    0 -0.00000000000E+00 -0.00000000000E+00 -0.18297990078E+04  0.18297990078E+04  0.00000000000E+00 0. -1.
         25    2    1    2    0    0 -0.48927145807E+02 -0.86341495672E+02  0.39129443761E+01  0.15964875371E+03  0.12499477572E+03 0.  0.
          2    1    1    2  501    0  0.14860282259E+02  0.84024263113E+02 -0.17506976687E+04  0.17527758647E+04  0.00000000000E+00 0. -1.
          1    1    1    2  502    0  0.34066863548E+02  0.23172325589E+01  0.14996799429E+04  0.15000686158E+04  0.00000000000E+00 0. -1.
         22    1    3    3    0    0 -0.37646668223E+02  0.52608719556E+01  0.44756844054E+02  0.58720724550E+02  0.00000000000E+00 0.  1.
         22    1    3    3    0    0 -0.11280477585E+02 -0.91602367628E+02 -0.40843899678E+02  0.10092802916E+03  0.00000000000E+00 0.  1.
</event>
<event>
 7    1  0.6273950E-006  0.7977551E+02  0.7818608E-02  0.1333559E+00
          2   -1    0    0  502    0  0.00000000000E+00  0.00000000000E+00  0.21277356726E+03  0.21277356726E+03  0.00000000000E+00 0. -1.
          1   -1    0    0  501    0 -0.00000000000E+00 -0.00000000000E+00 -0.83080463039E+03  0.83080463039E+03  0.00000000000E+00 0. -1.
         25    2    1    2    0    0  0.14709498246E+03 -0.46949327839E+02 -0.23772572844E+03  0.30980538793E+03  0.12499873271E+03 0.  0.
          2    1    1    2  501    0 -0.72403012679E+02  0.26534835884E+02 -0.54571516955E+03  0.55113640783E+03  0.00000000000E+00 0. -1.
          1    1    1    2  502    0 -0.74691969779E+02  0.20414491954E+02  0.16540983486E+03  0.18263640190E+03  0.00000000000E+00 0. -1.
         22    1    3    3    0    0  0.16565273974E+03 -0.23287142026E+02 -0.18758917682E+03  0.25134203871E+03  0.00000000000E+00 0. -1.
         22    1    3    3    0    0 -0.18557757280E+02 -0.23662185813E+02 -0.50136551628E+02  0.58463349218E+02  0.00000000000E+00 0. -1.
</event>
<event>
 7    1  0.6273950E-006  0.1975226E+03  0.7818608E-02  0.1233674E+00
          2   -1    0    0  502    0  0.00000000000E+00  0.00000000000E+00  0.99553904541E+03  0.99553904541E+03  0.00000000000E+00 0. -1.
          1   -1    0    0  501    0 -0.00000000000E+00 -0.00000000000E+00 -0.11708216590E+04  0.11708216590E+04  0.00000000000E+00 0. -1.
         25    2    1    2    0    0  0.19575461026E+02  0.18329514239E+03 -0.22802413813E+03  0.31874821273E+03  0.12500043059E+03 0.  0.
          2    1    1    2  501    0 -0.80028150891E+02  0.58821908193E+01 -0.88522315203E+03  0.88885270658E+03  0.00000000000E+00 0. -1.
          1    1    1    2  502    0  0.60452689865E+02 -0.18917733321E+03  0.93796467655E+03  0.95875978512E+03  0.00000000000E+00 0. -1.
         22    1    3    3    0    0  0.53448289993E+02  0.89567243336E+02 -0.18019423390E+03  0.20820416113E+03  0.00000000000E+00 0.  1.
         22    1    3    3    0    0 -0.33872828968E+02  0.93727899058E+02 -0.47829904229E+02  0.11054405159E+03  0.00000000000E+00 0.  1.
</event>
<event>
 7    1  0.6273950E-006  0.4399798E+02  0.7818608E-02  0.1493507E+00
          2   -1    0    0  502    0  0.00000000000E+00  0.00000000000E+00  0.15527827804E+04  0.15527827804E+04  0.00000000000E+00 0. -1.
          1   -1    0    0  501    0 -0.00000000000E+00 -0.00000000000E+00 -0.14318220925E+02  0.14318220925E+02  0.00000000000E+00 0. -1.
         25    2    1    2    0    0  0.85536287806E+01  0.68464168846E+01  0.56088103180E+03  0.57474567649E+03  0.12500009130E+03 0.  0.
          2    1    1    2  501    0 -0.37763449279E+01  0.40049276952E+02  0.52833716139E+02  0.66404871256E+02  0.00000000000E+00 0. -1.
          1    1    1    2  502    0 -0.47772838528E+01 -0.46895693837E+02  0.92474981151E+03  0.92595045355E+03  0.00000000000E+00 0. -1.
         22    1    3    3    0    0 -0.44981973400E+02  0.36268331884E+02  0.18143641435E+03  0.19041518396E+03  0.00000000000E+00 0. -1.
         22    1    3    3    0    0  0.53535602180E+02 -0.29421914999E+02  0.37944461745E+03  0.38433049253E+03  0.00000000000E+00 0. -1.
</event>
<event>
 7    1  0.6273950E-006  0.8621899E+02  0.7818608E-02  0.1403306E+00
          2   -1    0    0  502    0  0.00000000000E+00  0.00000000000E+00  0.17080736011E+03  0.17080736011E+03  0.00000000000E+00 0. -1.
          1   -1    0    0  501    0 -0.00000000000E+00 -0.00000000000E+00 -0.81379636358E+03  0.81379636358E+03  0.00000000000E+00 0. -1.
         25    2    1    2    0    0  0.30056374312E+02  0.64535563420E+02 -0.19868875960E+03  0.24529645016E+03  0.12499960274E+03 0.  0.
          2    1    1    2  501    0  0.38637663846E+02 -0.10289797386E+02 -0.57806684206E+03  0.57944803294E+03  0.00000000000E+00 0. -1.
          1    1    1    2  502    0 -0.68694038158E+02 -0.54245766033E+02  0.13376659819E+03  0.15985924059E+03  0.00000000000E+00 0. -1.
         22    1    3    3    0    0 -0.40873058910E+02  0.37544147572E+02 -0.13590786563E+03  0.14680299009E+03  0.00000000000E+00 0. -1.
         22    1    3    3    0    0  0.70929433222E+02  0.26991415848E+02 -0.62780893979E+02  0.98493460065E+02  0.00000000000E+00 0. -1.
</event>
<event>
 7    1  0.6273950E-006  0.2684593E+03  0.7818608E-02  0.1268675E+00
          2   -1    0    0  502    0  0.00000000000E+00  0.00000000000E+00  0.36626627826E+04  0.36626627826E+04  0.00000000000E+00 0. -1.
          1   -1    0    0  501    0 -0.00000000000E+00 -0.00000000000E+00 -0.29357939205E+03  0.29357939205E+03  0.00000000000E+00 0. -1.
         25    2    1    2    0    0  0.27927512118E+02 -0.24380645038E+03  0.64655674270E+03  0.70276794985E+03  0.12500255445E+03 0.  0.
          2    1    1    2  501    0 -0.28762669517E+02 -0.30118203212E+02 -0.25751932196E+03  0.26086509637E+03  0.00000000000E+00 0. -1.
          1    1    1    2  502    0  0.83515739849E+00  0.27392465359E+03  0.29800459698E+04  0.29926091284E+04  0.00000000000E+00 0. -1.
         22    1    3    3    0    0  0.24162146073E+02 -0.21906787731E+03  0.64001992043E+03  0.67690475158E+03  0.00000000000E+00 0. -1.
         22    1    3    3    0    0  0.37653660458E+01 -0.24738573073E+02  0.65368222767E+01  0.25863198268E+02  0.00000000000E+00 0. -1.
</event>
<event>
 7    1  0.6273950E-006  0.6287896E+02  0.7818608E-02  0.1389238E+00
          2   -1    0    0  502    0  0.00000000000E+00  0.00000000000E+00  0.52350219280E+03  0.52350219280E+03  0.00000000000E+00 0. -1.
          1   -1    0    0  501    0 -0.00000000000E+00 -0.00000000000E+00 -0.55350624099E+03  0.55350624099E+03  0.00000000000E+00 0. -1.
         25    2    1    2    0    0  0.70315638423E+01 -0.59433575518E+02 -0.18964226154E+03  0.23488600189E+03  0.12500181492E+03 0.  0.
          2    1    1    2  501    0  0.52427875393E+02  0.38980254956E+02 -0.33611101171E+03  0.34240145238E+03  0.00000000000E+00 0. -1.
          1    1    1    2  502    0 -0.59459439235E+02  0.20453320562E+02  0.49574922506E+03  0.49972097953E+03  0.00000000000E+00 0. -1.
         22    1    3    3    0    0 -0.15309854682E+02  0.21195495481E+02 -0.12882193673E+03  0.13144859095E+03  0.00000000000E+00 0. -1.
         22    1    3    3    0    0  0.22341418524E+02 -0.80629070999E+02 -0.60820324802E+02  0.10343741093E+03  0.00000000000E+00 0. -1.
</event>
<event>
 7    1  0.6273950E-006  0.5312346E+02  0.7818608E-02  0.1483902E+00
          2   -1    0    0  502    0  0.00000000000E+00  0.00000000000E+00  0.62954673608E+03  0.62954673608E+03  0.00000000000E+00 0. -1.
          1   -1    0    0  501    0 -0.00000000000E+00 -0.00000000000E+00 -0.25689954892E+03  0.25689954892E+03  0.00000000000E+00 0. -1.
         25    2    1    2    0    0  0.33300434118E+02  0.48367120264E+02  0.79701390834E+02  0.15945314892E+03  0.12499879106E+03 0.  0.
          2    1    1    2  501    0 -0.35285707926E+02  0.49169839632E+01 -0.21415426065E+03  0.21709745570E+03  0.00000000000E+00 0. -1.
          1    1    1    2  502    0  0.19852738080E+01 -0.53284104227E+02  0.50710005698E+03  0.50989568037E+03  0.00000000000E+00 0. -1.
         22    1    3    3    0    0 -0.33769590654E+02 -0.22320359496E+02  0.19700367412E+02  0.45018753616E+02  0.00000000000E+00 0.  1.
         22    1    3    3    0    0  0.67070024772E+02  0.70687479761E+02  0.60001023422E+02  0.11443439531E+03  0.00000000000E+00 0.  1.
</event>
<event>
 7    1  0.6273950E-006  0.4042729E+02  0.7818608E-02  0.1516579E+00
          2   -1    0    0  502    0  0.00000000000E+00  0.00000000000E+00  0.17827836988E+04  0.17827836988E+04  0.00000000000E+00 0. -1.
          1   -1    0    0  501    0 -0.00000000000E+00 -0.00000000000E+00 -0.13199307899E+03  0.13199307899E+03  0.00000000000E+00 0. -1.
         25    2    1    2    0    0  0.42390627615E+02  0.61947259119E+02  0.19545732022E+03  0.24384466494E+03  0.12498891299E+03 0.  0.
          2    1    1    2  501    0 -0.28338408176E+02 -0.24409788793E+02 -0.10428993603E+03  0.11079392549E+03  0.00000000000E+00 0. -1.
          1    1    1    2  502    0 -0.14052219439E+02 -0.37537470326E+02  0.15596232356E+04  0.15601381874E+04  0.00000000000E+00 0. -1.
         22    1    3    3    0    0  0.72030682561E+02  0.18089990656E+02  0.16914580039E+03  0.18473215417E+03  0.00000000000E+00 0.  1.
         22    1    3    3    0    0 -0.29640054946E+02  0.43857268464E+02  0.26311519824E+02  0.59112510772E+02  0.00000000000E+00 0.  1.
</event>
<event>
 7    1  0.6273950E-006  0.4788736E+02  0.7818608E-02  0.1474274E+00
          2   -1    0    0  502    0  0.00000000000E+00  0.00000000000E+00  0.83471791615E+03  0.83471791615E+03  0.00000000000E+00 0. -1.
          1   -1    0    0  501    0 -0.00000000000E+00 -0.00000000000E+00 -0.38593094841E+03  0.38593094841E+03  0.00000000000E+00 0. -1.
         25    2    1    2    0    0  0.28966723854E+01  0.19165892659E+02  0.53574434227E+03  0.55047576746E+03  0.12500339250E+03 0.  0.
          2    1    1    2  501    0  0.23783650548E+02  0.34989151921E+02 -0.37423592329E+03  0.37661974068E+03  0.00000000000E+00 0. -1.
          1    1    1    2  502    0 -0.26680322933E+02 -0.54155044581E+02  0.28727854876E+03  0.29355335642E+03  0.00000000000E+00 0. -1.
         22    1    3    3    0    0  0.47128221955E+02 -0.26476349265E+02  0.14812854078E+03  0.15768364205E+03  0.00000000000E+00 0. -1.
         22    1    3    3    0    0 -0.44231549570E+02  0.45642241924E+02  0.38761580149E+03  0.39279212542E+03  0.00000000000E+00 0. -1.
</event>
<event>
 7    1  0.6273950E-006  0.1043406E+03  0.7818608E-02  0.1369271E+00
          2   -1    0    0  502    0  0.00000000000E+00  0.00000000000E+00  0.86160809630E+03  0.86160809630E+03  0.00000000000E+00 0. -1.
          1   -1    0    0  501    0 -0.00000000000E+00 -0.00000000000E+00 -0.16197774834E+03  0.16197774834E+03  0.00000000000E+00 0. -1.
         25    2    1    2    0    0  0.52947536289E+02 -0.40603075169E+02  0.31035703087E+03  0.34117393006E+03  0.12500445045E+03 0.  0.
          2    1    1    2  501    0 -0.96059961464E+02  0.46392918900E+02 -0.12612068104E+03  0.16518548757E+03  0.00000000000E+00 0. -1.
          1    1    1    2  502    0  0.43112425175E+02 -0.57898437306E+01  0.51539399813E+03  0.51722642701E+03  0.00000000000E+00 0. -1.
         22    1    3    3    0    0  0.49015906262E+02 -0.83542284821E+02  0.23782732822E+03  0.25679507485E+03  0.00000000000E+00 0.  1.
         22    1    3    3    0    0  0.39316300265E+01  0.42939209652E+02  0.72529702644E+02  0.84378855206E+02  0.00000000000E+00 0.  1.
</event>
<event>
 7    1  0.6273950E-006  0.3502824E+02  0.7818608E-02  0.1588800E+00
          2   -1    0    0  502    0  0.00000000000E+00  0.00000000000E+00  0.65904726827E+03  0.65904726827E+03  0.00000000000E+00 0. -1.
          1   -1    0    0  501    0 -0.00000000000E+00 -0.00000000000E+00 -0.12129925103E+04  0.12129925103E+04  0.00000000000E+00 0. -1.
         25    2    1    2    0    0 -0.17162122268E+02 -0.49875399520E+00 -0.62668320758E+02  0.14087910686E+03  0.12499926850E+03 0.  0.
          2    1    1    2  501    0  0.22363355811E+02  0.27179666058E+02 -0.11106418914E+04  0.11111994713E+04  0.00000000000E+00 0. -1.
          1    1    1    2  502    0 -0.52012335430E+01 -0.26680912063E+02  0.61936497012E+03  0.61996120049E+03  0.00000000000E+00 0. -1.
         22    1    3    3    0    0 -0.16011933158E+01 -0.60460488551E+02 -0.13951463516E+02  0.62069943049E+02  0.00000000000E+00 0.  1.
         22    1    3    3    0    0 -0.15560928952E+02  0.59961734556E+02 -0.48716857242E+02  0.78809163809E+02  0.00000000000E+00 0.  1.
</event>
<event>
 7    1  0.6273950E-006  0.2055988E+03  0.7818608E-02  0.1312744E+00
          2   -1    0    0  502    0  0.00000000000E+00  0.00000000000E+00  0.69751560029E+03  0.69751560029E+03  0.00000000000E+00 0. -1.
          1   -1    0    0  501    0 -0.00000000000E+00 -0.00000000000E+00 -0.64936659484E+03  0.64936659484E+03  0.00000000000E+00 0. -1.
         25    2    1    2    0    0 -0.46118730049E+02  0.16808946313E+03  0.42862161485E+03  0.47929384356E+03  0.12500037953E+03 0.  0.
          2    1    1    2  501    0  0.70790981824E+02 -0.19431044125E+03 -0.60542586524E+03  0.63977213834E+03  0.00000000000E+00 0. -1.
          1    1    1    2  502    0 -0.24672251775E+02  0.26220978121E+02  0.22495325584E+03  0.22781621324E+03  0.00000000000E+00 0. -1.
         22    1    3    3    0    0 -0.29714325227E+02  0.42490949425E+02  0.27588740719E+02  0.58732959411E+02  0.00000000000E+00 0. -1.
         22    1    3    3    0    0 -0.16404404822E+02  0.12559851371E+03  0.40103287413E+03  0.42056088415E+03  0.00000000000E+00 0. -1.
</event>
<event>
 7    1  0.6273950E-006  0.4900156E+02  0.7818608E-02  0.1483436E+00
          2   -1    0    0  502    0  0.00000000000E+00  0.00000000000E+00  0.38706236585E+02  0.38706236585E+02  0.00000000000E+00 0. -1.
          1   -1    0    0  501    0 -0.00000000000E+00 -0.00000000000E+00 -0.50528186113E+03  0.50528186113E+03  0.00000000000E+00 0. -1.
         25    2    1    2    0    0  0.35471577305E+02  0.63374450794E+02 -0.33628574714E+03  0.36604330833E+03  0.12500018413E+03 0.  0.
          2    1    1    2  501    0  0.52881689652E+01 -0.38387670589E+02 -0.12376889284E+03  0.12969316412E+03  0.00000000000E+00 0. -1.
          1    1    1    2  502    0 -0.40759746270E+02 -0.24986780205E+02 -0.65209845627E+01  0.48251625265E+02  0.00000000000E+00 0. -1.
         22    1    3    3    0    0 -0.23254448283E+02  0.13076734412E+01 -0.48765841027E+01  0.23796227585E+02  0.00000000000E+00 0. -1.
         22    1    3    3    0    0  0.58726025588E+02  0.62066777353E+02 -0.33140916304E+03  0.34224708075E+03  0.00000000000E+00 0. -1.
</event>
<event>
 7    1  0.6273950E-006  0.1558391E+03  0.7818608E-02  0.1204746E+00
          2   -1    0    0  502    0  0.00000000000E+00  0.00000000000E+00  0.23236325266E+04  0.23236325266E+04  0.00000000000E+00 0. -1.
          1   -1    0    0  501    0 -0.00000000000E+00 -0.00000000000E+00 -0.65154317995E+03  0.65154317995E+03  0.00000000000E+00 0. -1.
         25    2    1    2    0    0 -0.39312865934E+02 -0.60118403973E+02  0.19596221729E+03  0.24328004966E+03  0.12499707211E+03 0.  0.
          2    1    1    2  501    0 -0.13167421368E+03  0.40838477135E+02 -0.61674319064E+03  0.63196364054E+03  0.00000000000E+00 0. -1.
          1    1    1    2  502    0  0.17098707961E+03  0.19279926838E+02  0.20928703200E+04  0.20999320164E+04  0.00000000000E+00 0. -1.
         22    1    3    3    0    0 -0.61022500049E+02 -0.88050846889E+02  0.13021970481E+03  0.16862345232E+03  0.00000000000E+00 0. -1.
         22    1    3    3    0    0  0.21709634116E+02  0.27932442916E+02  0.65742512473E+02  0.74656597344E+02  0.00000000000E+00 0. -1.
</event>
<event>
 7    1  0.6273950E-006  0.7119473E+02  0.7818608E-02  0.1428977E+00
          2   -1    0    0  502    0  0.00000000000E+00  0.00000000000E+00  0.31519628221E+03  0.31519628221E+03  0.00000000000E+00 0. -1.
          1   -1    0    0  501    0 -0.00000000000E+00 -0.00000000000E+00 -0.33943890338E+03  0.33943890338E+03  0.00000000000E+00 0. -1.
         25    2    1    2    0    0  0.99832746292E+02 -0.15431860153E+02  0.68601761773E+02  0.17474378325E+03  0.12499787408E+03 0.  0.
          2    1    1    2  501    0 -0.32136500262E+02  0.23313951992E+02 -0.27891775824E+03  0.28172932199E+03  0.00000000000E+00 0. -1.
          1    1    1    2  502    0 -0.67696246030E+02 -0.78820918388E+01  0.18607337529E+03  0.19816208036E+03  0.00000000000E+00 0. -1.
         22    1    3    3    0    0  0.11692318040E+03 -0.32766007217E+02  0.82415688821E+02  0.14675485378E+03  0.00000000000E+00 0. -1.
         22    1    3    3    0    0 -0.17090434106E+02  0.17334147064E+02 -0.13813927048E+02  0.27988929470E+02  0.00000000000E+00 0. -1.
</event>
<event>
 7    1  0.6273950E-006  0.1870080E+03  0.7818608E-02  0.1295871E+00
          2   -1    0    0  502    0  0.00000000000E+00  0.00000000000E+00  0.16174403449E+04  0.16174403449E+04  0.00000000000E+00 0. -1.
          1   -1    0    0  501    0 -0.00000000000E+00 -0.00000000000E+00 -0.19478810478E+04  0.19478810478E+04  0.00000000000E+00 0. -1.
         25    2    1    2    0    0  0.21292115029E+01  0.16634916525E+03 -0.23259896077E+03  0.31209830081E+03  0.12500597783E+03 0.  0.
          2    1    1    2  501    0 -0.43093300333E+02  0.16642695816E+02 -0.16696397373E+04  0.16702786786E+04  0.00000000000E+00 0. -1.
          1    1    1    2  502    0  0.40964088830E+02 -0.18299186107E+03  0.15717979952E+04  0.15829444132E+04  0.00000000000E+00 0. -1.
         22    1    3    3    0    0  0.52702751509E+02  0.13945427369E+03 -0.18521362338E+03  0.23775861867E+03  0.00000000000E+00 0.  1.
         22    1    3    3    0    0 -0.50573540006E+02  0.26894891567E+02 -0.47385337395E+02  0.74339682144E+02  0.00000000000E+00 0.  1.
</event>
<event>
 7    1  0.6273950E-006  0.1085586E+03  0.7818608E-02  0.1330708E+00
          2   -1    0    0  502    0  0.00000000000E+00  0.00000000000E+00  0.19066797420E+04  0.19066797420E+04  0.00000000000E+00 0. -1.
          1   -1    0    0  501    0 -0.00000000000E+00 -0.00000000000E+00 -0.97460229348E+03  0.97460229348E+03  0.00000000000E+00 0. -1.
         25    2    1    2    0    0  0.54576742112E+02  0.46157076430E+02  0.88569954466E+03  0.89732802118E+03  0.12499919081E+03 0.  0.
          2    1    1    2  501    0 -0.38023824294E+02 -0.10185055209E+03 -0.96490155371E+03  0.97100687667E+03  0.00000000000E+00 0. -1.
          1    1    1    2  502    0 -0.16552917819E+02  0.55693475663E+02  0.10112794576E+04  0.10129471376E+04  0.00000000000E+00 0. -1.
         22    1    3    3    0    0  0.77576992918E+00  0.79493208855E+02  0.54980262661E+03  0.55552020692E+03  0.00000000000E+00 0.  1.
         22    1    3    3    0    0  0.53800972183E+02 -0.33336132424E+02  0.33589691805E+03  0.34180781426E+03  0.00000000000E+00 0.  1.
</event>
<event>
 7    1  0.6273950E-006  0.9384604E+02  0.7818608E-02  0.1370701E+00
          2   -1    0    0  502    0  0.00000000000E+00  0.00000000000E+00  0.79580022997E+03  0.79580022997E+03  0.00000000000E+00 0. -1.
          1   -1    0    0  501    0 -0.00000000000E+00 -0.00000000000E+00 -0.39198113855E+03  0.39198113855E+03  0.00000000000E+00 0. -1.
         25    2    1    2    0    0 -0.12736528586E+03 -0.59620918933E+02 -0.13486294891E+03  0.23149775596E+03  0.12500650387E+03 0.  0.
          2    1    1    2  501    0  0.41373244977E+02  0.23929086840E+02 -0.20311700805E+03  0.20866448082E+03  0.00000000000E+00 0. -1.
          1    1    1    2  502    0  0.85992040878E+02  0.35691832093E+02  0.74179904838E+03  0.74761913174E+03  0.00000000000E+00 0. -1.
         22    1    3    3    0    0  0.14944380527E+02  0.19656415286E+02 -0.24122538718E+02  0.34519647238E+02  0.00000000000E+00 0. -1.
         22    1    3    3    0    0 -0.14230966638E+03 -0.79277334218E+02 -0.11074041019E+03  0.19697810872E+03  0.00000000000E+00 0. -1.
</event>
<event>
 7    1  0.6273950E-006  0.5407009E+02  0.7818608E-02  0.1465290E+00
          2   -1    0    0  502    0  0.00000000000E+00  0.00000000000E+00  0.13368667312E+04  0.13368667312E+04  0.00000000000E+00 0. -1.
          1   -1    0    0  501    0 -0.00000000000E+00 -0.00000000000E+00 -0.54734124566E+03  0.54734124566E+03  0.00000000000E+00 0. -1.
         25    2    1    2    0    0 -0.58251942381E+02 -0.32481900934E+02 -0.39495472828E+03  0.41960366584E+03  0.12501854387E+03 0.  0.
          2    1    1    2  501    0  0.21447771501E+02  0.48047751253E+02 -0.13480709889E+03  0.14471194565E+03  0.00000000000E+00 0. -1.
          1    1    1    2  502    0  0.36804170881E+02 -0.15565850320E+02  0.13192873127E+04  0.13198923654E+04  0.00000000000E+00 0. -1.
         22    1    3    3    0    0 -0.86170503443E+02  0.45761245010E+01 -0.17891148541E+03  0.19863437817E+03  0.00000000000E+00 0. -1.
         22    1    3    3    0    0  0.27918561062E+02 -0.37058025435E+02 -0.21604324288E+03  0.22096928767E+03  0.00000000000E+00 0. -1.
</event>
<event>
 7    1  0.6273950E-006  0.7381282E+02  0.7818608E-02  0.1454621E+00
          2   -1    0    0  502    0  0.00000000000E+00  0.00000000000E+00  0.25729793181E+04  0.25729793181E+04  0.00000000000E+00 0. -1.
          1   -1    0    0  501    0 -0.00000000000E+00 -0.00000000000E+00 -0.59512445418E+03  0.59512445418E+03  0.00000000000E+00 0. -1.
         25    2    1    2    0    0 -0.83473105050E+02 -0.62743373925E+01  0.32292289812E+03  0.35624599233E+03  0.12499952937E+03 0.  0.
          2    1    1    2  501    0  0.17443309830E+02 -0.26386912762E+02 -0.57742247355E+03  0.57828820772E+03  0.00000000000E+00 0. -1.
          1    1    1    2  502    0  0.66029795220E+02  0.32661250155E+02  0.22323544394E+04  0.22335695723E+04  0.00000000000E+00 0. -1.
         22    1    3    3    0    0 -0.26560109020E+02 -0.22926337356E+02  0.28205328895E+03  0.28422722273E+03  0.00000000000E+00 0. -1.
         22    1    3    3    0    0 -0.56912996030E+02  0.16651999964E+02  0.40869609168E+02  0.72018769591E+02  0.00000000000E+00 0. -1.
</event>
<event>
 7    1  0.6273950E-006  0.9457457E+02  0.7818608E-02  0.1309773E+00
          2   -1    0    0  502    0  0.00000000000E+00  0.00000000000E+00  0.19006299891E+04  0.19006299891E+04  0.00000000000E+00 0. -1.
          1   -1    0    0  501    0 -0.00000000000E+00 -0.00000000000E+00 -0.14755518905E+03  0.14755518905E+03  0.00000000000E+00 0. -1.
         25    2    1    2    0    0 -0.36548306448E+02  0.87653906494E+02  0.49374310244E+03  0.51809828167E+03  0.12499836893E+03 0.  0.
          2    1    1    2  501    0  0.80399530232E+02  0.82351490666E+00 -0.12151848967E+03  0.14571034957E+03  0.00000000000E+00 0. -1.
          1    1    1    2  502    0 -0.43851223784E+02 -0.88477421400E+02  0.13808501873E+04  0.13843765469E+04  0.00000000000E+00 0. -1.
         22    1    3    3    0    0 -0.51918402709E+02  0.81539385663E+02  0.18340824865E+03  0.20732288255E+03  0.00000000000E+00 0. -1.
         22    1    3    3    0    0  0.15370096261E+02  0.61145208302E+01  0.31033485379E+03  0.31077539913E+03  0.00000000000E+00 0. -1.
</event>
<event>
 7    1  0.6273950E-006  0.6543822E+02  0.7818608E-02  0.1428804E+00
          2   -1    0    0  502    0  0.00000000000E+00  0.00000000000E+00  0.21375397835E+04  0.21375397835E+04  0.00000000000E+00 0. -1.
          1   -1    0    0  501    0 -0.00000000000E+00 -0.00000000000E+00 -0.47902428988E+03  0.47902428988E+03  0.00000000000E+00 0. -1.
         25    2    1    2    0    0 -0.26291854151E+02 -0.16263393330E+01  0.45003978477E+03  0.46782084773E+03  0.12500652434E+03 0.  0.
          2    1    1    2  501    0 -0.39557602466E+02 -0.17490324787E+02 -0.46843685748E+03  0.47042938346E+03  0.00000000000E+00 0. -1.
          1    1    1    2  502    0  0.65849456616E+02  0.19116664120E+02  0.16769125663E+04  0.16783138422E+04  0.00000000000E+00 0. -1.
         22    1    3    3    0    0  0.31454539204E+01 -0.45205351271E+02  0.36522120224E+03  0.36802166271E+03  0.00000000000E+00 0. -1.
         22    1    3    3    0    0 -0.29437308071E+02  0.43579011938E+02  0.84818582530E+02  0.99799185019E+02  0.00000000000E+00 0. -1.
</event>
<event>
 7    1  0.6273950E-006  0.3494115E+02  0.7818608E-02  0.1592493E+00
          2   -1    0    0  502    0  0.00000000000E+00  0.00000000000E+00  0.85262553206E+03  0.85262553206E+03  0.00000000000E+00 0. -1.
          1   -1    0    0  501    0 -0.00000000000E+00 -0.00000000000E+00 -0.14651309221E+03  0.14651309221E+03  0.00000000000E+00 0. -1.
         25    2    1    2    0    0  0.52941384184E+02  0.21118109364E+02  0.53370872229E+03  0.55110698388E+03  0.12500057091E+03 0.  0.
          2    1    1    2  501    0 -0.20275601595E+02 -0.17287441754E+02 -0.13564243440E+03  0.13823467608E+03  0.00000000000E+00 0. -1.
          1    1    1    2  502    0 -0.32665782589E+02 -0.38306676099E+01  0.30804615195E+03  0.30979696431E+03  0.00000000000E+00 0. -1.
         22    1    3    3    0    0  0.57465311586E+02 -0.13228944310E+02  0.49754426448E+03  0.50102650841E+03  0.00000000000E+00 0.  1.
         22    1    3    3    0    0 -0.45239274015E+01  0.34347053674E+02  0.36164457807E+02  0.50080475473E+02  0.00000000000E+00 0.  1.
</event>
<event>
 7    1  0.6273950E-006  0.7188723E+02  0.7818608E-02  0.1354205E+00
          2   -1    0    0  502    0  0.00000000000E+00  0.00000000000E+00  0.19745990597E+03  0.19745990597E+03  0.00000000000E+00 0. -1.
          1   -1    0    0  501    0 -0.00000000000E+00 -0.00000000000E+00 -0.20822247765E+04  0.20822247765E+04  0.00000000000E+00 0. -1.
         25    2    1    2    0    0 -0.43555207799E+02 -0.30410245213E+01 -0.22043233770E+02  0.13423195970E+03  0.12500404351E+03 0.  0.
          2    1    1    2  501    0  0.27262218252E+02 -0.66975493311E+02 -0.19942503047E+04  0.19955608793E+04  0.00000000000E+00 0. -1.
          1    1    1    2  502    0  0.16292989547E+02  0.70016517833E+02  0.13152866789E+03  0.14989184352E+03  0.00000000000E+00 0. -1.
         22    1    3    3    0    0  0.60022827610E+01  0.21110138810E+02  0.43417773276E+02  0.48649443935E+02  0.00000000000E+00 0. -1.
         22    1    3    3    0    0 -0.49557490560E+02 -0.24151163331E+02 -0.65461007046E+02  0.85582515763E+02  0.00000000000E+00 0. -1.
</event>
<event>
 7    1  0.6273950E-006  0.1064062E+03  0.7818608E-02  0.1360114E+00
          2   -1    0    0  502    0  0.00000000000E+00  0.00000000000E+00  0.41037142574E+02  0.41037142574E+02  0.00000000000E+00 0. -1.
          1   -1    0    0  501    0 -0.00000000000E+00 -0.00000000000E+00 -0.12045538513E+04  0.12045538513E+04  0.00000000000E+00 0. -1.
         25    2    1    2    0    0 -0.98470966168E+02  0.77069841889E+02 -0.28223310412E+03  0.33302834855E+03  0.12496425157E+03 0.  0.
          2    1    1    2  501    0  0.54236744322E+02 -0.89843729755E+02 -0.85101746435E+03  0.85746384463E+03  0.00000000000E+00 0. -1.
          1    1    1    2  502    0  0.44234221846E+02  0.12773887865E+02 -0.30266140281E+02  0.55098800722E+02  0.00000000000E+00 0. -1.
         22    1    3    3    0    0 -0.67820027003E+02 -0.14495673288E+02 -0.63925269297E+02  0.94319248627E+02  0.00000000000E+00 0.  1.
         22    1    3    3    0    0 -0.30650939165E+02  0.91565515177E+02 -0.21830783482E+03  0.23870909992E+03  0.00000000000E+00 0.  1.
</event>
<event>
 7    1  0.6273950E-006  0.6212880E+02  0.7818608E-02  0.1398977E+00
          2   -1    0    0  502    0  0.00000000000E+00  0.00000000000E+00  0.14086616654E+04  0.14086616654E+04  0.00000000000E+00 0. -1.
          1   -1    0    0  501    0 -0.00000000000E+00 -0.00000000000E+00 -0.13322210007E+03  0.13322210007E+03  0.00000000000E+00 0. -1.
         25    2    1    2    0    0  0.11040047344E+03 -0.29478595091E+02  0.35780975493E+03  0.39586467454E+03  0.12499507079E+03 0.  0.
          2    1    1    2  501    0 -0.50593453546E+02  0.27154218957E+02 -0.10604680545E+03  0.12059425399E+03  0.00000000000E+00 0. -1.
          1    1    1    2  502    0 -0.59807019896E+02  0.23243761338E+01  0.10236766158E+04  0.10254248369E+04  0.00000000000E+00 0. -1.
         22    1    3    3    0    0  0.77479088418E+02 -0.81425173683E+01  0.34633674261E+03  0.35499077314E+03  0.00000000000E+00 0.  1.
         22    1    3    3    0    0  0.32921385023E+02 -0.21336077722E+02  0.11473012321E+02  0.40873901406E+02  0.00000000000E+00 0.  1.
</event>
<event>
 7    1  0.6273950E-006  0.1148738E+03  0.7818608E-02  0.1416767E+00
          2   -1    0    0  502    0  0.00000000000E+00  0.00000000000E+00  0.26985354224E+03  0.26985354224E+03  0.00000000000E+00 0. -1.
          1   -1    0    0  501    0 -0.00000000000E+00 -0.00000000000E+00 -0.10856493866E+04  0.10856493866E+04  0.00000000000E+00 0. -1.
         25    2    1    2    0    0 -0.48534861354E+02  0.92125570121E+02  0.34669294927E+02  0.16638343574E+03  0.12505492490E+03 0.  0.
          2    1    1    2  501    0 -0.27014954470E+02 -0.42253897963E+00 -0.99874399988E+03  0.99910938521E+03  0.00000000000E+00 0. -1.
          1    1    1    2  502    0  0.75549815824E+02 -0.91703031142E+02  0.14827886061E+03  0.19001010788E+03  0.00000000000E+00 0. -1.
         22    1    3    3    0    0 -0.62028781607E+02  0.92752053443E+02  0.67827072463E+02  0.13057957315E+03  0.00000000000E+00 0. -1.
         22    1    3    3    0    0  0.13493920253E+02 -0.62648332164E+00 -0.33157777536E+02  0.35803862589E+02  0.00000000000E+00 0. -1.
</event>
<event>
 7    1  0.6273950E-006  0.6419148E+02  0.7818608E-02  0.1451032E+00
          2   -1    0    0  502    0  0.00000000000E+00  0.00000000000E+00  0.20052185995E+03  0.20052185995E+03  0.00000000000E+00 0. -1.
          1   -1    0    0  501    0 -0.00000000000E+00 -0.00000000000E+00 -0.33111940874E+03  0.33111940874E+03  0.00000000000E+00 0. -1.
         25    2    1    2    0    0  0.33910567685E+02  0.51616174809E+02 -0.23196126750E+02  0.14134130066E+03  0.12500058749E+03 0.  0.
          2    1    1    2  501    0 -0.34738419044E+02  0.13701876633E+02 -0.23978584608E+03  0.24267622702E+03  0.00000000000E+00 0. -1.
          1    1    1    2  502    0  0.82785135852E+00 -0.65318051442E+02  0.13238442404E+03  0.14762374101E+03  0.00000000000E+00 0. -1.
         22    1    3    3    0    0  0.61491955926E+02  0.17603028633E+02 -0.57270976398E+02  0.85855063906E+02  0.00000000000E+00 0. -1.
         22    1    3    3    0    0 -0.27581388241E+02  0.34013146175E+02  0.34074849648E+02  0.55486236749E+02  0.00000000000E+00 0. -1.
</event>
<event>
 7    1  0.8192973E-006  0.9156532E+02  0.7818608E-02  0.1308487E+00
          2   -1    0    0  502    0  0.00000000000E+00  0.00000000000E+00  0.18141154632E+04  0.18141154632E+04  0.00000000000E+00 0. -1.
          1   -1    0    0  501    0 -0.00000000000E+00 -0.00000000000E+00 -0.10148566958E+04  0.10148566958E+04  0.00000000000E+00 0. -1.
         25    2    1    2    0    0 -0.11651106908E+03  0.19917162635E+02 -0.33592447543E+03  0.37741330933E+03  0.12499612106E+03 0.  0.
          2    1    1    2  501    0  0.41793372082E+02 -0.72891049266E+02 -0.65433030186E+03  0.65970291415E+03  0.00000000000E+00 0. -1.
          1    1    1    2  502    0  0.74717697000E+02  0.52973886631E+02  0.17895135447E+04  0.17918559355E+04  0.00000000000E+00 0. -1.
         22    1    3    3    0    0 -0.40025029668E+02 -0.35849825749E+02 -0.40763221989E+02  0.67445187175E+02  0.00000000000E+00 0. -1.
         22    1    3    3    0    0 -0.76486039415E+02  0.55766988384E+02 -0.29516125344E+03  0.30996812215E+03  0.00000000000E+00 0. -1.
</event>
<event>
 7    1  0.6273950E-006  0.1068796E+03  0.7818608E-02  0.1268495E+00
          2   -1    0    0  502    0  0.00000000000E+00  0.00000000000E+00  0.96499960778E+02  0.96499960778E+02  0.00000000000E+00 0. -1.
          1   -1    0    0  501    0 -0.00000000000E+00 -0.00000000000E+00 -0.20995989870E+04  0.20995989870E+04  0.00000000000E+00 0. -1.
         25    2    1    2    0    0 -0.39840835457E+01  0.15188175016E+02 -0.44916063344E+03  0.46649560210E+03  0.12500527412E+03 0.  0.
          2    1    1    2  501    0  0.64941090184E+02  0.82238743559E+02 -0.16017178658E+04  0.16051419494E+04  0.00000000000E+00 0. -1.
          1    1    1    2  502    0 -0.60957006638E+02 -0.97426918575E+02  0.47779473015E+02  0.12446139628E+03  0.00000000000E+00 0. -1.
         22    1    3    3    0    0 -0.59007294317E+02 -0.14813337747E+02 -0.26740991351E+03  0.27424324531E+03  0.00000000000E+00 0. -1.
         22    1    3    3    0    0  0.55023210771E+02  0.30001512764E+02 -0.18175071994E+03  0.19225235679E+03  0.00000000000E+00 0. -1.
</event>
<event>
 7    1  0.6273950E-006  0.8421697E+02  0.7818608E-02  0.1356788E+00
          2   -1    0    0  502    0  0.00000000000E+00  0.00000000000E+00  0.20780986440E+03  0.20780986440E+03  0.00000000000E+00 0. -1.
          1   -1    0    0  501    0 -0.00000000000E+00 -0.00000000000E+00 -0.16755292340E+04  0.16755292340E+04  0.00000000000E+00 0. -1.
         25    2    1    2    0    0  0.17809321584E+02 -0.72550070990E+02  0.28650677833E+02  0.14841273274E+03  0.12499917266E+03 0.  0.
          2    1    1    2  501    0 -0.71233572014E+02  0.45625551764E+02 -0.16069635441E+04  0.16091885361E+04  0.00000000000E+00 0. -1.
          1    1    1    2  502    0  0.53424250430E+02  0.26924519226E+02  0.11059349667E+03  0.12573782953E+03  0.00000000000E+00 0. -1.
         22    1    3    3    0    0  0.63053897014E+02 -0.74441021970E+02  0.32839395350E+02  0.10293534654E+03  0.00000000000E+00 0.  1.
         22    1    3    3    0    0 -0.45244575430E+02  0.18909509802E+01 -0.41887175167E+01  0.45477386203E+02  0.00000000000E+00 0.  1.
</event>
<event>
 7    1  0.6273950E-006  0.7445883E+02  0.7818608E-02  0.1460732E+00
          2   -1    0    0  502    0  0.00000000000E+00  0.00000000000E+00  0.12947912668E+04  0.12947912668E+04  0.00000000000E+00 0. -1.
          1   -1    0    0  501    0 -0.00000000000E+00 -0.00000000000E+00 -0.51447063559E+03  0.51447063559E+03  0.00000000000E+00 0. -1.
         25    2    1    2    0    0 -0.36002955013E+02  0.86737963237E+02  0.39074962325E+03  0.42086905583E+03  0.12500322817E+03 0.  0.
          2    1    1    2  501    0  0.45955311203E+02 -0.58446338912E+02 -0.49638858146E+03  0.50192578033E+03  0.00000000000E+00 0. -1.
          1    1    1    2  502    0 -0.99523561904E+01 -0.28291624324E+02  0.88595958944E+03  0.88646706624E+03  0.00000000000E+00 0. -1.
         22    1    3    3    0    0  0.40434741070E+02  0.17734597596E+02  0.19217144636E+03  0.19717847000E+03  0.00000000000E+00 0. -1.
         22    1    3    3    0    0 -0.76437696083E+02  0.69003365641E+02  0.19857817689E+03  0.22369058583E+03  0.00000000000E+00 0. -1.
</event>
<event>
 7    1  0.6273950E-006  0.7179106E+02  0.7818608E-02  0.1394109E+00
          2   -1    0    0  502    0  0.00000000000E+00  0.00000000000E+00  0.74811216973E+02  0.74811216973E+02  0.00000000000E+00 0. -1.
          1   -1    0    0  501    0 -0.00000000000E+00 -0.00000000000E+00 -0.13778325179E+04  0.13778325179E+04  0.00000000000E+00 0. -1.
         25    2    1    2    0    0 -0.94987054002E+02 -0.10880404350E+02 -0.61139706827E+03  0.63132551984E+03  0.12499845310E+03 0.  0.
          2    1    1    2  501    0  0.39131409472E+02 -0.33718218163E+02 -0.73559059516E+03  0.73740199968E+03  0.00000000000E+00 0. -1.
          1    1    1    2  502    0  0.55855644530E+02  0.44598622513E+02  0.43966362552E+02  0.83916215310E+02  0.00000000000E+00 0. -1.
         22    1    3    3    0    0 -0.10273305599E+02 -0.33014420696E+02 -0.41326836845E+03  0.41471223414E+03  0.00000000000E+00 0. -1.
         22    1    3    3    0    0 -0.84713748403E+02  0.22134016346E+02 -0.19812869982E+03  0.21661328569E+03  0.00000000000E+00 0. -1.
</event>
<event>
 7    1  0.6273950E-006  0.3679514E+02  0.7818608E-02  0.1600721E+00
          2   -1    0    0  502    0  0.00000000000E+00  0.00000000000E+00  0.13183374701E+03  0.13183374701E+03  0.00000000000E+00 0. -1.
          1   -1    0    0  501    0 -0.00000000000E+00 -0.00000000000E+00 -0.11228585447E+04  0.11228585447E+04  0.00000000000E+00 0. -1.
         25    2    1    2    0    0 -0.31498972630E+02 -0.36627108229E+01 -0.25573283203E+02  0.13145816456E+03  0.12498662124E+03 0.  0.
          2    1    1    2  501    0  0.30715314229E+02 -0.20399612381E+02 -0.10421724266E+04  0.10428245017E+04  0.00000000000E+00 0. -1.
          1    1    1    2  502    0  0.78365840047E+00  0.24062323203E+02  0.76720912057E+02  0.80409625451E+02  0.00000000000E+00 0. -1.
         22    1    3    3    0    0 -0.70246342593E+02  0.59126781445E+01  0.17603593621E+02  0.72659444801E+02  0.00000000000E+00 0. -1.
         22    1    3    3    0    0  0.38747369963E+02 -0.95753889674E+01 -0.43176876824E+02  0.58798719758E+02  0.00000000000E+00 0. -1.
</event>
<event>
 7    1  0.6273950E-006  0.1470895E+03  0.7818608E-02  0.1364616E+00
          2   -1    0    0  502    0  0.00000000000E+00  0.00000000000E+00  0.56128610729E+03  0.56128610729E+03  0.00000000000E+00 0. -1.
          1   -1    0    0  501    0 -0.00000000000E+00 -0.00000000000E+00 -0.17699929382E+03  0.17699929382E+03  0.00000000000E+00 0. -1.
         25    2    1    2    0    0 -0.34294636630E+01 -0.16864887043E+03  0.22321675679E+03  0.30643737307E+03  0.12499576145E+03 0.  0.
          2    1    1    2  501    0  0.21927041436E+02  0.14244512025E+03 -0.95751624886E+02  0.17303115644E+03  0.00000000000E+00 0. -1.
          1    1    1    2  502    0 -0.18497577773E+02  0.26203750180E+02  0.25682168157E+03  0.25881687161E+03  0.00000000000E+00 0. -1.
         22    1    3    3    0    0  0.33667765836E+02 -0.22413406515E+02  0.44454665320E+01  0.40689573857E+02  0.00000000000E+00 0.  1.
         22    1    3    3    0    0 -0.37097229499E+02 -0.14623546392E+03  0.21877129026E+03  0.26574779921E+03  0.00000000000E+00 0.  1.
</event>
<event>
 7    1  0.6273950E-006  0.9319438E+02  0.7818608E-02  0.1298102E+00
          2   -1    0    0  502    0  0.00000000000E+00  0.00000000000E+00  0.83281333912E+03  0.83281333912E+03  0.00000000000E+00 0. -1.
          1   -1    0    0  501    0 -0.00000000000E+00 -0.00000000000E+00 -0.27622319462E+03  0.27622319462E+03  0.00000000000E+00 0. -1.
         25    2    1    2    0    0  0.31026683532E+01  0.55282464904E+01  0.33151048755E+03  0.35435023612E+03  0.12499879367E+03 0.  0.
          2    1    1    2  501    0 -0.90166015499E+02 -0.31315366608E+02 -0.25177652877E+03  0.26926192263E+03  0.00000000000E+00 0. -1.
          1    1    1    2  502    0  0.87063347146E+02  0.25787120118E+02  0.47685618572E+03  0.48542437500E+03  0.00000000000E+00 0. -1.
         22    1    3    3    0    0  0.49383856394E+02 -0.34974202589E+02  0.20394269246E+03  0.21273124342E+03  0.00000000000E+00 0.  1.
         22    1    3    3    0    0 -0.46281188041E+02  0.40502449080E+02  0.12756779509E+03  0.14161899270E+03  0.00000000000E+00 0.  1.
</event>
<event>
 7    1  0.6273950E-006  0.8504905E+02  0.7818608E-02  0.1422797E+00
          2   -1    0    0  502    0  0.00000000000E+00  0.00000000000E+00  0.25805107666E+03  0.25805107666E+03  0.00000000000E+00 0. -1.
          1   -1    0    0  501    0 -0.00000000000E+00 -0.00000000000E+00 -0.79419211156E+02  0.79419211156E+02  0.00000000000E+00 0. -1.
         25    2    1    2    0    0  0.33079689461E+02 -0.70007894398E+02  0.11597469971E+03  0.18726441689E+03  0.12498983851E+03 0.  0.
          2    1    1    2  501    0  0.34171006009E+02  0.67882996285E+01 -0.57622279215E+01  0.35312064994E+02  0.00000000000E+00 0. -1.
          1    1    1    2  502    0 -0.67250695470E+02  0.63219594769E+02  0.68419393717E+02  0.11489380593E+03  0.00000000000E+00 0. -1.
         22    1    3    3    0    0 -0.24428104635E+02 -0.24770023477E+02  0.10823406964E+03  0.11368773104E+03  0.00000000000E+00 0.  1.
         22    1    3    3    0    0  0.57507794096E+02 -0.45237870920E+02  0.77406300702E+01  0.73576685853E+02  0.00000000000E+00 0.  1.
</event>
<event>
 7    1  0.6273950E-006  0.5864450E+02  0.7818608E-02  0.1529247E+00
          2   -1    0    0  502    0  0.00000000000E+00  0.00000000000E+00  0.21355520961E+04  0.21355520961E+04  0.00000000000E+00 0. -1.
          1   -1    0    0  501    0 -0.00000000000E+00 -0.00000000000E+00 -0.36735675205E+02  0.36735675205E+02  0.00000000000E+00 0. -1.
         25    2    1    2    0    0  0.70889081061E+02 -0.35837060633E+02  0.33090114144E+03  0.36252862598E+03  0.12498752945E+03 0.  0.
          2    1    1    2  501    0 -0.48058155366E+02  0.29487831849E+02  0.17292289501E+02  0.58975772996E+02  0.00000000000E+00 0. -1.
          1    1    1    2  502    0 -0.22830925696E+02  0.63492287836E+01  0.17506229900E+04  0.17507833724E+04  0.00000000000E+00 0. -1.
         22    1    3    3    0    0 -0.27956424578E+02  0.79637267028E+01  0.25903496994E+02  0.38935507890E+02  0.00000000000E+00 0. -1.
         22    1    3    3    0    0  0.98845505639E+02 -0.43800787336E+02  0.30499764445E+03  0.32359311809E+03  0.00000000000E+00 0. -1.
</event>
<event>
 7    1  0.6273950E-006  0.5835611E+02  0.7818608E-02  0.1419345E+00
          2   -1    0    0  502    0  0.00000000000E+00  0.00000000000E+00  0.34717031425E+04  0.34717031425E+04  0.00000000000E+00 0. -1.
          1   -1    0    0  501    0 -0.00000000000E+00 -0.00000000000E+00 -0.38391004363E+03  0.38391004363E+03  0.00000000000E+00 0. -1.
         25    2    1    2    0    0 -0.73688739023E+02  0.66523675326E+02  0.14117645196E+04  0.14207595897E+04  0.12499329346E+03 0.  0.
          2    1    1    2  501    0  0.21596269157E+02 -0.47455499404E+02 -0.37724492850E+03  0.38083088024E+03  0.00000000000E+00 0. -1.
          1    1    1    2  502    0  0.52092469865E+02 -0.19068175922E+02  0.20532735078E+04  0.20540227161E+04  0.00000000000E+00 0. -1.
         22    1    3    3    0    0 -0.14743361333E+02 -0.10807380998E+02  0.87928024512E+03  0.87947024716E+03  0.00000000000E+00 0. -1.
         22    1    3    3    0    0 -0.58945377690E+02  0.77331056324E+02  0.53248427449E+03  0.54128934259E+03  0.00000000000E+00 0. -1.
</event>
<event>
 7    1  0.6273950E-006  0.5280117E+02  0.7818608E-02  0.1550514E+00
          2   -1    0    0  502    0  0.00000000000E+00  0.00000000000E+00  0.20311347851E+04  0.20311347851E+04  0.00000000000E+00 0. -1.
          1   -1    0    0  501    0 -0.00000000000E+00 -0.00000000000E+00 -0.15453724362E+03  0.15453724362E+03  0.00000000000E+00 0. -1.
         25    2    1    2    0    0  0.69683407670E+02  0.64745805943E+01 -0.42473345771E+02  0.14939405979E+03  0.12496760581E+03 0.  0.
          2    1    1    2  501    0 -0.19989335612E+02  0.11207060999E+02 -0.55997545955E+02  0.60505346107E+02  0.00000000000E+00 0. -1.
          1    1    1    2  502    0 -0.49694072058E+02 -0.17681641594E+02  0.19750684332E+04  0.19757726228E+04  0.00000000000E+00 0. -1.
         22    1    3    3    0    0  0.60567173104E+01  0.44614036553E+02 -0.58181110725E+02  0.73567232701E+02  0.00000000000E+00 0.  1.
         22    1    3    3    0    0  0.63626690360E+02 -0.38139455959E+02  0.15707764954E+02  0.75826827092E+02  0.00000000000E+00 0.  1.
</event>
<event>
 7    1  0.6273950E-006  0.9734544E+02  0.7818608E-02  0.1478825E+00
          2   -1    0    0  502    0  0.00000000000E+00  0.00000000000E+00  0.46187988858E+03  0.46187988858E+03  0.00000000000E+00 0. -1.
          1   -1    0    0  501    0 -0.00000000000E+00 -0.00000000000E+00 -0.31728131009E+03  0.31728131009E+03  0.00000000000E+00 0. -1.
         25    2    1    2    0    0  0.26504206372E+02  0.74649077534E+02  0.35270437162E+02  0.15212971956E+03  0.12499796040E+03 0.  0.
          2    1    1    2  501    0 -0.35973382520E+02 -0.92436248446E+02 -0.24905613568E+03  0.26808115002E+03  0.00000000000E+00 0. -1.
          1    1    1    2  502    0  0.94691761486E+01  0.17787170913E+02  0.35838427700E+03  0.35895032908E+03  0.00000000000E+00 0. -1.
         22    1    3    3    0    0  0.48741192603E+01  0.10751598826E+03  0.33596648829E+02  0.11274830191E+03  0.00000000000E+00 0. -1.
         22    1    3    3    0    0  0.21630087111E+02 -0.32866910727E+02  0.16737883337E+01  0.39381417656E+02  0.00000000000E+00 0. -1.
</event>
<event>
 7    1  0.6273950E-006  0.7967921E+02  0.7818608E-02  0.1456598E+00
          2   -1    0    0  502    0  0.00000000000E+00  0.00000000000E+00  0.71382725933E+03  0.71382725933E+03  0.00000000000E+00 0. -1.
          1   -1    0    0  501    0 -0.00000000000E+00 -0.00000000000E+00 -0.91751077523E+03  0.91751077523E+03  0.00000000000E+00 0. -1.
         25    2    1    2    0    0 -0.10469629907E+02 -0.71252233838E+02  0.43502339301E+02  0.15066846071E+03  0.12498814964E+03 0.  0.
          2    1    1    2  501    0  0.39303495670E+02  0.69582571100E+02 -0.86173973241E+03  0.86543738387E+03  0.00000000000E+00 0. -1.
          1    1    1    2  502    0 -0.28833865763E+02  0.16696627377E+01  0.61455387722E+03  0.61523218998E+03  0.00000000000E+00 0. -1.
         22    1    3    3    0    0  0.45867933052E+01  0.33998247230E+02 -0.33733015061E+01  0.34471707974E+02  0.00000000000E+00 0.  1.
         22    1    3    3    0    0 -0.15056423212E+02 -0.10525048107E+03  0.46875640807E+02  0.11619675273E+03  0.00000000000E+00 0.  1.
</event>
<event>
 7    1  0.6273950E-006  0.2252985E+03  0.7818608E-02  0.1258557E+00
          2   -1    0    0  502    0  0.00000000000E+00  0.00000000000E+00  0.88029773239E+03  0.88029773239E+03  0.00000000000E+00 0. -1.
          1   -1    0    0  501    0 -0.00000000000E+00 -0.00000000000E+00 -0.73838712911E+03  0.73838712911E+03  0.00000000000E+00 0. -1.
         25    2    1    2    0    0 -0.19683465914E+03  0.13343079607E+02 -0.18535006554E+03  0.29816462143E+03  0.12500229544E+03 0.  0.
          2    1    1    2  501    0  0.23975965896E+03  0.20690634053E+02 -0.46647732136E+03  0.52489416814E+03  0.00000000000E+00 0. -1.
          1    1    1    2  502    0 -0.42924999814E+02 -0.34033713660E+02  0.79373799019E+03  0.79562607193E+03  0.00000000000E+00 0. -1.
         22    1    3    3    0    0 -0.77120429379E+02  0.64729507795E+02 -0.10303459470E+03  0.14406108951E+03  0.00000000000E+00 0. -1.
         22    1    3    3    0    0 -0.11971422976E+03 -0.51386428188E+02 -0.82315470845E+02  0.15410353192E+03  0.00000000000E+00 0. -1.
</event>
<event>
 7    1  0.6273950E-006  0.8996790E+02  0.7818608E-02  0.1411962E+00
          2   -1    0    0  502    0  0.00000000000E+00  0.00000000000E+00  0.19396419212E+04  0.19396419212E+04  0.00000000000E+00 0. -1.
          1   -1    0    0  501    0 -0.00000000000E+00 -0.00000000000E+00 -0.46738371418E+03  0.46738371418E+03  0.00000000000E+00 0. -1.
         25    2    1    2    0    0  0.67645882086E+02  0.43711146331E+02  0.35809699590E+02  0.15295879820E+03  0.12500971837E+03 0.  0.
          2    1    1    2  501    0 -0.89497168385E+02 -0.15344229133E+02 -0.40359063022E+03  0.41367932667E+03  0.00000000000E+00 0. -1.
          1    1    1    2  502    0  0.21851286299E+02 -0.28366917198E+02  0.18400391377E+04  0.18403875105E+04  0.00000000000E+00 0. -1.
         22    1    3    3    0    0  0.80613893093E+02 -0.15874149787E+02  0.40876354617E+02  0.91768539042E+02  0.00000000000E+00 0.  1.
         22    1    3    3    0    0 -0.12968011007E+02  0.59585296118E+02 -0.50666550273E+01  0.61190259160E+02  0.00000000000E+00 0.  1.
</event>
<event>
 7    1  0.6273950E-006  0.1284644E+03  0.7818608E-02  0.1373740E+00
          2   -1    0    0  502    0  0.00000000000E+00  0.00000000000E+00  0.14142324041E+04  0.14142324041E+04  0.00000000000E+00 0. -1.
          1   -1    0    0  501    0 -0.00000000000E+00 -0.00000000000E+00 -0.27859457874E+03  0.27859457874E+03  0.00000000000E+00 0. -1.
         25    2    1    2    0    0 -0.13922634757E+03 -0.58671863998E+02  0.17581384242E+03  0.26336598091E+03  0.12499907691E+03 0.  0.
          2    1    1    2  501    0  0.12363961180E+03  0.28398317103E+02 -0.21742068569E+03  0.25172400082E+03  0.00000000000E+00 0. -1.
          1    1    1    2  502    0  0.15586735770E+02  0.30273546895E+02  0.11772446686E+04  0.11777370011E+04  0.00000000000E+00 0. -1.
         22    1    3    3    0    0 -0.14892431623E+03 -0.16696543461E+02  0.11528435937E+03  0.18907064829E+03  0.00000000000E+00 0. -1.
         22    1    3    3    0    0  0.96979686596E+01 -0.41975320537E+02  0.60529483047E+02  0.74295332614E+02  0.00000000000E+00 0. -1.
</event>
<event>
 7    1  0.6273950E-006  0.6162644E+02  0.7818608E-02  0.1426399E+00
          2   -1    0    0  502    0  0.00000000000E+00  0.00000000000E+00  0.49947361996E+02  0.49947361996E+02  0.00000000000E+00 0. -1.
          1   -1    0    0  501    0 -0.00000000000E+00 -0.00000000000E+00 -0.47873667776E+03  0.47873667776E+03  0.00000000000E+00 0. -1.
         25    2    1    2    0    0  0.19093199533E+02  0.14588658538E+02 -0.27985509612E+03  0.30744269742E+03  0.12499903258E+03 0.  0.
          2    1    1    2  501    0  0.46501411447E+02 -0.50520422514E+01 -0.14771708564E+03  0.15494593182E+03  0.00000000000E+00 0. -1.
          1    1    1    2  502    0 -0.65594610980E+02 -0.95366162866E+01 -0.12171340007E+01  0.66295410512E+02  0.00000000000E+00 0. -1.
         22    1    3    3    0    0 -0.44265758474E+02  0.24484396061E+02 -0.60270738682E+02  0.78686116724E+02  0.00000000000E+00 0. -1.
         22    1    3    3    0    0  0.63358958007E+02 -0.98957375235E+01 -0.21958435744E+03  0.22875658070E+03  0.00000000000E+00 0. -1.
</event>
<event>
 7    1  0.6273950E-006  0.1319678E+03  0.7818608E-02  0.1266364E+00
          2   -1    0    0  502    0  0.00000000000E+00  0.00000000000E+00  0.90355738022E+03  0.90355738022E+03  0.00000000000E+00 0. -1.
          1   -1    0    0  501    0 -0.00000000000E+00 -0.00000000000E+00 -0.72970299324E+02  0.72970299324E+02  0.00000000000E+00 0. -1.
         25    2    1    2    0    0 -0.38999585663E+02 -0.14702352695E+03  0.40088091338E+03  0.44661808026E+03  0.12500127097E+03 0.  0.
          2    1    1    2  501    0 -0.60713435976E+02  0.61811354362E+02  0.65468363023E+01  0.86888583264E+02  0.00000000000E+00 0. -1.
          1    1    1    2  502    0  0.99713021639E+02  0.85212172585E+02  0.42315933121E+03  0.44302101602E+03  0.00000000000E+00 0. -1.
         22    1    3    3    0    0 -0.50515004930E+02 -0.62382201183E+02  0.31660241097E+03  0.32661964329E+03  0.00000000000E+00 0. -1.
         22    1    3    3    0    0  0.11515419267E+02 -0.84641325764E+02  0.84278502410E+02  0.11999843698E+03  0.00000000000E+00 0. -1.
</event>
<event>
 7    1  0.6273950E-006  0.2446638E+03  0.7818608E-02  0.1171172E+00
          2   -1    0    0  502    0  0.00000000000E+00  0.00000000000E+00  0.81767379701E+03  0.81767379701E+03  0.00000000000E+00 0. -1.
          1   -1    0    0  501    0 -0.00000000000E+00 -0.00000000000E+00 -0.14591223452E+04  0.14591223452E+04  0.00000000000E+00 0. -1.
         25    2    1    2    0    0  0.30463171441E+02  0.12329779404E+03  0.15005913016E+03  0.23296385184E+03  0.12499625152E+03 0.  0.
          2    1    1    2  501    0 -0.23577467863E+02 -0.25052854753E+03 -0.13998512373E+04  0.14222882749E+04  0.00000000000E+00 0. -1.
          1    1    1    2  502    0 -0.68857035781E+01  0.12723075350E+03  0.60834355895E+03  0.62154401555E+03  0.00000000000E+00 0. -1.
         22    1    3    3    0    0 -0.65870091370E+01 -0.12704830900E+02  0.68774110358E+02  0.70247275200E+02  0.00000000000E+00 0.  1.
         22    1    3    3    0    0  0.37050180578E+02  0.13600262494E+03  0.81285019801E+02  0.16271657664E+03  0.00000000000E+00 0.  1.
</event>
<event>
 7    1  0.6273950E-006  0.9572110E+02  0.7818608E-02  0.1353275E+00
          2   -1    0    0  502    0  0.00000000000E+00  0.00000000000E+00  0.10046732789E+03  0.10046732789E+03  0.00000000000E+00 0. -1.
          1   -1    0    0  501    0 -0.00000000000E+00 -0.00000000000E+00 -0.97273116363E+03  0.97273116363E+03  0.00000000000E+00 0. -1.
         25    2    1    2    0    0  0.55000885870E+02  0.53210029055E+02 -0.18641225362E+03  0.23712929499E+03  0.12499747840E+03 0.  0.
          2    1    1    2  501    0 -0.22989468027E+02 -0.96977086342E+02 -0.74741492664E+03  0.75403059851E+03  0.00000000000E+00 0. -1.
          1    1    1    2  502    0 -0.32011417843E+02  0.43767057287E+02  0.61563344523E+02  0.82038598017E+02  0.00000000000E+00 0. -1.
         22    1    3    3    0    0  0.70013537109E+02  0.61409867565E+02 -0.19637114679E+03  0.21733544236E+03  0.00000000000E+00 0.  1.
         22    1    3    3    0    0 -0.15012651240E+02 -0.81998385097E+01  0.99588931729E+01  0.19793852633E+02  0.00000000000E+00 0.  1.
</event>
<event>
 7    1  0.6273950E-006  0.1520684E+03  0.7818608E-02  0.1361518E+00
          2   -1    0    0  502    0  0.00000000000E+00  0.00000000000E+00  0.14222731606E+04  0.14222731606E+04  0.00000000000E+00 0. -1.
          1   -1    0    0  501    0 -0.00000000000E+00 -0.00000000000E+00 -0.11116814384E+03  0.11116814384E+03  0.00000000000E+00 0. -1.
         25    2    1    2    0    0  0.15398989682E+03  0.91068601477E+02  0.38390921391E+03  0.44160798733E+03  0.12499980580E+03 0.  0.
          2    1    1    2  501    0 -0.27118744063E+02 -0.16682706711E+02 -0.73651078415E+02  0.80238521512E+02  0.00000000000E+00 0. -1.
          1    1    1    2  502    0 -0.12687115276E+03 -0.74385894766E+02  0.10008468812E+04  0.10115947956E+04  0.00000000000E+00 0. -1.
         22    1    3    3    0    0  0.16746230195E+03  0.66595080958E+02  0.36723853113E+03  0.40907537952E+03  0.00000000000E+00 0.  1.
         22    1    3    3    0    0 -0.13472405133E+02  0.24473520519E+02  0.16670682785E+02  0.32532607814E+02  0.00000000000E+00 0.  1.
</event>
<event>
 7    1  0.6273950E-006  0.1731871E+03  0.7818608E-02  0.1318205E+00
          2   -1    0    0  502    0  0.00000000000E+00  0.00000000000E+00  0.12831467788E+04  0.12831467788E+04  0.00000000000E+00 0. -1.
          1   -1    0    0  501    0 -0.00000000000E+00 -0.00000000000E+00 -0.26524270114E+03  0.26524270114E+03  0.00000000000E+00 0. -1.
         25    2    1    2    0    0 -0.65973038984E+02 -0.13462481545E+03  0.14327247650E+03  0.24213245540E+03  0.12499936252E+03 0.  0.
          2    1    1    2  501    0  0.48394293661E+02  0.17132441407E+03 -0.17863808869E+03  0.25220156472E+03  0.00000000000E+00 0. -1.
          1    1    1    2  502    0  0.17578745323E+02 -0.36699598620E+02  0.10532696898E+04  0.10540554598E+04  0.00000000000E+00 0. -1.
         22    1    3    3    0    0 -0.62299447730E+01 -0.13621025457E+02  0.98971104144E+02  0.10009807192E+03  0.00000000000E+00 0. -1.
         22    1    3    3    0    0 -0.59743094211E+02 -0.12100379000E+03  0.44301372352E+02  0.14203438348E+03  0.00000000000E+00 0. -1.
</event>
<event>
 7    1  0.6273950E-006  0.1904018E+03  0.7818608E-02  0.1220315E+00
          2   -1    0    0  502    0  0.00000000000E+00  0.00000000000E+00  0.20617079990E+04  0.20617079990E+04  0.00000000000E+00 0. -1.
          1   -1    0    0  501    0 -0.00000000000E+00 -0.00000000000E+00 -0.31565234360E+03  0.31565234360E+03  0.00000000000E+00 0. -1.
         25    2    1    2    0    0 -0.45107976113E+01  0.24340118796E+03  0.14448688602E+03  0.30946088973E+03  0.12500038579E+03 0.  0.
          2    1    1    2  501    0  0.68695338164E+02 -0.66517807722E+02 -0.21830212468E+03  0.23832642714E+03  0.00000000000E+00 0. -1.
          1    1    1    2  502    0 -0.64184540552E+02 -0.17688338023E+03  0.18198708940E+04  0.18295730257E+04  0.00000000000E+00 0. -1.
         22    1    3    3    0    0 -0.45622721393E+02  0.21886001654E+03  0.13331185799E+03  0.26029443141E+03  0.00000000000E+00 0.  1.
         22    1    3    3    0    0  0.41111923782E+02  0.24541171418E+02  0.11175028031E+02  0.49166458314E+02  0.00000000000E+00 0.  1.
</event>
<event>
 7    1  0.6273950E-006  0.9095051E+02  0.7818608E-02  0.1332106E+00
          2   -1    0    0  502    0  0.00000000000E+00  0.00000000000E+00  0.53320773746E+03  0.53320773746E+03  0.00000000000E+00 0. -1.
          1   -1    0    0  501    0 -0.00000000000E+00 -0.00000000000E+00 -0.16897040820E+03  0.16897040820E+03  0.00000000000E+00 0. -1.
         25    2    1    2    0    0 -0.87430133278E+02 -0.11046838726E+03  0.11564236311E+03  0.22098963317E+03  0.12496387092E+03 0.  0.
          2    1    1    2  501    0  0.24527584669E+02  0.83337690900E+02 -0.96220141606E+02  0.12963444290E+03  0.00000000000E+00 0. -1.
          1    1    1    2  502    0  0.62902548609E+02  0.27130696356E+02  0.34481510776E+03  0.35155406959E+03  0.00000000000E+00 0. -1.
         22    1    3    3    0    0 -0.15058046187E+02 -0.25060091068E+02 -0.26909301364E+02  0.39734914360E+02  0.00000000000E+00 0. -1.
         22    1    3    3    0    0 -0.72372087091E+02 -0.85408296188E+02  0.14255166447E+03  0.18125471881E+03  0.00000000000E+00 0. -1.
</event>
<event>
 7    1  0.6273950E-006  0.8357086E+02  0.7818608E-02  0.1409263E+00
          2   -1    0    0  502    0  0.00000000000E+00  0.00000000000E+00  0.29233827473E+02  0.29233827473E+02  0.00000000000E+00 0. -1.
          1   -1    0    0  501    0 -0.00000000000E+00 -0.00000000000E+00 -0.23465061459E+04  0.23465061459E+04  0.00000000000E+00 0. -1.
         25    2    1    2    0    0  0.93497645190E+02  0.71444520490E+02 -0.95064255807E+03  0.96601861597E+03  0.12499825610E+03 0.  0.
          2    1    1    2  501    0 -0.22786625435E+02 -0.32102841062E+02 -0.13108479659E+04  0.13114389854E+04  0.00000000000E+00 0. -1.
          1    1    1    2  502    0 -0.70711019755E+02 -0.39341679428E+02 -0.55781794463E+02  0.98282372013E+02  0.00000000000E+00 0. -1.
         22    1    3    3    0    0  0.73580442188E+02  0.32068036386E+02 -0.22240568572E+03  0.23644603924E+03  0.00000000000E+00 0. -1.
         22    1    3    3    0    0  0.19917203002E+02  0.39376484104E+02 -0.72823687235E+03  0.72957257673E+03  0.00000000000E+00 0. -1.
</event>
<event>
 7    1  0.6273950E-006  0.5484625E+02  0.7818608E-02  0.1462185E+00
          2   -1    0    0  502    0  0.00000000000E+00  0.00000000000E+00  0.38454590513E+03  0.38454590513E+03  0.00000000000E+00 0. -1.
          1   -1    0    0  501    0 -0.00000000000E+00 -0.00000000000E+00 -0.74164500865E+03  0.74164500865E+03  0.00000000000E+00 0. -1.
         25    2    1    2    0    0  0.67430815198E+02  0.27938543259E+02 -0.46505679029E+03  0.48706101532E+03  0.12499254943E+03 0.  0.
          2    1    1    2  501    0 -0.36406220071E+02  0.17256620163E+02 -0.26202690017E+03  0.26510620553E+03  0.00000000000E+00 0. -1.
          1    1    1    2  502    0 -0.31024595126E+02 -0.45195163422E+02  0.36998458694E+03  0.37402369293E+03  0.00000000000E+00 0. -1.
         22    1    3    3    0    0  0.97286663589E+02  0.48274985648E+02 -0.35185998993E+03  0.36823989690E+03  0.00000000000E+00 0. -1.
         22    1    3    3    0    0 -0.29855848391E+02 -0.20336442389E+02 -0.11319680036E+03  0.11882111843E+03  0.00000000000E+00 0. -1.
</event>
<event>
 7    1  0.6273950E-006  0.8280902E+02  0.7818608E-02  0.1364549E+00
          2   -1    0    0  502    0  0.00000000000E+00  0.00000000000E+00  0.43738795932E+03  0.43738795932E+03  0.00000000000E+00 0. -1.
          1   -1    0    0  501    0 -0.00000000000E+00 -0.00000000000E+00 -0.11871333030E+03  0.11871333030E+03  0.00000000000E+00 0. -1.
         25    2    1    2    0    0 -0.61870607513E+02  0.81539075022E+02  0.78196539761E+02  0.17949161328E+03  0.12500379026E+03 0.  0.
          2    1    1    2  501    0  0.77244935775E+02 -0.26646584442E+02 -0.39591114004E+02  0.90798000383E+02  0.00000000000E+00 0. -1.
          1    1    1    2  502    0 -0.15374328263E+02 -0.54892490580E+02  0.28006920327E+03  0.28581167595E+03  0.00000000000E+00 0. -1.
         22    1    3    3    0    0 -0.73603739819E+02  0.56297860028E+02 -0.39573884528E+01  0.92750312573E+02  0.00000000000E+00 0. -1.
         22    1    3    3    0    0  0.11733132307E+02  0.25241214995E+02  0.82153928214E+02  0.86741300711E+02  0.00000000000E+00 0. -1.
</event>
<event>
 7    1  0.6273950E-006  0.4207562E+02  0.7818608E-02  0.1536857E+00
          2   -1    0    0  502    0  0.00000000000E+00  0.00000000000E+00  0.14942926513E+04  0.14942926513E+04  0.00000000000E+00 0. -1.
          1   -1    0    0  501    0 -0.00000000000E+00 -0.00000000000E+00 -0.52876944474E+02  0.52876944474E+02  0.00000000000E+00 0. -1.
         25    2    1    2    0    0 -0.13532866083E+02 -0.13729549296E+02  0.25875421018E+03  0.28800900525E+03  0.12499522722E+03 0.  0.
          2    1    1    2  501    0  0.43183995816E+02  0.33411725023E+01 -0.25717832231E+02  0.50372887777E+02  0.00000000000E+00 0. -1.
          1    1    1    2  502    0 -0.29651129733E+02  0.10388376794E+02  0.12083793289E+04  0.12087877028E+04  0.00000000000E+00 0. -1.
         22    1    3    3    0    0 -0.17615028360E+02  0.19127128644E+01 -0.89268187633E+01  0.19840256749E+02  0.00000000000E+00 0.  1.
         22    1    3    3    0    0  0.40821622774E+01 -0.15642262161E+02  0.26768102895E+03  0.26816874850E+03  0.00000000000E+00 0.  1.
</event>
<event>
 7    1  0.6273950E-006  0.6958568E+02  0.7818608E-02  0.1373913E+00
          2   -1    0    0  502    0  0.00000000000E+00  0.00000000000E+00  0.14044550698E+04  0.14044550698E+04  0.00000000000E+00 0. -1.
          1   -1    0    0  501    0 -0.00000000000E+00 -0.00000000000E+00 -0.37112222880E+03  0.37112222880E+03  0.00000000000E+00 0. -1.
         25    2    1    2    0    0  0.23209306240E+02  0.61415787479E+02 -0.39531823406E+00  0.14119411224E+03  0.12500020083E+03 0.  0.
          2    1    1    2  501    0 -0.68979791191E+02 -0.18457177551E+02 -0.29533180247E+03  0.30384165703E+03  0.00000000000E+00 0. -1.
          1    1    1    2  502    0  0.45770484951E+02 -0.42958609929E+02  0.13290599617E+04  0.13305415293E+04  0.00000000000E+00 0. -1.
         22    1    3    3    0    0 -0.40200589309E+02 -0.22016338746E+01 -0.25837475214E+02  0.47838370561E+02  0.00000000000E+00 0. -1.
         22    1    3    3    0    0  0.63409895549E+02  0.63617421354E+02  0.25442156980E+02  0.93355741683E+02  0.00000000000E+00 0. -1.
</event>
<event>
 7    1  0.6273950E-006  0.6116093E+02  0.7818608E-02  0.1396389E+00
          2   -1    0    0  502    0  0.00000000000E+00  0.00000000000E+00  0.23767820135E+03  0.23767820135E+03  0.00000000000E+00 0. -1.
          1   -1    0    0  501    0 -0.00000000000E+00 -0.00000000000E+00 -0.36450874435E+04  0.36450874435E+04  0.00000000000E+00 0. -1.
         25    2    1    2    0    0 -0.21735918407E+02 -0.34355499693E+02 -0.18544759703E+04  0.18591286082E+04  0.12500122756E+03 0.  0.
          2    1    1    2  501    0  0.57523818237E+02 -0.15363588734E+02 -0.17837936928E+04  0.17847870931E+04  0.00000000000E+00 0. -1.
          1    1    1    2  502    0 -0.35787899830E+02  0.49719088427E+02  0.23086042096E+03  0.23884994346E+03  0.00000000000E+00 0. -1.
         22    1    3    3    0    0  0.19400811894E+02 -0.52812846537E+02 -0.15778051663E+04  0.15788080096E+04  0.00000000000E+00 0. -1.
         22    1    3    3    0    0 -0.41136730301E+02  0.18457346844E+02 -0.27667080404E+03  0.28032059867E+03  0.00000000000E+00 0. -1.
</event>
<event>
 7    1  0.6273950E-006  0.1912056E+03  0.7818608E-02  0.1234018E+00
          2   -1    0    0  502    0  0.00000000000E+00  0.00000000000E+00  0.47268239303E+04  0.47268239303E+04  0.00000000000E+00 0. -1.
          1   -1    0    0  501    0 -0.00000000000E+00 -0.00000000000E+00 -0.12903954537E+03  0.12903954537E+03  0.00000000000E+00 0. -1.
         25    2    1    2    0    0 -0.19911245067E+03  0.11923762658E+03  0.87772644541E+03  0.91645609967E+03  0.12499876021E+03 0.  0.
          2    1    1    2  501    0  0.15335550425E+02 -0.81167291286E+02 -0.91477816296E+02  0.12325379976E+03  0.00000000000E+00 0. -1.
          1    1    1    2  502    0  0.18377690024E+03 -0.38070335293E+02  0.38115357559E+04  0.38161535763E+04  0.00000000000E+00 0. -1.
         22    1    3    3    0    0 -0.64966757018E+02  0.97282927677E+02  0.53745526916E+03  0.55003892034E+03  0.00000000000E+00 0.  1.
         22    1    3    3    0    0 -0.13414569365E+03  0.21954698903E+02  0.34027117625E+03  0.36641717934E+03  0.00000000000E+00 0.  1.
</event>
<event>
 7    1  0.6273950E-006  0.6977912E+02  0.7818608E-02  0.1485336E+00
          2   -1    0    0  502    0  0.00000000000E+00  0.00000000000E+00  0.15997756644E+04  0.15997756644E+04  0.00000000000E+00 0. -1.
          1   -1    0    0  501    0 -0.00000000000E+00 -0.00000000000E+00 -0.12653479740E+04  0.12653479740E+04  0.00000000000E+00 0. -1.
         25    2    1    2    0    0 -0.23052000843E+02  0.39561403011E+02  0.10441120776E+03  0.16918471338E+03  0.12500107033E+03 0.  0.
          2    1    1    2  501    0  0.46889340021E+02 -0.51921340450E+02 -0.12318454181E+04  0.12338304462E+04  0.00000000000E+00 0. -1.
          1    1    1    2  502    0 -0.23837339178E+02  0.12359937439E+02  0.14618619008E+04  0.14621084788E+04  0.00000000000E+00 0. -1.
         22    1    3    3    0    0  0.28494334774E+02 -0.16398900306E+01 -0.15379030412E+02  0.32421149424E+02  0.00000000000E+00 0.  1.
         22    1    3    3    0    0 -0.51546335617E+02  0.41201293042E+02  0.11979023818E+03  0.13676356396E+03  0.00000000000E+00 0.  1.
</event>
<event>
 7    1  0.6273950E-006  0.8928019E+02  0.7818608E-02  0.1356597E+00
          2   -1    0    0  502    0  0.00000000000E+00  0.00000000000E+00  0.19197774893E+03  0.19197774893E+03  0.00000000000E+00 0. -1.
          1   -1    0    0  501    0 -0.00000000000E+00 -0.00000000000E+00 -0.49226100129E+03  0.49226100129E+03  0.00000000000E+00 0. -1.
         25    2    1    2    0    0  0.89017874407E+02 -0.70681877587E+02 -0.23976095404E+03  0.29330980704E+03  0.12500087216E+03 0.  0.
          2    1    1    2  501    0 -0.32999689609E+02  0.78224477394E+02 -0.21247209543E+03  0.22880655523E+03  0.00000000000E+00 0. -1.
          1    1    1    2  502    0 -0.56018184799E+02 -0.75425998068E+01  0.15194979710E+03  0.16212238797E+03  0.00000000000E+00 0. -1.
         22    1    3    3    0    0 -0.30384220540E+02 -0.39793614960E+00 -0.41654211457E+02  0.51559989751E+02  0.00000000000E+00 0.  1.
         22    1    3    3    0    0  0.11940209495E+03 -0.70283941437E+02 -0.19810674258E+03  0.24174981728E+03  0.00000000000E+00 0.  1.
</event>
<event>
 7    1  0.6273950E-006  0.1578039E+03  0.7818608E-02  0.1403491E+00
          2   -1    0    0  502    0  0.00000000000E+00  0.00000000000E+00  0.74159374471E+03  0.74159374471E+03  0.00000000000E+00 0. -1.
          1   -1    0    0  501    0 -0.00000000000E+00 -0.00000000000E+00 -0.51762554557E+03  0.51762554557E+03  0.00000000000E+00 0. -1.
         25    2    1    2    0    0  0.16089710384E+03  0.59920478290E+02 -0.36592193749E+03  0.42308709831E+03  0.12500194669E+03 0.  0.
          2    1    1    2  501    0 -0.85001486628E+01 -0.20090096477E+02 -0.11336901380E+03  0.11544868034E+03  0.00000000000E+00 0. -1.
          1    1    1    2  502    0 -0.15239695518E+03 -0.39830381813E+02  0.70325915043E+03  0.72068351163E+03  0.00000000000E+00 0. -1.
         22    1    3    3    0    0  0.48260708084E+02  0.69838441205E+02 -0.84405095884E+02  0.11971100211E+03  0.00000000000E+00 0. -1.
         22    1    3    3    0    0  0.11263639576E+03 -0.99179629150E+01 -0.28151684161E+03  0.30337609620E+03  0.00000000000E+00 0. -1.
</event>
<event>
 7    1  0.6273950E-006  0.1410663E+03  0.7818608E-02  0.1359076E+00
          2   -1    0    0  502    0  0.00000000000E+00  0.00000000000E+00  0.41087718425E+03  0.41087718425E+03  0.00000000000E+00 0. -1.
          1   -1    0    0  501    0 -0.00000000000E+00 -0.00000000000E+00 -0.20615363889E+04  0.20615363889E+04  0.00000000000E+00 0. -1.
         25    2    1    2    0    0 -0.10820858735E+03  0.22413835395E+02 -0.38774582813E+02  0.17128349525E+03  0.12499235609E+03 0.  0.
          2    1    1    2  501    0 -0.34308754728E+02  0.70907612836E+01 -0.19409763534E+04  0.19412925009E+04  0.00000000000E+00 0. -1.
          1    1    1    2  502    0  0.14251734207E+03 -0.29504596679E+02  0.32909173158E+03  0.35983757699E+03  0.00000000000E+00 0. -1.
         22    1    3    3    0    0 -0.42798904689E+02 -0.30664416311E+02 -0.64449580840E+02  0.83221398334E+02  0.00000000000E+00 0. -1.
         22    1    3    3    0    0 -0.65409682657E+02  0.53078251706E+02  0.25674998027E+02  0.88062096915E+02  0.00000000000E+00 0. -1.
</event>
<event>
 7    1  0.6273950E-006  0.5222526E+02  0.7818608E-02  0.1479252E+00
          2   -1    0    0  502    0  0.00000000000E+00  0.00000000000E+00  0.86051682513E+03  0.86051682513E+03  0.00000000000E+00 0. -1.
          1   -1    0    0  501    0 -0.00000000000E+00 -0.00000000000E+00 -0.12866809179E+04  0.12866809179E+04  0.00000000000E+00 0. -1.
         25    2    1    2    0    0  0.19231369785E+02  0.90946764257E+01  0.99082627708E+02  0.16091869896E+03  0.12499960736E+03 0.  0.
          2    1    1    2  501    0 -0.51392166351E+02  0.10087143260E+02 -0.12547363643E+04  0.12558289092E+04  0.00000000000E+00 0. -1.
          1    1    1    2  502    0  0.32160796566E+02 -0.19181819686E+02  0.72948964385E+03  0.73045013486E+03  0.00000000000E+00 0. -1.
         22    1    3    3    0    0  0.27400667660E+02 -0.10444354273E+02 -0.22840780946E+02  0.37169643509E+02  0.00000000000E+00 0.  1.
         22    1    3    3    0    0 -0.81692978743E+01  0.19539030698E+02  0.12192340865E+03  0.12374905546E+03  0.00000000000E+00 0.  1.
</event>
<event>
 7    1  0.6273950E-006  0.1657264E+03  0.7818608E-02  0.1290120E+00
          2   -1    0    0  502    0  0.00000000000E+00  0.00000000000E+00  0.62204475852E+03  0.62204475852E+03  0.00000000000E+00 0. -1.
          1   -1    0    0  501    0 -0.00000000000E+00 -0.00000000000E+00 -0.29955206136E+04  0.29955206136E+04  0.00000000000E+00 0. -1.
         25    2    1    2    0    0 -0.11495141957E+03  0.11298626144E+02 -0.12425218520E+03  0.21073060932E+03  0.12500918511E+03 0.  0.
          2    1    1    2  501    0 -0.51966777746E+02  0.18005944185E+02 -0.28153498399E+04  0.28158869794E+04  0.00000000000E+00 0. -1.
          1    1    1    2  502    0  0.16691819732E+03 -0.29304570330E+02  0.56612616994E+03  0.59094778342E+03  0.00000000000E+00 0. -1.
         22    1    3    3    0    0 -0.11629927280E+03  0.52648866108E+02 -0.10403097890E+03  0.16468111162E+03  0.00000000000E+00 0.  1.
         22    1    3    3    0    0  0.13478532266E+01 -0.41350239964E+02 -0.20221206299E+02  0.46049497691E+02  0.00000000000E+00 0.  1.
</event>
<event>
 7    1  0.6273950E-006  0.6930407E+02  0.7818608E-02  0.1399772E+00
          2   -1    0    0  502    0  0.00000000000E+00  0.00000000000E+00  0.98701224222E+02  0.98701224222E+02  0.00000000000E+00 0. -1.
          1   -1    0    0  501    0 -0.00000000000E+00 -0.00000000000E+00 -0.19349855037E+04  0.19349855037E+04  0.00000000000E+00 0. -1.
         25    2    1    2    0    0 -0.15465167918E+02 -0.18765746849E+02 -0.14370595317E+03  0.19201028930E+03  0.12500090218E+03 0.  0.
          2    1    1    2  501    0 -0.44454621212E+02 -0.25303996977E+02 -0.17481063970E+04  0.17488546197E+04  0.00000000000E+00 0. -1.
          1    1    1    2  502    0  0.59919789130E+02  0.44069743826E+02  0.55528070637E+02  0.92821818981E+02  0.00000000000E+00 0. -1.
         22    1    3    3    0    0 -0.47585327333E+01  0.14663359077E+02  0.19621644159E+02  0.24953289416E+02  0.00000000000E+00 0.  1.
         22    1    3    3    0    0 -0.10706635185E+02 -0.33429105925E+02 -0.16332759733E+03  0.16705699988E+03  0.00000000000E+00 0.  1.
</event>
<event>
 7    1  0.6273950E-006  0.9385393E+02  0.7818608E-02  0.1366990E+00
          2   -1    0    0  502    0  0.00000000000E+00  0.00000000000E+00  0.16464597384E+03  0.16464597384E+03  0.00000000000E+00 0. -1.
          1   -1    0    0  501    0 -0.00000000000E+00 -0.00000000000E+00 -0.10567169920E+04  0.10567169920E+04  0.00000000000E+00 0. -1.
         25    2    1    2    0    0  0.16111913009E+02 -0.82885637396E+02 -0.16797913979E+02  0.15177931757E+03  0.12500067481E+03 0.  0.
          2    1    1    2  501    0  0.32827145524E+02  0.88707944327E+02 -0.96371032262E+03  0.96834100749E+03  0.00000000000E+00 0. -1.
          1    1    1    2  502    0 -0.48939058533E+02 -0.58223069310E+01  0.88437218436E+02  0.10124264078E+03  0.00000000000E+00 0. -1.
         22    1    3    3    0    0 -0.12727966878E+02  0.14055959656E+02  0.33748899736E+02  0.38711230620E+02  0.00000000000E+00 0. -1.
         22    1    3    3    0    0  0.28839879887E+02 -0.96941597052E+02 -0.50546813715E+02  0.11306808696E+03  0.00000000000E+00 0. -1.
</event>
<event>
 7    1  0.6273950E-006  0.1958757E+03  0.7818608E-02  0.1364152E+00
          2   -1    0    0  502    0  0.00000000000E+00  0.00000000000E+00  0.20837143095E+04  0.20837143095E+04  0.00000000000E+00 0. -1.
          1   -1    0    0  501    0 -0.00000000000E+00 -0.00000000000E+00 -0.17352018661E+03  0.17352018661E+03  0.00000000000E+00 0. -1.
         25    2    1    2    0    0  0.10454735217E+03  0.15241960297E+03  0.71815653211E+03  0.75201956847E+03  0.12499096981E+03 0.  0.
          2    1    1    2  501    0  0.24092768458E+02  0.20482178109E+01 -0.14811216610E+03  0.15007288374E+03  0.00000000000E+00 0. -1.
          1    1    1    2  502    0 -0.12864012062E+03 -0.15446782078E+03  0.13401497569E+04  0.13551420439E+04  0.00000000000E+00 0. -1.
         22    1    3    3    0    0  0.66354724966E+02  0.10991868879E+03  0.25649935841E+03  0.28683965649E+03  0.00000000000E+00 0. -1.
         22    1    3    3    0    0  0.38192627200E+02  0.42500914177E+02  0.46165717371E+03  0.46517991198E+03  0.00000000000E+00 0. -1.
</event>
<event>
 7    1  0.6273950E-006  0.4449899E+02  0.7818608E-02  0.1509505E+00
          2   -1    0    0  502    0  0.00000000000E+00  0.00000000000E+00  0.25575788320E+04  0.25575788320E+04  0.00000000000E+00 0. -1.
          1   -1    0    0  501    0 -0.00000000000E+00 -0.00000000000E+00 -0.15303047314E+03  0.15303047314E+03  0.00000000000E+00 0. -1.
         25    2    1    2    0    0  0.55804147601E+02  0.47379584196E+02  0.15328769345E+03  0.21090480612E+03  0.12499916958E+03 0.  0.
          2    1    1    2  501    0 -0.13942188384E+02 -0.32801515644E+02 -0.12145406999E+03  0.12657572896E+03  0.00000000000E+00 0. -1.
          1    1    1    2  502    0 -0.41861959217E+02 -0.14578068552E+02  0.23727147354E+04  0.23731287701E+04  0.00000000000E+00 0. -1.
         22    1    3    3    0    0  0.68612677392E+02  0.67806532373E+02  0.57877788595E+02  0.11249561655E+03  0.00000000000E+00 0. -1.
         22    1    3    3    0    0 -0.12808529791E+02 -0.20426948177E+02  0.95409904854E+02  0.98409189568E+02  0.00000000000E+00 0. -1.
</event>
<event>
 7    1  0.6273950E-006  0.5546566E+02  0.7818608E-02  0.1459453E+00
          2   -1    0    0  502    0  0.00000000000E+00  0.00000000000E+00  0.10097097563E+04  0.10097097563E+04  0.00000000000E+00 0. -1.
          1   -1    0    0  501    0 -0.00000000000E+00 -0.00000000000E+00 -0.26674037921E+03  0.26674037921E+03  0.00000000000E+00 0. -1.
         25    2    1    2    0    0 -0.23418792905E+02  0.10593646817E+01  0.98710414268E+02  0.16098826064E+03  0.12499564819E+03 0.  0.
          2    1    1    2  501    0  0.42798650020E+02 -0.36777207408E+02 -0.23174477697E+03  0.23851609816E+03  0.00000000000E+00 0. -1.
          1    1    1    2  502    0 -0.19379857115E+02  0.35717842726E+02  0.87600373980E+03  0.87694577671E+03  0.00000000000E+00 0. -1.
         22    1    3    3    0    0 -0.46438114276E+02 -0.15446963862E+02  0.11730498241E+03  0.12710454770E+03  0.00000000000E+00 0. -1.
         22    1    3    3    0    0  0.23019321372E+02  0.16506328544E+02 -0.18594568137E+02  0.33883712940E+02  0.00000000000E+00 0. -1.
</event>
<event>
 7    1  0.6273950E-006  0.3264330E+02  0.7818608E-02  0.1583540E+00
          2   -1    0    0  502    0  0.00000000000E+00  0.00000000000E+00  0.12244677629E+04  0.12244677629E+04  0.00000000000E+00 0. -1.
          1   -1    0    0  501    0 -0.00000000000E+00 -0.00000000000E+00 -0.31742195193E+03  0.31742195193E+03  0.00000000000E+00 0. -1.
         25    2    1    2    0    0 -0.20049134114E+02  0.15305162356E+00  0.24610726009E+03  0.27675867271E+03  0.12499835298E+03 0.  0.
          2    1    1    2  501    0  0.13874769775E+02 -0.29637739129E+02 -0.30097353253E+03  0.30274737340E+03  0.00000000000E+00 0. -1.
          1    1    1    2  502    0  0.61743643397E+01  0.29484687505E+02  0.96191208343E+03  0.96238366872E+03  0.00000000000E+00 0. -1.
         22    1    3    3    0    0  0.45932871499E+02 -0.20159717682E+02  0.59693335751E+02  0.77971387279E+02  0.00000000000E+00 0. -1.
         22    1    3    3    0    0 -0.65982005614E+02  0.20312769305E+02  0.18641392434E+03  0.19878728543E+03  0.00000000000E+00 0. -1.
</event>
<event>
 7    1  0.6273950E-006  0.6588450E+02  0.7818608E-02  0.1434005E+00
          2   -1    0    0  502    0  0.00000000000E+00  0.00000000000E+00  0.33867745347E+04  0.33867745347E+04  0.00000000000E+00 0. -1.
          1   -1    0    0  501    0 -0.00000000000E+00 -0.00000000000E+00 -0.78350999494E+03  0.78350999494E+03  0.00000000000E+00 0. -1.
         25    2    1    2    0    0 -0.36419518860E+01  0.10291575217E+03 -0.35124660169E+02  0.16571812482E+03  0.12499535705E+03 0.  0.
          2    1    1    2  501    0 -0.12861335800E+02 -0.39247800366E+02 -0.68213833972E+03  0.68338753157E+03  0.00000000000E+00 0. -1.
          1    1    1    2  502    0  0.16503287686E+02 -0.63667951800E+02  0.33205275397E+04  0.33211788733E+04  0.00000000000E+00 0. -1.
         22    1    3    3    0    0 -0.93600148569E+01 -0.24578486680E+02 -0.27221406400E+02  0.37851246373E+02  0.00000000000E+00 0. -1.
         22    1    3    3    0    0  0.57180629710E+01  0.12749423885E+03 -0.79032537690E+01  0.12786687844E+03  0.00000000000E+00 0. -1.
</event>
<event>
 7    1  0.6273950E-006  0.4512008E+02  0.7818608E-02  0.1567877E+00
          2   -1    0    0  502    0  0.00000000000E+00  0.00000000000E+00  0.19602412586E+04  0.19602412586E+04  0.00000000000E+00 0. -1.
          1   -1    0    0  501    0 -0.00000000000E+00 -0.00000000000E+00 -0.99938563096E+02  0.99938563096E+02  0.00000000000E+00 0. -1.
         25    2    1    2    0    0 -0.50814331709E+01  0.23851192274E+02  0.38966825119E+03  0.40995134449E+03  0.12499623405E+03 0.  0.
          2    1    1    2  501    0  0.10294824274E+02  0.21702269025E+02 -0.87847478047E+02  0.91072231152E+02  0.00000000000E+00 0. -1.
          1    1    1    2  502    0 -0.52133911029E+01 -0.45553461298E+02  0.15584819224E+04  0.15591562461E+04  0.00000000000E+00 0. -1.
         22    1    3    3    0    0 -0.49690466719E+02  0.37284155459E+02  0.10914713486E+03  0.12558800811E+03  0.00000000000E+00 0. -1.
         22    1    3    3    0    0  0.44609033548E+02 -0.13432963185E+02  0.28052111633E+03  0.28436333639E+03  0.00000000000E+00 0. -1.
</event>
<event>
 7    1  0.6273950E-006  0.1001079E+03  0.7818608E-02  0.1288999E+00
          2   -1    0    0  502    0  0.00000000000E+00  0.00000000000E+00  0.82058420543E+02  0.82058420543E+02  0.00000000000E+00 0. -1.
          1   -1    0    0  501    0 -0.00000000000E+00 -0.00000000000E+00 -0.12263400383E+04  0.12263400383E+04  0.00000000000E+00 0. -1.
         25    2    1    2    0    0  0.67060604002E+01 -0.52835035253E+02 -0.20325505430E+03  0.24448554486E+03  0.12499620935E+03 0.  0.
          2    1    1    2  501    0 -0.10031102510E+03  0.17342717360E+02 -0.95712104625E+03  0.96251949008E+03  0.00000000000E+00 0. -1.
          1    1    1    2  502    0  0.93604964697E+02  0.35492317893E+02  0.16094482748E+02  0.10139342395E+03  0.00000000000E+00 0. -1.
         22    1    3    3    0    0  0.26587900966E+02  0.34540898039E+02 -0.90577527808E+02  0.10052004108E+03  0.00000000000E+00 0.  1.
         22    1    3    3    0    0 -0.19881840565E+02 -0.87375933291E+02 -0.11267752649E+03  0.14396550378E+03  0.00000000000E+00 0.  1.
</event>
<event>
 7    1  0.6846218E-006  0.1575780E+03  0.7818608E-02  0.1317385E+00
          2   -1    0    0  502    0  0.00000000000E+00  0.00000000000E+00  0.20607922039E+04  0.20607922039E+04  0.00000000000E+00 0. -1.
          1   -1    0    0  501    0 -0.00000000000E+00 -0.00000000000E+00 -0.18965430101E+04  0.18965430101E+04  0.00000000000E+00 0. -1.
         25    2    1    2    0    0 -0.75081907337E+01  0.13230502526E+03 -0.65818780859E+03  0.68293263185E+03  0.12499918249E+03 0.  0.
          2    1    1    2  501    0  0.37410444707E+02 -0.16600438086E+03 -0.12198282966E+04  0.12316403976E+04  0.00000000000E+00 0. -1.
          1    1    1    2  502    0 -0.29902253973E+02  0.33699355595E+02  0.20422652990E+04  0.20427621846E+04  0.00000000000E+00 0. -1.
         22    1    3    3    0    0  0.58405236934E+02  0.72175402884E+02 -0.34715155928E+03  0.35935312103E+03  0.00000000000E+00 0. -1.
         22    1    3    3    0    0 -0.65913427668E+02  0.60129622379E+02 -0.31103624931E+03  0.32357951082E+03  0.00000000000E+00 0. -1.
</event>
<event>
 7    1  0.6273950E-006  0.1116935E+03  0.7818608E-02  0.1371042E+00
          2   -1    0    0  502    0  0.00000000000E+00  0.00000000000E+00  0.18818740956E+04  0.18818740956E+04  0.00000000000E+00 0. -1.
          1   -1    0    0  501    0 -0.00000000000E+00 -0.00000000000E+00 -0.36339817256E+02  0.36339817256E+02  0.00000000000E+00 0. -1.
         25    2    1    2    0    0  0.11022694730E+03 -0.34492017220E+02  0.63556126108E+03  0.65795328428E+03  0.12499891421E+03 0.  0.
          2    1    1    2  501    0 -0.88858919436E+02  0.68358933226E+02  0.10201156534E+03  0.15157575920E+03  0.00000000000E+00 0. -1.
          1    1    1    2  502    0 -0.21368027866E+02 -0.33866916006E+02  0.11079614520E+04  0.11086848694E+04  0.00000000000E+00 0. -1.
         22    1    3    3    0    0 -0.12191048116E+02  0.27293411123E+02  0.72200372688E+02  0.78143750621E+02  0.00000000000E+00 0.  1.
         22    1    3    3    0    0  0.12241799542E+03 -0.61785428344E+02  0.56336088839E+03  0.57980953366E+03  0.00000000000E+00 0.  1.
</event>
<event>
 7    1  0.6273950E-006  0.1517712E+03  0.7818608E-02  0.1344131E+00
          2   -1    0    0  502    0  0.00000000000E+00  0.00000000000E+00  0.74182251776E+03  0.74182251776E+03  0.00000000000E+00 0. -1.
          1   -1    0    0  501    0 -0.00000000000E+00 -0.00000000000E+00 -0.18020406262E+03  0.18020406262E+03  0.00000000000E+00 0. -1.
         25    2    1    2    0    0  0.95141129581E+02  0.14480283825E+03 -0.15388298861E+02  0.21420080772E+03  0.12500195911E+03 0.  0.
          2    1    1    2  501    0 -0.74719781778E+02 -0.11397328838E+03  0.68327219818E+01  0.13645381029E+03  0.00000000000E+00 0. -1.
          1    1    1    2  502    0 -0.20421347803E+02 -0.30829549870E+02  0.57017403202E+03  0.57137196237E+03  0.00000000000E+00 0. -1.
         22    1    3    3    0    0  0.64037771375E+02  0.63245458113E+01  0.20986976159E+02  0.67685221509E+02  0.00000000000E+00 0.  1.
         22    1    3    3    0    0  0.31103358206E+02  0.13847829244E+03 -0.36375275020E+02  0.14651558621E+03  0.00000000000E+00 0.  1.
</event>
<event>
 7    1  0.6273950E-006  0.1425746E+03  0.7818608E-02  0.1251538E+00
          2   -1    0    0  502    0  0.00000000000E+00  0.00000000000E+00  0.23582653992E+04  0.23582653992E+04  0.00000000000E+00 0. -1.
          1   -1    0    0  501    0 -0.00000000000E+00 -0.00000000000E+00 -0.51713047756E+02  0.51713047756E+02  0.00000000000E+00 0. -1.
         25    2    1    2    0    0  0.13272857103E+03 -0.13568899436E+03  0.30798299599E+03  0.38276062351E+03  0.12499516925E+03 0.  0.
          2    1    1    2  501    0 -0.92794097770E+02  0.86362155589E+00  0.17366107430E+03  0.19690012481E+03  0.00000000000E+00 0. -1.
          1    1    1    2  502    0 -0.39934473257E+02  0.13482537280E+03  0.18249082811E+04  0.18303176986E+04  0.00000000000E+00 0. -1.
         22    1    3    3    0    0 -0.11571345607E+02  0.13164929003E+02  0.42117949683E+02  0.45619437527E+02  0.00000000000E+00 0. -1.
         22    1    3    3    0    0  0.14429991663E+03 -0.14885392336E+03  0.26586504630E+03  0.33714118598E+03  0.00000000000E+00 0. -1.
</event>
<event>
 7    1  0.6273950E-006  0.8244987E+02  0.7818608E-02  0.1384124E+00
          2   -1    0    0  502    0  0.00000000000E+00  0.00000000000E+00  0.34451989387E+03  0.34451989387E+03  0.00000000000E+00 0. -1.
          1   -1    0    0  501    0 -0.00000000000E+00 -0.00000000000E+00 -0.27159078014E+03  0.27159078014E+03  0.00000000000E+00 0. -1.
         25    2    1    2    0    0 -0.93564292913E+02 -0.65635890180E+02  0.66712917009E+02  0.18203036105E+03  0.12498836769E+03 0.  0.
          2    1    1    2  501    0  0.44854982199E+02  0.67341927977E+02 -0.20338397799E+03  0.21888797864E+03  0.00000000000E+00 0. -1.
          1    1    1    2  502    0  0.48709310715E+02 -0.17060377965E+01  0.20960017470E+03  0.21519233432E+03  0.00000000000E+00 0. -1.
         22    1    3    3    0    0  0.26114848116E+02 -0.18079653133E+02 -0.85179583897E+01  0.32884871364E+02  0.00000000000E+00 0.  1.
         22    1    3    3    0    0 -0.11967914103E+03 -0.47556237047E+02  0.75230875399E+02  0.14914548968E+03  0.00000000000E+00 0.  1.
</event>
<event>
 7    1  0.6273950E-006  0.8390291E+02  0.7818608E-02  0.1464630E+00
          2   -1    0    0  502    0  0.00000000000E+00  0.00000000000E+00  0.14934855219E+04  0.14934855219E+04  0.00000000000E+00 0. -1.
          1   -1    0    0  501    0 -0.00000000000E+00 -0.00000000000E+00 -0.39558749757E+03  0.39558749757E+03  0.00000000000E+00 0. -1.
         25    2    1    2    0    0 -0.21042233177E+02  0.10105409737E+03 -0.11245754137E+03  0.19729739078E+03  0.12499942249E+03 0.  0.
          2    1    1    2  501    0  0.27712067223E+02 -0.76053521246E+02 -0.23378589236E+03  0.24740238526E+03  0.00000000000E+00 0. -1.
          1    1    1    2  502    0 -0.66698340456E+01 -0.25000576126E+02  0.14441414581E+04  0.14443732434E+04  0.00000000000E+00 0. -1.
         22    1    3    3    0    0 -0.24708950298E+02  0.55731303547E+02  0.14311085444E+02  0.62620424675E+02  0.00000000000E+00 0. -1.
         22    1    3    3    0    0  0.36667171214E+01  0.45322793825E+02 -0.12676862681E+03  0.13467696610E+03  0.00000000000E+00 0. -1.
</event>
<event>
 7    1  0.6273950E-006  0.1149780E+03  0.7818608E-02  0.1358951E+00
          2   -1    0    0  502    0  0.00000000000E+00  0.00000000000E+00  0.11470454984E+03  0.11470454984E+03  0.00000000000E+00 0. -1.
          1   -1    0    0  501    0 -0.00000000000E+00 -0.00000000000E+00 -0.21396869223E+04  0.21396869223E+04  0.00000000000E+00 0. -1.
         25    2    1    2    0    0 -0.34114731113E+02  0.69474318384E+02 -0.62940608573E+02  0.15994230529E+03  0.12501809876E+03 0.  0.
          2    1    1    2  501    0  0.70398007560E+02 -0.92602977570E+02 -0.20193990194E+04  0.20227465463E+04  0.00000000000E+00 0. -1.
          1    1    1    2  502    0 -0.36283276447E+02  0.23128659186E+02  0.57357255557E+02  0.71702620528E+02  0.00000000000E+00 0. -1.
         22    1    3    3    0    0  0.32071438381E+01  0.81337350560E+02  0.49666542777E+01  0.81551934511E+02  0.00000000000E+00 0. -1.
         22    1    3    3    0    0 -0.37321874951E+02 -0.11863032177E+02 -0.67907262850E+02  0.78390370774E+02  0.00000000000E+00 0. -1.
</event>
<event>
 7    1  0.6273950E-006  0.1231599E+03  0.7818608E-02  0.1278390E+00
          2   -1    0    0  502    0  0.00000000000E+00  0.00000000000E+00  0.11154762046E+04  0.11154762046E+04  0.00000000000E+00 0. -1.
          1   -1    0    0  501    0 -0.00000000000E+00 -0.00000000000E+00 -0.13430722184E+04  0.13430722184E+04  0.00000000000E+00 0. -1.
         25    2    1    2    0    0 -0.84854526457E+02  0.11290810372E+03 -0.91422172882E+02  0.20960014097E+03  0.12500269938E+03 0.  0.
          2    1    1    2  501    0  0.28528320503E+01 -0.12350163475E+03 -0.11877347207E+04  0.11941417668E+04  0.00000000000E+00 0. -1.
          1    1    1    2  502    0  0.82001694407E+02  0.10593531032E+02  0.10515608797E+04  0.10548065152E+04  0.00000000000E+00 0. -1.
         22    1    3    3    0    0 -0.10388619438E+03  0.96934253539E+02 -0.32647235296E+02  0.14578900117E+03  0.00000000000E+00 0.  1.
         22    1    3    3    0    0  0.19031667918E+02  0.15973850184E+02 -0.58774937585E+02  0.63811139792E+02  0.00000000000E+00 0.  1.
</event>
<event>
 7    1  0.6273950E-006  0.8311500E+02  0.7818608E-02  0.1417974E+00
          2   -1    0    0  502    0  0.00000000000E+00  0.00000000000E+00  0.81017712807E+03  0.81017712807E+03  0.00000000000E+00 0. -1.
          1   -1    0    0  501    0 -0.00000000000E+00 -0.00000000000E+00 -0.57762582265E+03  0.57762582265E+03  0.00000000000E+00 0. -1.
         25    2    1    2    0    0 -0.24872287294E+01  0.10410243067E+03 -0.17902785032E+03  0.24190640001E+03  0.12499693116E+03 0.  0.
          2    1    1    2  501    0 -0.23098078586E+02 -0.77379978536E+02 -0.36227112550E+03  0.37116243167E+03  0.00000000000E+00 0. -1.
          1    1    1    2  502    0  0.25585307315E+02 -0.26722452130E+02  0.77385028125E+03  0.77473411903E+03  0.00000000000E+00 0. -1.
         22    1    3    3    0    0 -0.19086208974E+02  0.11125246835E+02  0.14594094712E+02  0.26477199448E+02  0.00000000000E+00 0. -1.
         22    1    3    3    0    0  0.16598980245E+02  0.92977183832E+02 -0.19362194503E+03  0.21542920057E+03  0.00000000000E+00 0. -1.
</event>
<event>
 7    1  0.6273950E-006  0.6506293E+02  0.7818608E-02  0.1388543E+00
          2   -1    0    0  502    0  0.00000000000E+00  0.00000000000E+00  0.75331462172E+01  0.75331462172E+01  0.00000000000E+00 0. -1.
          1   -1    0    0  501    0 -0.00000000000E+00 -0.00000000000E+00 -0.39219316095E+04  0.39219316095E+04  0.00000000000E+00 0. -1.
         25    2    1    2    0    0  0.26296087603E+02 -0.41895836558E+01 -0.20040367536E+04  0.20081080654E+04  0.12500262195E+03 0.  0.
          2    1    1    2  501    0  0.62346160025E+01 -0.59271185395E+02 -0.16591242639E+04  0.16601943461E+04  0.00000000000E+00 0. -1.
          1    1    1    2  502    0 -0.32530703605E+02  0.63460769051E+02 -0.25123744571E+03  0.26116234417E+03  0.00000000000E+00 0. -1.
         22    1    3    3    0    0  0.41630157262E+02 -0.49549877750E+02 -0.64741206521E+03  0.65063864207E+03  0.00000000000E+00 0.  1.
         22    1    3    3    0    0 -0.15334069659E+02  0.45360294094E+02 -0.13566246884E+04  0.13574694233E+04  0.00000000000E+00 0.  1.
</event>
<event>
 7    1  0.6273950E-006  0.7781388E+02  0.7818608E-02  0.1435118E+00
          2   -1    0    0  502    0  0.00000000000E+00  0.00000000000E+00  0.11499459384E+04  0.11499459384E+04  0.00000000000E+00 0. -1.
          1   -1    0    0  501    0 -0.00000000000E+00 -0.00000000000E+00 -0.51652688592E+02  0.51652688592E+02  0.00000000000E+00 0. -1.
         25    2    1    2    0    0  0.41904556300E+01  0.66806373172E+02  0.72791702230E+03  0.74159922155E+03  0.12500225056E+03 0.  0.
          2    1    1    2  501    0 -0.38832149420E+02 -0.68390029528E+02 -0.88941824709E+01  0.79146942135E+02  0.00000000000E+00 0. -1.
          1    1    1    2  502    0  0.34641693790E+02  0.15836563565E+01  0.37927041001E+03  0.38085246333E+03  0.00000000000E+00 0. -1.
         22    1    3    3    0    0  0.56750485240E+02  0.26097780345E+02  0.20039183239E+03  0.20990140115E+03  0.00000000000E+00 0. -1.
         22    1    3    3    0    0 -0.52560029610E+02  0.40708592827E+02  0.52752518990E+03  0.53169782041E+03  0.00000000000E+00 0. -1.
</event>
<event>
 7    1  0.6273950E-006  0.5420633E+02  0.7818608E-02  0.1449539E+00
          2   -1    0    0  502    0  0.00000000000E+00  0.00000000000E+00  0.57436244070E+03  0.57436244070E+03  0.00000000000E+00 0. -1.
          1   -1    0    0  501    0 -0.00000000000E+00 -0.00000000000E+00 -0.20105102351E+03  0.20105102351E+03  0.00000000000E+00 0. -1.
         25    2    1    2    0    0  0.65258711715E+02  0.62980027845E+01  0.50191365733E+02  0.14981450395E+03  0.12500739220E+03 0.  0.
          2    1    1    2  501    0 -0.28890260725E+02  0.34123147082E+02 -0.14633116926E+03  0.15300930504E+03  0.00000000000E+00 0. -1.
          1    1    1    2  502    0 -0.36368450990E+02 -0.40421149866E+02  0.46945122072E+03  0.47258965522E+03  0.00000000000E+00 0. -1.
         22    1    3    3    0    0  0.92727256082E+02 -0.20346010258E+02  0.57309370085E+02  0.11089034247E+03  0.00000000000E+00 0.  1.
         22    1    3    3    0    0 -0.27468544367E+02  0.26644013042E+02 -0.71180043526E+01  0.38924161476E+02  0.00000000000E+00 0.  1.
</event>
<event>
 7    1  0.6273950E-006  0.7351876E+02  0.7818608E-02  0.1437357E+00
          2   -1    0    0  502    0  0.00000000000E+00  0.00000000000E+00  0.38991532677E+04  0.38991532677E+04  0.00000000000E+00 0. -1.
          1   -1    0    0  501    0 -0.00000000000E+00 -0.00000000000E+00 -0.71657773100E+02  0.71657773100E+02  0.00000000000E+00 0. -1.
         25    2    1    2    0    0 -0.23828130067E+02  0.68347022985E+02  0.82585132048E+03  0.83838804796E+03  0.12500008036E+03 0.  0.
          2    1    1    2  501    0  0.35760458318E+02  0.48763222785E+01 -0.59925445623E+02  0.69954613366E+02  0.00000000000E+00 0. -1.
          1    1    1    2  502    0 -0.11932328251E+02 -0.73223345264E+02  0.30615696197E+04  0.30624683794E+04  0.00000000000E+00 0. -1.
         22    1    3    3    0    0  0.18829486360E+02  0.56550743776E+02  0.73414343479E+03  0.73655897185E+03  0.00000000000E+00 0. -1.
         22    1    3    3    0    0 -0.42657616426E+02  0.11796279210E+02  0.91707885696E+02  0.10182907611E+03  0.00000000000E+00 0. -1.
</event>
<event>
 7    1  0.6273950E-006  0.4275526E+02  0.7818608E-02  0.1564292E+00
          2   -1    0    0  502    0  0.00000000000E+00  0.00000000000E+00  0.12514585528E+04  0.12514585528E+04  0.00000000000E+00 0. -1.
          1   -1    0    0  501    0 -0.00000000000E+00 -0.00000000000E+00 -0.52567487364E+02  0.52567487364E+02  0.00000000000E+00 0. -1.
         25    2    1    2    0    0  0.62458106020E+01 -0.56231821831E+02  0.64107160646E+03  0.65559071567E+03  0.12500141567E+03 0.  0.
          2    1    1    2  501    0  0.15724301839E+02  0.20614097090E+02 -0.40807624582E+02  0.48347253192E+02  0.00000000000E+00 0. -1.
          1    1    1    2  502    0 -0.21970112441E+02  0.35617724741E+02  0.59862708360E+03  0.60008807135E+03  0.00000000000E+00 0. -1.
         22    1    3    3    0    0  0.34875231556E+02 -0.45170737598E+02  0.11266608616E+03  0.12629459324E+03  0.00000000000E+00 0.  1.
         22    1    3    3    0    0 -0.28629420954E+02 -0.11061084233E+02  0.52840552030E+03  0.52929612242E+03  0.00000000000E+00 0.  1.
</event>
<event>
 7    1  0.6273950E-006  0.8155365E+02  0.7818608E-02  0.1402578E+00
          2   -1    0    0  502    0  0.00000000000E+00  0.00000000000E+00  0.62038469879E+03  0.62038469879E+03  0.00000000000E+00 0. -1.
          1   -1    0    0  501    0 -0.00000000000E+00 -0.00000000000E+00 -0.11849689535E+04  0.11849689535E+04  0.00000000000E+00 0. -1.
         25    2    1    2    0    0  0.11980328895E+03  0.27747797757E+02 -0.73575671320E+02  0.19016106034E+03  0.12500032454E+03 0.  0.
          2    1    1    2  501    0 -0.40571801467E+02 -0.12707279387E+02 -0.10497753915E+04  0.10506359591E+04  0.00000000000E+00 0. -1.
          1    1    1    2  502    0 -0.79231487487E+02 -0.15040518370E+02  0.55876680812E+03  0.56455663282E+03  0.00000000000E+00 0. -1.
         22    1    3    3    0    0  0.97424842745E+02  0.74955233175E+02 -0.47601014101E+02  0.13181708352E+03  0.00000000000E+00 0.  1.
         22    1    3    3    0    0  0.22378446209E+02 -0.47207435418E+02 -0.25974657219E+02  0.58343976820E+02  0.00000000000E+00 0.  1.
</event>
<event>
 7    1  0.6273950E-006  0.8330629E+02  0.7818608E-02  0.1400091E+00
          2   -1    0    0  502    0  0.00000000000E+00  0.00000000000E+00  0.18101095498E+04  0.18101095498E+04  0.00000000000E+00 0. -1.
          1   -1    0    0  501    0 -0.00000000000E+00 -0.00000000000E+00 -0.33399179340E+03  0.33399179340E+03  0.00000000000E+00 0. -1.
         25    2    1    2    0    0  0.87510253793E+01 -0.80934201408E+02 -0.18605420611E+03  0.23847072802E+03  0.12500078043E+03 0.  0.
          2    1    1    2  501    0  0.40246290646E+02  0.13488769109E+02 -0.11702320284E+03  0.12448349612E+03  0.00000000000E+00 0. -1.
          1    1    1    2  502    0 -0.48997316025E+02  0.67445432299E+02  0.17791951653E+04  0.17811471190E+04  0.00000000000E+00 0. -1.
         22    1    3    3    0    0 -0.56934273727E+02 -0.34486077055E+02 -0.10461658661E+03  0.12399770655E+03  0.00000000000E+00 0. -1.
         22    1    3    3    0    0  0.65685299106E+02 -0.46448124353E+02 -0.81437619496E+02  0.11447302147E+03  0.00000000000E+00 0. -1.
</event>
<event>
 7    1  0.6273950E-006  0.6183924E+02  0.7818608E-02  0.1477384E+00
          2   -1    0    0  502    0  0.00000000000E+00  0.00000000000E+00  0.95542003917E+02  0.95542003917E+02  0.00000000000E+00 0. -1.
          1   -1    0    0  501    0 -0.00000000000E+00 -0.00000000000E+00 -0.13284744422E+04  0.13284744422E+04  0.00000000000E+00 0. -1.
         25    2    1    2    0    0  0.74907561812E+02 -0.99104373989E+01 -0.62790136047E+03  0.64466636504E+03  0.12500097656E+03 0.  0.
          2    1    1    2  501    0 -0.22551711143E+02 -0.22767600643E+02 -0.68084091392E+03  0.68159466942E+03  0.00000000000E+00 0. -1.
          1    1    1    2  502    0 -0.52355850669E+02  0.32678038042E+02  0.75809836076E+02  0.97755411694E+02  0.00000000000E+00 0. -1.
         22    1    3    3    0    0 -0.12870300893E+02 -0.47148559046E+02 -0.16696085007E+03  0.17396711391E+03  0.00000000000E+00 0.  1.
         22    1    3    3    0    0  0.87777862705E+02  0.37238121647E+02 -0.46094051040E+03  0.47069925113E+03  0.00000000000E+00 0.  1.
</event>
<event>
 7    1  0.6273950E-006  0.1642147E+03  0.7818608E-02  0.1306030E+00
          2   -1    0    0  502    0  0.00000000000E+00  0.00000000000E+00  0.41101517618E+03  0.41101517618E+03  0.00000000000E+00 0. -1.
          1   -1    0    0  501    0 -0.00000000000E+00 -0.00000000000E+00 -0.77816198850E+03  0.77816198850E+03  0.00000000000E+00 0. -1.
         25    2    1    2    0    0  0.16299905379E+03 -0.11733374930E+03  0.66591022843E+02  0.24575517032E+03  0.12500135661E+03 0.  0.
          2    1    1    2  501    0 -0.44387488186E+02  0.18034180728E+02 -0.66416278049E+03  0.66588863917E+03  0.00000000000E+00 0. -1.
          1    1    1    2  502    0 -0.11861156561E+03  0.99299568572E+02  0.23042494533E+03  0.27753335519E+03  0.00000000000E+00 0. -1.
         22    1    3    3    0    0  0.12094938803E+02 -0.52706644229E+02  0.60973081104E+02  0.81498432561E+02  0.00000000000E+00 0. -1.
         22    1    3    3    0    0  0.15090411499E+03 -0.64627105070E+02  0.56179417393E+01  0.16425673776E+03  0.00000000000E+00 0. -1.
</event>
<event>
 7    1  0.6273950E-006  0.5598861E+02  0.7818608E-02  0.1433373E+00
          2   -1    0    0  502    0  0.00000000000E+00  0.00000000000E+00  0.34755914319E+03  0.34755914319E+03  0.00000000000E+00 0. -1.
          1   -1    0    0  501    0 -0.00000000000E+00 -0.00000000000E+00 -0.89849093970E+03  0.89849093970E+03  0.00000000000E+00 0. -1.
         25    2    1    2    0    0 -0.13816556665E+02  0.10554875260E+02 -0.39489443596E+02  0.13223632558E+03  0.12499890806E+03 0.  0.
          2    1    1    2  501    0  0.54587765575E+02  0.16323099874E+02 -0.80964087178E+03  0.81164315373E+03  0.00000000000E+00 0. -1.
          1    1    1    2  502    0 -0.40771208911E+02 -0.26877975134E+02  0.29819851886E+03  0.30217060359E+03  0.00000000000E+00 0. -1.
         22    1    3    3    0    0 -0.50226890850E+02 -0.35024675177E+02  0.97265291175E+00  0.61240627767E+02  0.00000000000E+00 0. -1.
         22    1    3    3    0    0  0.36410334185E+02  0.45579550436E+02 -0.40462096508E+02  0.70995697808E+02  0.00000000000E+00 0. -1.
</event>
<event>
 7    1  0.6273950E-006  0.4821803E+02  0.7818608E-02  0.1468323E+00
          2   -1    0    0  502    0  0.00000000000E+00  0.00000000000E+00  0.52255039310E+03  0.52255039310E+03  0.00000000000E+00 0. -1.
          1   -1    0    0  501    0 -0.00000000000E+00 -0.00000000000E+00 -0.74967287473E+03  0.74967287473E+03  0.00000000000E+00 0. -1.
         25    2    1    2    0    0 -0.38114109310E+02 -0.35166127852E+02  0.17405778773E+03  0.22047492743E+03  0.12499495300E+03 0.  0.
          2    1    1    2  501    0 -0.37666799223E+01  0.48136345297E+02 -0.72417938608E+03  0.72578721320E+03  0.00000000000E+00 0. -1.
          1    1    1    2  502    0  0.41880789233E+02 -0.12970217445E+02  0.32299911672E+03  0.32596112721E+03  0.00000000000E+00 0. -1.
         22    1    3    3    0    0  0.31298705654E+02 -0.31311456247E+02  0.13199218341E+03  0.13921908184E+03  0.00000000000E+00 0. -1.
         22    1    3    3    0    0 -0.69412814964E+02 -0.38546716050E+01  0.42065604322E+02  0.81255845583E+02  0.00000000000E+00 0. -1.
</event>
<event>
 7    1  0.6273950E-006  0.7234735E+02  0.7818608E-02  0.1457386E+00
          2   -1    0    0  502    0  0.00000000000E+00  0.00000000000E+00  0.19972073113E+04  0.19972073113E+04  0.00000000000E+00 0. -1.
          1   -1    0    0  501    0 -0.00000000000E+00 -0.00000000000E+00 -0.62687587539E+02  0.62687587539E+02  0.00000000000E+00 0. -1.
         25    2    1    2    0    0  0.10182806889E+03 -0.15839630742E+02  0.82151436489E+03  0.83733547838E+03  0.12500000842E+03 0.  0.
          2    1    1    2  501    0 -0.70854528286E+02  0.94448949626E+01 -0.31145257002E+02  0.77971772156E+02  0.00000000000E+00 0. -1.
          1    1    1    2  502    0 -0.30973540603E+02  0.63947357789E+01  0.11441506159E+04  0.11445876483E+04  0.00000000000E+00 0. -1.
         22    1    3    3    0    0  0.90221151114E+02  0.41294912406E+02  0.60623442594E+03  0.61430066343E+03  0.00000000000E+00 0.  1.
         22    1    3    3    0    0  0.11606917774E+02 -0.57134543148E+02  0.21527993896E+03  0.22303481495E+03  0.00000000000E+00 0.  1.
</event>
<event>
 7    1  0.6273950E-006  0.3130458E+02  0.7818608E-02  0.1642691E+00
          2   -1    0    0  502    0  0.00000000000E+00  0.00000000000E+00  0.12353620987E+04  0.12353620987E+04  0.00000000000E+00 0. -1.
          1   -1    0    0  501    0 -0.00000000000E+00 -0.00000000000E+00 -0.78870369166E+03  0.78870369166E+03  0.00000000000E+00 0. -1.
         25    2    1    2    0    0  0.20325860393E+01  0.51126407044E+02  0.70122001626E+03  0.71411003963E+03  0.12500238634E+03 0.  0.
          2    1    1    2  501    0 -0.58698938453E+01 -0.21342203050E+02 -0.78167464218E+03  0.78198797402E+03  0.00000000000E+00 0. -1.
          1    1    1    2  502    0  0.38373078060E+01 -0.29784203995E+02  0.52711303298E+03  0.52796777674E+03  0.00000000000E+00 0. -1.
         22    1    3    3    0    0  0.22248373467E+02  0.59827372384E+02  0.68173088991E+03  0.68471257536E+03  0.00000000000E+00 0.  1.
         22    1    3    3    0    0 -0.20215787428E+02 -0.87009653394E+01  0.19489126355E+02  0.29397464266E+02  0.00000000000E+00 0.  1.
</event>
<event>
 7    1  0.6273950E-006  0.8172566E+02  0.7818608E-02  0.1335994E+00
          2   -1    0    0  502    0  0.00000000000E+00  0.00000000000E+00  0.67786200272E+02  0.67786200272E+02  0.00000000000E+00 0. -1.
          1   -1    0    0  501    0 -0.00000000000E+00 -0.00000000000E+00 -0.13667587870E+04  0.13667587870E+04  0.00000000000E+00 0. -1.
         25    2    1    2    0    0 -0.14595525406E+02  0.45357096560E+02 -0.29203664380E+03  0.32121218138E+03  0.12498627354E+03 0.  0.
          2    1    1    2  501    0  0.85305281275E+02 -0.24616025338E+02 -0.10317613542E+04  0.10355744452E+04  0.00000000000E+00 0. -1.
          1    1    1    2  502    0 -0.70709755870E+02 -0.20741071222E+02  0.24825411217E+02  0.77758360661E+02  0.00000000000E+00 0. -1.
         22    1    3    3    0    0  0.25051309382E+02  0.57060525859E+02 -0.26401915478E+03  0.27127400503E+03  0.00000000000E+00 0. -1.
         22    1    3    3    0    0 -0.39646834788E+02 -0.11703429299E+02 -0.28017489020E+02  0.49938176349E+02  0.00000000000E+00 0. -1.
</event>
<event>
 7    1  0.6273950E-006  0.1634080E+03  0.7818608E-02  0.1407770E+00
          2   -1    0    0  502    0  0.00000000000E+00  0.00000000000E+00  0.26683329373E+03  0.26683329373E+03  0.00000000000E+00 0. -1.
          1   -1    0    0  501    0 -0.00000000000E+00 -0.00000000000E+00 -0.86996128686E+03  0.86996128686E+03  0.00000000000E+00 0. -1.
         25    2    1    2    0    0  0.96902331794E+02 -0.13348201259E+03  0.16220608273E+03  0.26295300329E+03  0.12500383623E+03 0.  0.
          2    1    1    2  501    0  0.12616443063E+02  0.15992715322E+02 -0.70023727310E+03  0.70053349685E+03  0.00000000000E+00 0. -1.
          1    1    1    2  502    0 -0.10951877486E+03  0.11748929727E+03 -0.65096802761E+02  0.17330808045E+03  0.00000000000E+00 0. -1.
         22    1    3    3    0    0  0.38629355232E+02 -0.26243919090E+02 -0.13866887925E+02  0.48716126237E+02  0.00000000000E+00 0.  1.
         22    1    3    3    0    0  0.58272976562E+02 -0.10723809350E+03  0.17607297066E+03  0.21423687705E+03  0.00000000000E+00 0.  1.
</event>
<event>
 7    1  0.6273950E-006  0.2014311E+03  0.7818608E-02  0.1306849E+00
          2   -1    0    0  502    0  0.00000000000E+00  0.00000000000E+00  0.27315580128E+04  0.27315580128E+04  0.00000000000E+00 0. -1.
          1   -1    0    0  501    0 -0.00000000000E+00 -0.00000000000E+00 -0.45586505411E+02  0.45586505411E+02  0.00000000000E+00 0. -1.
         25    2    1    2    0    0  0.10356853169E+03  0.14199037084E+03  0.11744746266E+04  0.11941124957E+04  0.12500519098E+03 0.  0.
          2    1    1    2  501    0 -0.10349240771E+03 -0.18075874317E+03  0.27036144370E+03  0.34129124208E+03  0.00000000000E+00 0. -1.
          1    1    1    2  502    0 -0.76123976833E-01  0.38768372326E+02  0.12411354370E+04  0.12417407803E+04  0.00000000000E+00 0. -1.
         22    1    3    3    0    0  0.71399734530E+02  0.15114456857E+03  0.10978964161E+04  0.11105490278E+04  0.00000000000E+00 0.  1.
         22    1    3    3    0    0  0.32168797159E+02 -0.91541977300E+01  0.76578210479E+02  0.83563467897E+02  0.00000000000E+00 0.  1.
</event>
<event>
 7    1  0.6273950E-006  0.4775543E+02  0.7818608E-02  0.1525809E+00
          2   -1    0    0  502    0  0.00000000000E+00  0.00000000000E+00  0.17912087687E+03  0.17912087687E+03  0.00000000000E+00 0. -1.
          1   -1    0    0  501    0 -0.00000000000E+00 -0.00000000000E+00 -0.19630068271E+03  0.19630068271E+03  0.00000000000E+00 0. -1.
         25    2    1    2    0    0  0.22063141206E+02 -0.22558036055E+02  0.51025004304E+02  0.13865001730E+03  0.12499851616E+03 0.  0.
          2    1    1    2  501    0 -0.10870112254E+02 -0.27715065454E+02 -0.14294040601E+03  0.14600768427E+03  0.00000000000E+00 0. -1.
          1    1    1    2  502    0 -0.11193028952E+02  0.50273101509E+02  0.74735595870E+02  0.90763858019E+02  0.00000000000E+00 0. -1.
         22    1    3    3    0    0 -0.35092723277E+02 -0.52666184882E+02  0.16501825096E+02  0.65402878289E+02  0.00000000000E+00 0.  1.
         22    1    3    3    0    0  0.57155864483E+02  0.30108148827E+02  0.34523179209E+02  0.73247139011E+02  0.00000000000E+00 0.  1.
</event>
<event>
 7    1  0.6273950E-006  0.8570875E+02  0.7818608E-02  0.1496136E+00
          2   -1    0    0  502    0  0.00000000000E+00  0.00000000000E+00  0.15965443756E+03  0.15965443756E+03  0.00000000000E+00 0. -1.
          1   -1    0    0  501    0 -0.00000000000E+00 -0.00000000000E+00 -0.11502656495E+04  0.11502656495E+04  0.00000000000E+00 0. -1.
         25    2    1    2    0    0  0.58979080081E+02 -0.55562994627E+02 -0.99295055296E+02  0.17902991008E+03  0.12500568962E+03 0.  0.
          2    1    1    2  501    0 -0.47089326625E+02  0.71989444939E+02 -0.10084004308E+04  0.10120629000E+04  0.00000000000E+00 0. -1.
          1    1    1    2  502    0 -0.11889753456E+02 -0.16426450312E+02  0.11708427411E+03  0.11882727696E+03  0.00000000000E+00 0. -1.
         22    1    3    3    0    0 -0.83459048818E+01 -0.28231912506E+02  0.22604935617E+02  0.37117086716E+02  0.00000000000E+00 0. -1.
         22    1    3    3    0    0  0.67324984963E+02 -0.27331082121E+02 -0.12189999091E+03  0.14191282336E+03  0.00000000000E+00 0. -1.
</event>
<event>
 7    1  0.6273950E-006  0.1663791E+03  0.7818608E-02  0.1190739E+00
          2   -1    0    0  502    0  0.00000000000E+00  0.00000000000E+00  0.11382400789E+04  0.11382400789E+04  0.00000000000E+00 0. -1.
          1   -1    0    0  501    0 -0.00000000000E+00 -0.00000000000E+00 -0.26513220995E+03  0.26513220995E+03  0.00000000000E+00 0. -1.
         25    2    1    2    0    0  0.94354178333E+02 -0.26807862834E+02  0.90843559810E+02  0.18302852727E+03  0.12500206781E+03 0.  0.
          2    1    1    2  501    0  0.53770283855E+02  0.14049342548E+03 -0.18316621358E+03  0.23702216737E+03  0.00000000000E+00 0. -1.
          1    1    1    2  502    0 -0.14812446219E+03 -0.11368556265E+03  0.96543052273E+03  0.98332159423E+03  0.00000000000E+00 0. -1.
         22    1    3    3    0    0  0.45307519244E+02 -0.74011811344E+02  0.71001387172E+02  0.11212366610E+03  0.00000000000E+00 0. -1.
         22    1    3    3    0    0  0.49046659090E+02  0.47203948510E+02  0.19842172638E+02  0.70904861172E+02  0.00000000000E+00 0. -1.
</event>
<event>
 7    1  0.6273950E-006  0.3440459E+02  0.7818608E-02  0.1582577E+00
          2   -1    0    0  502    0  0.00000000000E+00  0.00000000000E+00  0.21336677926E+04  0.21336677926E+04  0.00000000000E+00 0. -1.
          1   -1    0    0  501    0 -0.00000000000E+00 -0.00000000000E+00 -0.18515231400E+02  0.18515231400E+02  0.00000000000E+00 0. -1.
         25    2    1    2    0    0  0.11628933165E+02  0.91116296460E+00  0.44123648817E+03  0.45874589529E+03  0.12498838203E+03 0.  0.
          2    1    1    2  501    0  0.90385765235E+01  0.27294252708E+02  0.12003857306E+02  0.31157096891E+02  0.00000000000E+00 0. -1.
          1    1    1    2  502    0 -0.20667509689E+02 -0.28205415672E+02  0.16619122157E+04  0.16622800318E+04  0.00000000000E+00 0. -1.
         22    1    3    3    0    0  0.12148650275E+02 -0.28167461623E+02  0.42364936144E+03  0.42475849261E+03  0.00000000000E+00 0. -1.
         22    1    3    3    0    0 -0.51971710980E+00  0.29078624588E+02  0.17587126731E+02  0.33987402673E+02  0.00000000000E+00 0. -1.
</event>
<event>
 7    1  0.6273950E-006  0.1002520E+03  0.7818608E-02  0.1465405E+00
          2   -1    0    0  502    0  0.00000000000E+00  0.00000000000E+00  0.26235847175E+04  0.26235847175E+04  0.00000000000E+00 0. -1.
          1   -1    0    0  501    0 -0.00000000000E+00 -0.00000000000E+00 -0.56544512461E+02  0.56544512461E+02  0.00000000000E+00 0. -1.
         25    2    1    2    0    0  0.13222872038E+02  0.10468517092E+03  0.20166853548E+04  0.20233089753E+04  0.12500223849E+03 0.  0.
          2    1    1    2  501    0 -0.32358767084E+02 -0.94808260974E+02 -0.57077849465E+01  0.10034079412E+03  0.00000000000E+00 0. -1.
          1    1    1    2  502    0  0.19135895046E+02 -0.98769099436E+01  0.55606263514E+03  0.55647946056E+03  0.00000000000E+00 0. -1.
         22    1    3    3    0    0 -0.49773410706E+01 -0.27031486738E+02  0.52108766000E+03  0.52181205870E+03  0.00000000000E+00 0.  1.
         22    1    3    3    0    0  0.18200213109E+02  0.13171665766E+03  0.14955976948E+04  0.15014969166E+04  0.00000000000E+00 0.  1.
</event>
<event>
 7    1  0.6273950E-006  0.5425571E+02  0.7818608E-02  0.1431974E+00
          2   -1    0    0  502    0  0.00000000000E+00  0.00000000000E+00  0.62395873201E+03  0.62395873201E+03  0.00000000000E+00 0. -1.
          1   -1    0    0  501    0 -0.00000000000E+00 -0.00000000000E+00 -0.38936708990E+02  0.38936708990E+02  0.00000000000E+00 0. -1.
         25    2    1    2    0    0  0.27500457662E+02  0.62299618443E+01  0.14119708985E+03  0.19067471896E+03  0.12500057070E+03 0.  0.
          2    1    1    2  501    0 -0.33477342641E+02 -0.60155453235E+02  0.85307036788E+02  0.10962071679E+03  0.00000000000E+00 0. -1.
          1    1    1    2  502    0  0.59768849783E+01  0.53925491391E+02  0.35851789639E+03  0.36260000525E+03  0.00000000000E+00 0. -1.
         22    1    3    3    0    0 -0.35256641010E+02  0.40171269472E+02  0.39565027266E+02  0.66499270739E+02  0.00000000000E+00 0. -1.
         22    1    3    3    0    0  0.62757098672E+02 -0.33941307628E+02  0.10163206258E+03  0.12417544822E+03  0.00000000000E+00 0. -1.
</event>
<event>
 7    1  0.6273950E-006  0.1171974E+03  0.7818608E-02  0.1309008E+00
          2   -1    0    0  502    0  0.00000000000E+00  0.00000000000E+00  0.62909133194E+03  0.62909133194E+03  0.00000000000E+00 0. -1.
          1   -1    0    0  501    0 -0.00000000000E+00 -0.00000000000E+00 -0.68806337997E+03  0.68806337997E+03  0.00000000000E+00 0. -1.
         25    2    1    2    0    0 -0.38455872792E+02  0.95913046878E+02  0.76661526495E+02  0.17939003894E+03  0.12500251883E+03 0.  0.
          2    1    1    2  501    0 -0.23676930334E+02 -0.11611896550E+03 -0.62901232099E+03  0.64007867574E+03  0.00000000000E+00 0. -1.
          1    1    1    2  502    0  0.62132803127E+02  0.20205918621E+02  0.49337874647E+03  0.49768599723E+03  0.00000000000E+00 0. -1.
         22    1    3    3    0    0 -0.68465165730E+02  0.89565550959E+02  0.91613118326E+02  0.14526675561E+03  0.00000000000E+00 0. -1.
         22    1    3    3    0    0  0.30009292938E+02  0.63474959197E+01 -0.14951591831E+02  0.34123283332E+02  0.00000000000E+00 0. -1.
</event>
<event>
 7    1  0.6273950E-006  0.3697061E+02  0.7818608E-02  0.1552635E+00
          2   -1    0    0  502    0  0.00000000000E+00  0.00000000000E+00  0.86176216934E+03  0.86176216934E+03  0.00000000000E+00 0. -1.
          1   -1    0    0  501    0 -0.00000000000E+00 -0.00000000000E+00 -0.46179248427E+02  0.46179248427E+02  0.00000000000E+00 0. -1.
         25    2    1    2    0    0  0.83846594531E+01  0.28942862153E+01  0.52092097593E+03  0.53578342501E+03  0.12500614365E+03 0.  0.
          2    1    1    2  501    0 -0.32762353469E+02  0.18276851240E+02 -0.28670992559E+02  0.47216955751E+02  0.00000000000E+00 0. -1.
          1    1    1    2  502    0  0.24377694016E+02 -0.21171137455E+02  0.32333293754E+03  0.32494103700E+03  0.00000000000E+00 0. -1.
         22    1    3    3    0    0  0.64322501529E+02 -0.98028692460E+01  0.21896810964E+03  0.22843054412E+03  0.00000000000E+00 0. -1.
         22    1    3    3    0    0 -0.55937842075E+02  0.12697155461E+02  0.30195286629E+03  0.30735288089E+03  0.00000000000E+00 0. -1.
</event>
<event>
 7    1  0.6273950E-006  0.9741828E+02  0.7818608E-02  0.1352396E+00
          2   -1    0    0  502    0  0.00000000000E+00  0.00000000000E+00  0.14816524279E+04  0.14816524279E+04  0.00000000000E+00 0. -1.
          1   -1    0    0  501    0 -0.00000000000E+00 -0.00000000000E+00 -0.31091554290E+02  0.31091554290E+02  0.00000000000E+00 0. -1.
         25    2    1    2    0    0  0.72101697213E+02 -0.12379828556E+03  0.72902942775E+03  0.75341457010E+03  0.12499975069E+03 0.  0.
          2    1    1    2  501    0 -0.51566857369E+02  0.74202290001E+02  0.97272924381E+02  0.13276724912E+03  0.00000000000E+00 0. -1.
          1    1    1    2  502    0 -0.20534839844E+02  0.49595995563E+02  0.62425852147E+03  0.62656216296E+03  0.00000000000E+00 0. -1.
         22    1    3    3    0    0  0.51761334753E+02  0.46177976009E+01  0.32076300572E+03  0.32494532720E+03  0.00000000000E+00 0. -1.
         22    1    3    3    0    0  0.20340362460E+02 -0.12841608316E+03  0.40826642203E+03  0.42846924290E+03  0.00000000000E+00 0. -1.
</event>
<event>
 7    1  0.6273950E-006  0.9273019E+02  0.7818608E-02  0.1467393E+00
          2   -1    0    0  502    0  0.00000000000E+00  0.00000000000E+00  0.25827874742E+04  0.25827874742E+04  0.00000000000E+00 0. -1.
          1   -1    0    0  501    0 -0.00000000000E+00 -0.00000000000E+00 -0.18665955155E+03  0.18665955155E+03  0.00000000000E+00 0. -1.
         25    2    1    2    0    0  0.53411695846E+02 -0.78230638290E+02  0.14300587445E+04  0.14386333023E+04  0.12499969469E+03 0.  0.
          2    1    1    2  501    0 -0.69278749492E+02  0.61648712120E+02 -0.17045970634E+03  0.19405313789E+03  0.00000000000E+00 0. -1.
          1    1    1    2  502    0  0.15867053646E+02  0.16581926170E+02  0.11365288845E+04  0.11367605856E+04  0.00000000000E+00 0. -1.
         22    1    3    3    0    0 -0.33690286113E+02 -0.45663831063E+02  0.34910284921E+03  0.35368491651E+03  0.00000000000E+00 0.  1.
         22    1    3    3    0    0  0.87101981959E+02 -0.32566807227E+02  0.10809558953E+04  0.10849483858E+04  0.00000000000E+00 0.  1.
</event>
<event>
 7    1  0.6273950E-006  0.1072327E+03  0.7818608E-02  0.1367510E+00
          2   -1    0    0  502    0  0.00000000000E+00  0.00000000000E+00  0.67236589895E+03  0.67236589895E+03  0.00000000000E+00 0. -1.
          1   -1    0    0  501    0 -0.00000000000E+00 -0.00000000000E+00 -0.37523442403E+03  0.37523442403E+03  0.00000000000E+00 0. -1.
         25    2    1    2    0    0  0.11504989170E+02 -0.13942117462E+03  0.18982823818E+03  0.26688982328E+03  0.12499915622E+03 0.  0.
          2    1    1    2  501    0  0.14711843680E+02  0.40350723598E+02 -0.32937747379E+03  0.33216583130E+03  0.00000000000E+00 0. -1.
          1    1    1    2  502    0 -0.26216832850E+02  0.99070451020E+02  0.43668071054E+03  0.44854466840E+03  0.00000000000E+00 0. -1.
         22    1    3    3    0    0  0.32153360828E+02 -0.10732340233E+03  0.19833146514E+03  0.22778832579E+03  0.00000000000E+00 0. -1.
         22    1    3    3    0    0 -0.20648371658E+02 -0.32097772285E+02 -0.85032269619E+01  0.39101497497E+02  0.00000000000E+00 0. -1.
</event>
<event>
 7    1  0.6273950E-006  0.4504054E+02  0.7818608E-02  0.1521698E+00
          2   -1    0    0  502    0  0.00000000000E+00  0.00000000000E+00  0.44015668646E+03  0.44015668646E+03  0.00000000000E+00 0. -1.
          1   -1    0    0  501    0 -0.00000000000E+00 -0.00000000000E+00 -0.67904412826E+03  0.67904412826E+03  0.00000000000E+00 0. -1.
         25    2    1    2    0    0 -0.66989052991E+02  0.28215692440E+02 -0.44520405912E+03  0.46809772142E+03  0.12500065608E+03 0.  0.
          2    1    1    2  501    0  0.35908996922E+02 -0.18921061183E+02 -0.21991977246E+03  0.22363400666E+03  0.00000000000E+00 0. -1.
          1    1    1    2  502    0  0.31080056069E+02 -0.92946312570E+01  0.42623638979E+03  0.42746908664E+03  0.00000000000E+00 0. -1.
         22    1    3    3    0    0 -0.77956077904E+02 -0.29312104778E+02 -0.21517279591E+03  0.23072858875E+03  0.00000000000E+00 0.  1.
         22    1    3    3    0    0  0.10967024914E+02  0.57527797219E+02 -0.23003126321E+03  0.23736913267E+03  0.00000000000E+00 0.  1.
</event>
<event>
 7    1  0.6273950E-006  0.4784115E+02  0.7818608E-02  0.1525098E+00
          2   -1    0    0  502    0  0.00000000000E+00  0.00000000000E+00  0.53831097091E+03  0.53831097091E+03  0.00000000000E+00 0. -1.
          1   -1    0    0  501    0 -0.00000000000E+00 -0.00000000000E+00 -0.18330505864E+04  0.18330505864E+04  0.00000000000E+00 0. -1.
         25    2    1    2    0    0 -0.11986659816E+02 -0.64589407877E+02 -0.96001128134E+03  0.97034171064E+03  0.12500361388E+03 0.  0.
          2    1    1    2  501    0 -0.10590693351E+02  0.45050892249E+02 -0.86683832333E+03  0.86807282210E+03  0.00000000000E+00 0. -1.
          1    1    1    2  502    0  0.22577353167E+02  0.19538515628E+02  0.53210998916E+03  0.53294702460E+03  0.00000000000E+00 0. -1.
         22    1    3    3    0    0 -0.15516371381E+02 -0.71217860742E+02 -0.96006893350E+03  0.96283181218E+03  0.00000000000E+00 0. -1.
         22    1    3    3    0    0  0.35297115645E+01  0.66284528646E+01  0.57652162258E-01  0.75098984600E+01  0.00000000000E+00 0. -1.
</event>
<event>
 7    1  0.6273950E-006  0.6540993E+02  0.7818608E-02  0.1439765E+00
          2   -1    0    0  502    0  0.00000000000E+00  0.00000000000E+00  0.13520939783E+04  0.13520939783E+04  0.00000000000E+00 0. -1.
          1   -1    0    0  501    0 -0.00000000000E+00 -0.00000000000E+00 -0.12460699774E+04  0.12460699774E+04  0.00000000000E+00 0. -1.
         25    2    1    2    0    0 -0.47220854414E+02 -0.35067958259E+02  0.61784594185E+03  0.63310159480E+03  0.12499780275E+03 0.  0.
          2    1    1    2  501    0  0.18564479143E+02  0.62746652242E+02 -0.12370306464E+04  0.12387601068E+04  0.00000000000E+00 0. -1.
          1    1    1    2  502    0  0.28656375271E+02 -0.27678693984E+02  0.72520870534E+03  0.72630225406E+03  0.00000000000E+00 0. -1.
         22    1    3    3    0    0 -0.20525756603E+02 -0.72662598706E+02  0.51351096680E+03  0.51903243921E+03  0.00000000000E+00 0. -1.
         22    1    3    3    0    0 -0.26695097811E+02  0.37594640447E+02  0.10433497505E+03  0.11406915559E+03  0.00000000000E+00 0. -1.
</event>
<event>
 7    1  0.6273950E-006  0.7173980E+02  0.7818608E-02  0.1380005E+00
          2   -1    0    0  502    0  0.00000000000E+00  0.00000000000E+00  0.49749017588E+03  0.49749017588E+03  0.00000000000E+00 0. -1.
          1   -1    0    0  501    0 -0.00000000000E+00 -0.00000000000E+00 -0.56271528283E+02  0.56271528283E+02  0.00000000000E+00 0. -1.
         25    2    1    2    0    0  0.33517717310E+01  0.31290647190E+02  0.15356757859E+03  0.20049583562E+03  0.12500095972E+03 0.  0.
          2    1    1    2  501    0  0.19260754013E+02 -0.84617751066E+02  0.34196349340E+02  0.93276635600E+02  0.00000000000E+00 0. -1.
          1    1    1    2  502    0 -0.22612525744E+02  0.53327103876E+02  0.25345471966E+03  0.25998923294E+03  0.00000000000E+00 0. -1.
         22    1    3    3    0    0  0.21891066954E+02  0.43922872969E+02  0.39817256116E+01  0.49237097001E+02  0.00000000000E+00 0.  1.
         22    1    3    3    0    0 -0.18539295223E+02 -0.12632225779E+02  0.14958585298E+03  0.15125873862E+03  0.00000000000E+00 0.  1.
</event>
<event>
 7    1  0.6273950E-006  0.3808968E+02  0.7818608E-02  0.1556361E+00
          2   -1    0    0  502    0  0.00000000000E+00  0.00000000000E+00  0.14405622554E+04  0.14405622554E+04  0.00000000000E+00 0. -1.
          1   -1    0    0  501    0 -0.00000000000E+00 -0.00000000000E+00 -0.69601126441E+03  0.69601126441E+03  0.00000000000E+00 0. -1.
         25    2    1    2    0    0 -0.78821839152E+01 -0.63972885206E+02  0.43897095873E+03  0.46095002641E+03  0.12499906148E+03 0.  0.
          2    1    1    2  501    0  0.16093093820E+02  0.34492860790E+02 -0.68425635548E+03  0.68531416527E+03  0.00000000000E+00 0. -1.
          1    1    1    2  502    0 -0.82109099050E+01  0.29480024415E+02  0.98983638773E+03  0.99030932812E+03  0.00000000000E+00 0. -1.
         22    1    3    3    0    0 -0.42956495896E+01  0.34781200121E+02  0.61765992359E+02  0.71015648271E+02  0.00000000000E+00 0.  1.
         22    1    3    3    0    0 -0.35865343256E+01 -0.98754085327E+02  0.37720496637E+03  0.38993437813E+03  0.00000000000E+00 0.  1.
</event>
<event>
 7    1  0.6273950E-006  0.1261464E+03  0.7818608E-02  0.1283771E+00
          2   -1    0    0  502    0  0.00000000000E+00  0.00000000000E+00  0.40692615253E+03  0.40692615253E+03  0.00000000000E+00 0. -1.
          1   -1    0    0  501    0 -0.00000000000E+00 -0.00000000000E+00 -0.27261318242E+03  0.27261318242E+03  0.00000000000E+00 0. -1.
         25    2    1    2    0    0 -0.12821825666E+03  0.52888121066E+02  0.11739780646E+03  0.22055467525E+03  0.12500018049E+03 0.  0.
          2    1    1    2  501    0  0.28754861690E+01 -0.76648557908E+02 -0.19616805464E+03  0.21063042399E+03  0.00000000000E+00 0. -1.
          1    1    1    2  502    0  0.12534277049E+03  0.23760436842E+02  0.21308321829E+03  0.24835423570E+03  0.00000000000E+00 0. -1.
         22    1    3    3    0    0 -0.94967981632E+02 -0.17900593239E+02  0.10262032820E+03  0.14096198258E+03  0.00000000000E+00 0. -1.
         22    1    3    3    0    0 -0.33250275028E+02  0.70788714306E+02  0.14777478253E+02  0.79592692667E+02  0.00000000000E+00 0. -1.
</event>
<event>
 7    1  0.6273950E-006  0.9262944E+02  0.7818608E-02  0.1326301E+00
          2   -1    0    0  502    0  0.00000000000E+00  0.00000000000E+00  0.15134094130E+04  0.15134094130E+04  0.00000000000E+00 0. -1.
          1   -1    0    0  501    0 -0.00000000000E+00 -0.00000000000E+00 -0.72668086889E+03  0.72668086889E+03  0.00000000000E+00 0. -1.
         25    2    1    2    0    0  0.27130112896E+02 -0.25755542898E+02  0.34475748806E+02  0.13494279159E+03  0.12498635418E+03 0.  0.
          2    1    1    2  501    0  0.67416334014E+02  0.21594615304E+02 -0.67302172109E+03  0.67673445794E+03  0.00000000000E+00 0. -1.
          1    1    1    2  502    0 -0.94546446909E+02  0.41609275937E+01  0.14252745164E+04  0.14284130324E+04  0.00000000000E+00 0. -1.
         22    1    3    3    0    0 -0.14197433207E-01 -0.57924847245E+02  0.61845203707E+02  0.84735573117E+02  0.00000000000E+00 0. -1.
         22    1    3    3    0    0  0.27144310329E+02  0.32169304347E+02 -0.27369454901E+02  0.50207218475E+02  0.00000000000E+00 0. -1.
</event>
<event>
 7    1  0.6273950E-006  0.1667100E+03  0.7818608E-02  0.1367273E+00
          2   -1    0    0  502    0  0.00000000000E+00  0.00000000000E+00  0.93325241835E+03  0.93325241835E+03  0.00000000000E+00 0. -1.
          1   -1    0    0  501    0 -0.00000000000E+00 -0.00000000000E+00 -0.45307556110E+03  0.45307556110E+03  0.00000000000E+00 0. -1.
         25    2    1    2    0    0  0.11640181556E+03 -0.83897364832E+02  0.54833917403E+02  0.19801237944E+03  0.12495596593E+03 0.  0.
          2    1    1    2  501    0 -0.13337728258E+03  0.10576170481E+03 -0.36224282432E+03  0.40024355271E+03  0.00000000000E+00 0. -1.
          1    1    1    2  502    0  0.16975467018E+02 -0.21864339980E+02  0.78758576416E+03  0.78807204731E+03  0.00000000000E+00 0. -1.
         22    1    3    3    0    0  0.22976424375E+02 -0.39349814179E+02  0.79480363200E+02  0.91615785143E+02  0.00000000000E+00 0.  1.
         22    1    3    3    0    0  0.93425391186E+02 -0.44547550653E+02 -0.24646445797E+02  0.10639659430E+03  0.00000000000E+00 0.  1.
</event>
<event>
 7    1  0.6273950E-006  0.8878806E+02  0.7818608E-02  0.1360022E+00
          2   -1    0    0  502    0  0.00000000000E+00  0.00000000000E+00  0.10165674726E+04  0.10165674726E+04  0.00000000000E+00 0. -1.
          1   -1    0    0  501    0 -0.00000000000E+00 -0.00000000000E+00 -0.32295457969E+04  0.32295457969E+04  0.00000000000E+00 0. -1.
         25    2    1    2    0    0 -0.10324163847E+03  0.96062768990E+02 -0.66982503460E+03  0.69582814107E+03  0.12499733367E+03 0.  0.
          2    1    1    2  501    0  0.64437545902E+02 -0.56774720556E+02 -0.25452347997E+04  0.25466832846E+04  0.00000000000E+00 0. -1.
          1    1    1    2  502    0  0.38804092567E+02 -0.39288048435E+02  0.10020815100E+04  0.10036018439E+04  0.00000000000E+00 0. -1.
         22    1    3    3    0    0 -0.21469364215E+02  0.67869990056E+02 -0.12226026841E+03  0.14147382225E+03  0.00000000000E+00 0.  1.
         22    1    3    3    0    0 -0.81772274254E+02  0.28192778934E+02 -0.54756476619E+03  0.55435431882E+03  0.00000000000E+00 0.  1.
</event>
<event>
 7    1  0.6273950E-006  0.6905866E+02  0.7818608E-02  0.1374579E+00
          2   -1    0    0  502    0  0.00000000000E+00  0.00000000000E+00  0.14990052175E+04  0.14990052175E+04  0.00000000000E+00 0. -1.
          1   -1    0    0  501    0 -0.00000000000E+00 -0.00000000000E+00 -0.17790080883E+02  0.17790080883E+02  0.00000000000E+00 0. -1.
         25    2    1    2    0    0 -0.22022868280E+02  0.60252861253E+01  0.78536890071E+03  0.79558178513E+03  0.12499902327E+03 0.  0.
          2    1    1    2  501    0 -0.61905078397E+02  0.30608174283E+02  0.12271216019E+03  0.14080970607E+03  0.00000000000E+00 0. -1.
          1    1    1    2  502    0  0.83927946677E+02 -0.36633460408E+02  0.57313407573E+03  0.58040380720E+03  0.00000000000E+00 0. -1.
         22    1    3    3    0    0  0.59427854186E+01 -0.42274869047E+01  0.74687038592E+03  0.74690599256E+03  0.00000000000E+00 0. -1.
         22    1    3    3    0    0 -0.27965653699E+02  0.10252773030E+02  0.38498514790E+02  0.48675792573E+02  0.00000000000E+00 0. -1.
</event>
<event>
 7    1  0.6273950E-006  0.6774765E+02  0.7818608E-02  0.1458006E+00
          2   -1    0    0  502    0  0.00000000000E+00  0.00000000000E+00  0.28489711756E+03  0.28489711756E+03  0.00000000000E+00 0. -1.
          1   -1    0    0  501    0 -0.00000000000E+00 -0.00000000000E+00 -0.20780719798E+04  0.20780719798E+04  0.00000000000E+00 0. -1.
         25    2    1    2    0    0 -0.41177011223E+02  0.22890393596E+02 -0.68395683167E+03  0.69688075640E+03  0.12500529861E+03 0.  0.
          2    1    1    2  501    0  0.70818888645E+02 -0.70226075542E+01 -0.13857217478E+04  0.13875479791E+04  0.00000000000E+00 0. -1.
          1    1    1    2  502    0 -0.29641877422E+02 -0.15867786042E+02  0.27650371724E+03  0.27854036185E+03  0.00000000000E+00 0. -1.
         22    1    3    3    0    0 -0.69879761672E+01  0.61154554211E+02 -0.17827069552E+03  0.18859785840E+03  0.00000000000E+00 0.  1.
         22    1    3    3    0    0 -0.34189035055E+02 -0.38264160615E+02 -0.50568613615E+03  0.50828289800E+03  0.00000000000E+00 0.  1.
</event>
<event>
 7    1  0.6273950E-006  0.8253738E+02  0.7818608E-02  0.1325848E+00
          2   -1    0    0  502    0  0.00000000000E+00  0.00000000000E+00  0.21647556395E+03  0.21647556395E+03  0.00000000000E+00 0. -1.
          1   -1    0    0  501    0 -0.00000000000E+00 -0.00000000000E+00 -0.95087745983E+03  0.95087745983E+03  0.00000000000E+00 0. -1.
         25    2    1    2    0    0 -0.10567793952E+03  0.14733711693E+02 -0.29540551067E+03  0.33804435882E+03  0.12499865453E+03 0.  0.
          2    1    1    2  501    0  0.59005937496E+02  0.53673623906E+02 -0.62270742550E+03  0.62779542554E+03  0.00000000000E+00 0. -1.
          1    1    1    2  502    0  0.46672002029E+02 -0.68407335599E+02  0.18371104029E+03  0.20151323942E+03  0.00000000000E+00 0. -1.
         22    1    3    3    0    0 -0.36762646416E+02 -0.53395896779E+02 -0.89896421755E+02  0.11083312054E+03  0.00000000000E+00 0.  1.
         22    1    3    3    0    0 -0.68915293109E+02  0.68129608472E+02 -0.20550908891E+03  0.22721123828E+03  0.00000000000E+00 0.  1.
</event>
<event>
 7    1  0.6273950E-006  0.1073705E+03  0.7818608E-02  0.1448167E+00
          2   -1    0    0  502    0  0.00000000000E+00  0.00000000000E+00  0.14484332469E+03  0.14484332469E+03  0.00000000000E+00 0. -1.
          1   -1    0    0  501    0 -0.00000000000E+00 -0.00000000000E+00 -0.10579367909E+04  0.10579367909E+04  0.00000000000E+00 0. -1.
         25    2    1    2    0    0  0.37432569600E+02 -0.11986098014E+03 -0.24957579703E+03  0.30607313725E+03  0.12499934022E+03 0.  0.
          2    1    1    2  501    0 -0.40052907009E+02  0.97209943349E+02 -0.77541483145E+03  0.78251017200E+03  0.00000000000E+00 0. -1.
          1    1    1    2  502    0  0.26203374088E+01  0.22651036793E+02  0.11189716232E+03  0.11419680630E+03  0.00000000000E+00 0. -1.
         22    1    3    3    0    0  0.60054416837E+02 -0.90415952678E+02 -0.24586250800E+03  0.26875630284E+03  0.00000000000E+00 0.  1.
         22    1    3    3    0    0 -0.22621847237E+02 -0.29445027465E+02 -0.37132890380E+01  0.37316834409E+02  0.00000000000E+00 0.  1.
</event>
<event>
 7    1  0.6273950E-006  0.6041431E+02  0.7818608E-02  0.1404644E+00
          2   -1    0    0  502    0  0.00000000000E+00  0.00000000000E+00  0.82777876655E+03  0.82777876655E+03  0.00000000000E+00 0. -1.
          1   -1    0    0  501    0 -0.00000000000E+00 -0.00000000000E+00 -0.62078153485E+03  0.62078153485E+03  0.00000000000E+00 0. -1.
         25    2    1    2    0    0 -0.40221248590E+02  0.10212488732E+03  0.38352173319E+01  0.16639270904E+03  0.12499833312E+03 0.  0.
          2    1    1    2  501    0  0.32143597974E+01 -0.59477449010E+02 -0.53677979082E+03  0.54007447901E+03  0.00000000000E+00 0. -1.
          1    1    1    2  502    0  0.37006888793E+02 -0.42647438314E+02  0.73994180519E+03  0.74209311335E+03  0.00000000000E+00 0. -1.
         22    1    3    3    0    0 -0.43553614500E+02  0.10444479026E+03 -0.41756741644E+02  0.12062030103E+03  0.00000000000E+00 0. -1.
         22    1    3    3    0    0  0.33323659103E+01 -0.23199029312E+01  0.45591958976E+02  0.45772408015E+02  0.00000000000E+00 0. -1.
</event>
<event>
 7    1  0.1214179E-005  0.1196237E+03  0.7818608E-02  0.1334937E+00
          2   -1    0    0  502    0  0.00000000000E+00  0.00000000000E+00  0.71063932623E+03  0.71063932623E+03  0.00000000000E+00 0. -1.
          1   -1    0    0  501    0 -0.00000000000E+00 -0.00000000000E+00 -0.15155123709E+04  0.15155123709E+04  0.00000000000E+00 0. -1.
         25    2    1    2    0    0  0.58686279124E+02 -0.48348024230E+02 -0.48737031721E+03  0.50885871532E+03  0.12500302101E+03 0.  0.
          2    1    1    2  501    0  0.50799640080E+02 -0.10220239716E+01 -0.10116031459E+04  0.10128783603E+04  0.00000000000E+00 0. -1.
          1    1    1    2  502    0 -0.10948591920E+03  0.49370048201E+02  0.69410041842E+03  0.70441462152E+03  0.00000000000E+00 0. -1.
         22    1    3    3    0    0  0.11398907588E+02  0.17575148020E+02 -0.76106098540E+01  0.22287716448E+02  0.00000000000E+00 0.  1.
         22    1    3    3    0    0  0.47287371536E+02 -0.65923172250E+02 -0.47975970735E+03  0.48657099887E+03  0.00000000000E+00 0.  1.
</event>
<event>
 7    1  0.6273950E-006  0.7704712E+02  0.7818608E-02  0.1348502E+00
          2   -1    0    0  502    0  0.00000000000E+00  0.00000000000E+00  0.23988461189E+03  0.23988461189E+03  0.00000000000E+00 0. -1.
          1   -1    0    0  501    0 -0.00000000000E+00 -0.00000000000E+00 -0.13880836054E+04  0.13880836054E+04  0.00000000000E+00 0. -1.
         25    2    1    2    0    0 -0.23279304076E+02  0.16740594795E+02  0.63001367336E+02  0.14288692775E+03  0.12500131329E+03 0.  0.
          2    1    1    2  501    0 -0.53863075151E+02  0.44962513530E+02 -0.13292797257E+04  0.13311301393E+04  0.00000000000E+00 0. -1.
          1    1    1    2  502    0  0.77142379226E+02 -0.61703108324E+02  0.11807936488E+03  0.15395115024E+03  0.00000000000E+00 0. -1.
         22    1    3    3    0    0  0.91785219652E+01 -0.32963639303E+02  0.74897089620E+02  0.82343310688E+02  0.00000000000E+00 0. -1.
         22    1    3    3    0    0 -0.32457826041E+02  0.49704234098E+02 -0.11895722284E+02  0.60543617064E+02  0.00000000000E+00 0. -1.
</event>
<event>
 7    1  0.6273950E-006  0.1154695E+03  0.7818608E-02  0.1273993E+00
          2   -1    0    0  502    0  0.00000000000E+00  0.00000000000E+00  0.48541623694E+03  0.48541623694E+03  0.00000000000E+00 0. -1.
          1   -1    0    0  501    0 -0.00000000000E+00 -0.00000000000E+00 -0.15322399910E+04  0.15322399910E+04  0.00000000000E+00 0. -1.
         25    2    1    2    0    0 -0.20528230236E+02  0.28560773007E+02  0.12209213270E+03  0.17823757440E+03  0.12500007227E+03 0.  0.
          2    1    1    2  501    0  0.11246048123E+03 -0.31554158523E+02 -0.14955378981E+04  0.15000922069E+04  0.00000000000E+00 0. -1.
          1    1    1    2  502    0 -0.91932250998E+02  0.29933855165E+01  0.32662201128E+03  0.33932644663E+03  0.00000000000E+00 0. -1.
         22    1    3    3    0    0  0.17972150806E+02 -0.26534233922E+02 -0.69017275187E+01  0.32782581002E+02  0.00000000000E+00 0. -1.
         22    1    3    3    0    0 -0.38500381042E+02  0.55095006929E+02  0.12899386022E+03  0.14545499339E+03  0.00000000000E+00 0. -1.
</event>
<event>
 7    1  0.6273950E-006  0.7622936E+02  0.7818608E-02  0.1381841E+00
          2   -1    0    0  502    0  0.00000000000E+00  0.00000000000E+00  0.12723055206E+04  0.12723055206E+04  0.00000000000E+00 0. -1.
          1   -1    0    0  501    0 -0.00000000000E+00 -0.00000000000E+00 -0.11041092598E+04  0.11041092598E+04  0.00000000000E+00 0. -1.
         25    2    1    2    0    0 -0.88581470200E+02 -0.38278715684E+02 -0.10091314010E+04  0.10214127254E+04  0.12500333680E+03 0.  0.
          2    1    1    2  501    0  0.13593524610E+02  0.51954143860E+02 -0.79459592524E+02  0.95905389941E+02  0.00000000000E+00 0. -1.
          1    1    1    2  502    0  0.74987945590E+02 -0.13675428176E+02  0.12567872543E+04  0.12590966650E+04  0.00000000000E+00 0. -1.
         22    1    3    3    0    0 -0.94577805788E+02  0.21664344329E+01 -0.89851608273E+03  0.90348259846E+03  0.00000000000E+00 0. -1.
         22    1    3    3    0    0  0.59963355883E+01 -0.40445150117E+02 -0.11061531830E+03  0.11793012699E+03  0.00000000000E+00 0. -1.
</event>
<event>
 7    1  0.6273950E-006  0.4850640E+02  0.7818608E-02  0.1565436E+00
          2   -1    0    0  502    0  0.00000000000E+00  0.00000000000E+00  0.28665519944E+03  0.28665519944E+03  0.00000000000E+00 0. -1.
          1   -1    0    0  501    0 -0.00000000000E+00 -0.00000000000E+00 -0.66236445076E+03  0.66236445076E+03  0.00000000000E+00 0. -1.
         25    2    1    2    0    0  0.32857311788E+02  0.28962508295E+02  0.67474061181E+01  0.13262314960E+03  0.12499976998E+03 0.  0.
          2    1    1    2  501    0  0.14660288039E+02 -0.17316239940E+02 -0.59645020858E+03  0.59688158585E+03  0.00000000000E+00 0. -1.
          1    1    1    2  502    0 -0.47517599827E+02 -0.11646268355E+02  0.21399355115E+03  0.21951491474E+03  0.00000000000E+00 0. -1.
         22    1    3    3    0    0  0.46366946131E+02  0.36554251658E+02 -0.47768859040E+02  0.75947158616E+02  0.00000000000E+00 0. -1.
         22    1    3    3    0    0 -0.13509634343E+02 -0.75917433638E+01  0.54516265158E+02  0.56675990985E+02  0.00000000000E+00 0. -1.
</event>
<event>
 7    1  0.6273950E-006  0.1147271E+03  0.7818608E-02  0.1284026E+00
          2   -1    0    0  502    0  0.00000000000E+00  0.00000000000E+00  0.16936115679E+03  0.16936115679E+03  0.00000000000E+00 0. -1.
          1   -1    0    0  501    0 -0.00000000000E+00 -0.00000000000E+00 -0.10343681458E+04  0.10343681458E+04  0.00000000000E+00 0. -1.
         25    2    1    2    0    0 -0.14763259054E+02  0.48006336465E+02 -0.14737962438E+03  0.19967166113E+03  0.12500182565E+03 0.  0.
          2    1    1    2  501    0 -0.72244647301E+02  0.43119799994E+02 -0.83058928462E+03  0.83483960492E+03  0.00000000000E+00 0. -1.
          1    1    1    2  502    0  0.87007906354E+02 -0.91126136460E+02  0.11296192000E+03  0.16921803652E+03  0.00000000000E+00 0. -1.
         22    1    3    3    0    0 -0.12962400940E+02 -0.36385751776E+02 -0.12577849537E+02  0.40622026900E+02  0.00000000000E+00 0. -1.
         22    1    3    3    0    0 -0.18008581137E+01  0.84392088242E+02 -0.13480177484E+03  0.15904963423E+03  0.00000000000E+00 0. -1.
</event>
<event>
 7    1  0.6273950E-006  0.1007573E+03  0.7818608E-02  0.1305434E+00
          2   -1    0    0  502    0  0.00000000000E+00  0.00000000000E+00  0.54023114297E+02  0.54023114297E+02  0.00000000000E+00 0. -1.
          1   -1    0    0  501    0 -0.00000000000E+00 -0.00000000000E+00 -0.16548030297E+04  0.16548030297E+04  0.00000000000E+00 0. -1.
         25    2    1    2    0    0  0.26541104245E+02  0.85904043246E+02 -0.12016781450E+04  0.12115031053E+04  0.12500190060E+03 0.  0.
          2    1    1    2  501    0 -0.10473850469E+03 -0.92929958128E+02 -0.39457174424E+03  0.41868006024E+03  0.00000000000E+00 0. -1.
          1    1    1    2  502    0  0.78197400449E+02  0.70259148813E+01 -0.45300261240E+01  0.78642978413E+02  0.00000000000E+00 0. -1.
         22    1    3    3    0    0  0.16562143980E+01  0.71635404172E+02 -0.26887869788E+03  0.27826269666E+03  0.00000000000E+00 0.  1.
         22    1    3    3    0    0  0.24884889847E+02  0.14268639074E+02 -0.93279944715E+03  0.93324040869E+03  0.00000000000E+00 0.  1.
</event>
<event>
 7    1  0.6273950E-006  0.1235828E+03  0.7818608E-02  0.1313826E+00
          2   -1    0    0  502    0  0.00000000000E+00  0.00000000000E+00  0.25201348880E+04  0.25201348880E+04  0.00000000000E+00 0. -1.
          1   -1    0    0  501    0 -0.00000000000E+00 -0.00000000000E+00 -0.12914225083E+04  0.12914225083E+04  0.00000000000E+00 0. -1.
         25    2    1    2    0    0 -0.80015709744E+02 -0.89221341958E+02  0.17132301191E+03  0.24361684623E+03  0.12503852083E+03 0.  0.
          2    1    1    2  501    0  0.50234260089E+02 -0.31540780713E+02 -0.12529010864E+04  0.12543043626E+04  0.00000000000E+00 0. -1.
          1    1    1    2  502    0  0.29781449655E+02  0.12076212267E+03  0.23102904542E+04  0.23136361875E+04  0.00000000000E+00 0. -1.
         22    1    3    3    0    0 -0.13563847857E+02 -0.27480274939E+02 -0.16668936549E+02  0.34885483014E+02  0.00000000000E+00 0.  1.
         22    1    3    3    0    0 -0.66451861887E+02 -0.61741067019E+02  0.18799194846E+03  0.20873136321E+03  0.00000000000E+00 0.  1.
</event>
<event>
 7    1  0.6273950E-006  0.6559590E+02  0.7818608E-02  0.1467451E+00
          2   -1    0    0  502    0  0.00000000000E+00  0.00000000000E+00  0.10641162542E+04  0.10641162542E+04  0.00000000000E+00 0. -1.
          1   -1    0    0  501    0 -0.00000000000E+00 -0.00000000000E+00 -0.83711991065E+03  0.83711991065E+03  0.00000000000E+00 0. -1.
         25    2    1    2    0    0 -0.86515437070E+02  0.31657258184E+02 -0.48884832291E+03  0.51292004540E+03  0.12500874896E+03 0.  0.
          2    1    1    2  501    0  0.55586397059E+02 -0.21902821814E+02 -0.33332911581E+03  0.33864122695E+03  0.00000000000E+00 0. -1.
          1    1    1    2  502    0  0.30929040011E+02 -0.97544363700E+01  0.10491737823E+04  0.10496748925E+04  0.00000000000E+00 0. -1.
         22    1    3    3    0    0 -0.17736880821E+02 -0.44763437099E+02 -0.10452105934E+03  0.11507829547E+03  0.00000000000E+00 0. -1.
         22    1    3    3    0    0 -0.68778556250E+02  0.76420695283E+02 -0.38432726357E+03  0.39784174993E+03  0.00000000000E+00 0. -1.
</event>
<event>
 7    1  0.6273950E-006  0.9478075E+02  0.7818608E-02  0.1315705E+00
          2   -1    0    0  502    0  0.00000000000E+00  0.00000000000E+00  0.15989413297E+04  0.15989413297E+04  0.00000000000E+00 0. -1.
          1   -1    0    0  501    0 -0.00000000000E+00 -0.00000000000E+00 -0.15596761676E+03  0.15596761676E+03  0.00000000000E+00 0. -1.
         25    2    1    2    0    0  0.63213137670E+02  0.10303804319E+03  0.23481962858E+03  0.29219720749E+03  0.12500484382E+03 0.  0.
          2    1    1    2  501    0  0.26085125567E+02 -0.71427872769E+02 -0.11407342007E+03  0.13709529514E+03  0.00000000000E+00 0. -1.
          1    1    1    2  502    0 -0.89298263237E+02 -0.31610170421E+02  0.13222275044E+04  0.13256164438E+04  0.00000000000E+00 0. -1.
         22    1    3    3    0    0  0.59079363636E+02  0.13148939603E+03  0.20653598483E+03  0.25186692023E+03  0.00000000000E+00 0. -1.
         22    1    3    3    0    0  0.41337740341E+01 -0.28451352845E+02  0.28283643753E+02  0.40330287259E+02  0.00000000000E+00 0. -1.
</event>
<event>
 7    1  0.6273950E-006  0.1011808E+03  0.7818608E-02  0.1324764E+00
          2   -1    0    0  502    0  0.00000000000E+00  0.00000000000E+00  0.24875843608E+04  0.24875843608E+04  0.00000000000E+00 0. -1.
          1   -1    0    0  501    0 -0.00000000000E+00 -0.00000000000E+00 -0.34880157481E+03  0.34880157481E+03  0.00000000000E+00 0. -1.
         25    2    1    2    0    0 -0.10058840667E+02 -0.14726069685E+03  0.33324233916E+02  0.19627035410E+03  0.12499861688E+03 0.  0.
          2    1    1    2  501    0  0.40917068106E+02  0.51398520249E+02 -0.26220566263E+03  0.27031060626E+03  0.00000000000E+00 0. -1.
          1    1    1    2  502    0 -0.30858227439E+02  0.95862176596E+02  0.23676642147E+04  0.23698049752E+04  0.00000000000E+00 0. -1.
         22    1    3    3    0    0 -0.28329789879E+02 -0.63559910315E+02  0.73872943217E+02  0.10148719591E+03  0.00000000000E+00 0. -1.
         22    1    3    3    0    0  0.18270949212E+02 -0.83700786530E+02 -0.40548709300E+02  0.94783158192E+02  0.00000000000E+00 0. -1.
</event>
<event>
 7    1  0.6273950E-006  0.8142832E+02  0.7818608E-02  0.1384037E+00
          2   -1    0    0  502    0  0.00000000000E+00  0.00000000000E+00  0.24851206198E+04  0.24851206198E+04  0.00000000000E+00 0. -1.
          1   -1    0    0  501    0 -0.00000000000E+00 -0.00000000000E+00 -0.58122791590E+03  0.58122791590E+03  0.00000000000E+00 0. -1.
         25    2    1    2    0    0  0.69347066695E+02  0.29819233791E+02  0.76204315568E+02  0.16471744086E+03  0.12500614085E+03 0.  0.
          2    1    1    2  501    0  0.10291002302E+02 -0.48301411912E+02 -0.53512737717E+03  0.53740137785E+03  0.00000000000E+00 0. -1.
          1    1    1    2  502    0 -0.79638068997E+02  0.18482178121E+02  0.23628157655E+04  0.23642297170E+04  0.00000000000E+00 0. -1.
         22    1    3    3    0    0 -0.22976732338E+00  0.44012552345E+02  0.82420564373E+02  0.93436111801E+02  0.00000000000E+00 0. -1.
         22    1    3    3    0    0  0.69576834019E+02 -0.14193318554E+02 -0.62162488052E+01  0.71281329062E+02  0.00000000000E+00 0. -1.
</event>
<event>
 7    1  0.6273950E-006  0.6106922E+02  0.7818608E-02  0.1504401E+00
          2   -1    0    0  502    0  0.00000000000E+00  0.00000000000E+00  0.15536195050E+03  0.15536195050E+03  0.00000000000E+00 0. -1.
          1   -1    0    0  501    0 -0.00000000000E+00 -0.00000000000E+00 -0.16240298173E+03  0.16240298173E+03  0.00000000000E+00 0. -1.
         25    2    1    2    0    0  0.39628754613E+02  0.21395434338E+02 -0.11426260524E+03  0.17524017490E+03  0.12499989256E+03 0.  0.
          2    1    1    2  501    0  0.22362396446E+02 -0.14930746280E+02  0.13807757746E+02  0.30226778414E+02  0.00000000000E+00 0. -1.
          1    1    1    2  502    0 -0.61991151059E+02 -0.64646880583E+01  0.93413816263E+02  0.11229797892E+03  0.00000000000E+00 0. -1.
         22    1    3    3    0    0 -0.29683428141E+01  0.53293592257E+02 -0.48796839845E+01  0.53598781241E+02  0.00000000000E+00 0.  1.
         22    1    3    3    0    0  0.42597097427E+02 -0.31898157919E+02 -0.10938292126E+03  0.12164139366E+03  0.00000000000E+00 0.  1.
</event>
<event>
 7    1  0.6273950E-006  0.8174797E+02  0.7818608E-02  0.1360488E+00
          2   -1    0    0  502    0  0.00000000000E+00  0.00000000000E+00  0.12150404858E+04  0.12150404858E+04  0.00000000000E+00 0. -1.
          1   -1    0    0  501    0 -0.00000000000E+00 -0.00000000000E+00 -0.85948615583E+02  0.85948615583E+02  0.00000000000E+00 0. -1.
         25    2    1    2    0    0 -0.47590588853E+02 -0.10154973666E+03  0.37783072927E+03  0.41347040310E+03  0.12499800439E+03 0.  0.
          2    1    1    2  501    0  0.55527142122E+02  0.22041209038E+02 -0.52659254758E+02  0.79637149119E+02  0.00000000000E+00 0. -1.
          1    1    1    2  502    0 -0.79365532688E+01  0.79508527617E+02  0.80392039571E+03  0.80788154917E+03  0.00000000000E+00 0. -1.
         22    1    3    3    0    0 -0.29220229796E+02  0.21835820263E+02  0.44367249719E+02  0.57437598518E+02  0.00000000000E+00 0.  1.
         22    1    3    3    0    0 -0.18370359057E+02 -0.12338555692E+03  0.33346347955E+03  0.35603280459E+03  0.00000000000E+00 0.  1.
</event>
<event>
 7    1  0.6273950E-006  0.4903867E+02  0.7818608E-02  0.1540702E+00
          2   -1    0    0  502    0  0.00000000000E+00  0.00000000000E+00  0.22896096100E+04  0.22896096100E+04  0.00000000000E+00 0. -1.
          1   -1    0    0  501    0 -0.00000000000E+00 -0.00000000000E+00 -0.13071488017E+03  0.13071488017E+03  0.00000000000E+00 0. -1.
         25    2    1    2    0    0  0.59800590970E+02  0.32751584792E+02  0.10330094022E+04  0.10427762401E+04  0.12500033936E+03 0.  0.
          2    1    1    2  501    0 -0.13396698347E+02 -0.22620435077E+02 -0.12400227372E+03  0.12675850858E+03  0.00000000000E+00 0. -1.
          1    1    1    2  502    0 -0.46403892623E+02 -0.10131149716E+02  0.12498876013E+04  0.12507897415E+04  0.00000000000E+00 0. -1.
         22    1    3    3    0    0  0.28399432782E+01 -0.45210787833E+02  0.37330952139E+03  0.37604797483E+03  0.00000000000E+00 0. -1.
         22    1    3    3    0    0  0.56960647691E+02  0.77962372626E+02  0.65969988080E+03  0.66672826523E+03  0.00000000000E+00 0. -1.
</event>
<event>
 7    1  0.6273950E-006  0.4677694E+02  0.7818608E-02  0.1589821E+00
          2   -1    0    0  502    0  0.00000000000E+00  0.00000000000E+00  0.60260149831E+03  0.60260149831E+03  0.00000000000E+00 0. -1.
          1   -1    0    0  501    0 -0.00000000000E+00 -0.00000000000E+00 -0.76711127959E+02  0.76711127959E+02  0.00000000000E+00 0. -1.
         25    2    1    2    0    0  0.18849798364E+01  0.65753569095E+02  0.98808558709E+02  0.17238057250E+03  0.12499938201E+03 0.  0.
          2    1    1    2  501    0 -0.47928375246E+01 -0.19653408750E+02 -0.36138040976E+02  0.41414801371E+02  0.00000000000E+00 0. -1.
          1    1    1    2  502    0  0.29078576882E+01 -0.46100160345E+02  0.46321985262E+03  0.46551725240E+03  0.00000000000E+00 0. -1.
         22    1    3    3    0    0  0.28904597531E+02  0.70432433995E+02  0.68728016154E+01  0.76442389542E+02  0.00000000000E+00 0. -1.
         22    1    3    3    0    0 -0.27019617695E+02 -0.46788648996E+01  0.91935757094E+02  0.95938182959E+02  0.00000000000E+00 0. -1.
</event>
<event>
 7    1  0.6273950E-006  0.3946409E+02  0.7818608E-02  0.1595371E+00
          2   -1    0    0  502    0  0.00000000000E+00  0.00000000000E+00  0.15246444359E+04  0.15246444359E+04  0.00000000000E+00 0. -1.
          1   -1    0    0  501    0 -0.00000000000E+00 -0.00000000000E+00 -0.17659773156E+02  0.17659773156E+02  0.00000000000E+00 0. -1.
         25    2    1    2    0    0 -0.27677983204E+02 -0.82605381428E+01  0.10943125289E+04  0.11018084968E+04  0.12501098168E+03 0.  0.
          2    1    1    2  501    0 -0.14909525410E+02  0.17752713252E+02 -0.22442863973E+01  0.23291406080E+02  0.00000000000E+00 0. -1.
          1    1    1    2  502    0  0.42587508614E+02 -0.94921751088E+01  0.41491642026E+03  0.41720430616E+03  0.00000000000E+00 0. -1.
         22    1    3    3    0    0  0.33829951917E+02  0.38340163651E+02  0.44103847797E+03  0.44399253693E+03  0.00000000000E+00 0.  1.
         22    1    3    3    0    0 -0.61507935121E+02 -0.46600701794E+02  0.65327405091E+03  0.65781595989E+03  0.00000000000E+00 0.  1.
</event>
<event>
 7    1  0.6273950E-006  0.1884325E+03  0.7818608E-02  0.1163581E+00
          2   -1    0    0  502    0  0.00000000000E+00  0.00000000000E+00  0.37738773485E+03  0.37738773485E+03  0.00000000000E+00 0. -1.
          1   -1    0    0  501    0 -0.00000000000E+00 -0.00000000000E+00 -0.84303316615E+03  0.84303316615E+03  0.00000000000E+00 0. -1.
         25    2    1    2    0    0 -0.58202407734E+01 -0.22758262436E+02 -0.31840395492E+03  0.34286676875E+03  0.12499891557E+03 0.  0.
          2    1    1    2  501    0  0.24342482665E+01 -0.18050108770E+03 -0.46585753788E+03  0.49960966146E+03  0.00000000000E+00 0. -1.
          1    1    1    2  502    0  0.33859925069E+01  0.20325935014E+03  0.31861606150E+03  0.37794447080E+03  0.00000000000E+00 0. -1.
         22    1    3    3    0    0 -0.59884710149E+02 -0.71143560045E+01 -0.95339129363E+02  0.11281109058E+03  0.00000000000E+00 0.  1.
         22    1    3    3    0    0  0.54064469375E+02 -0.15643906432E+02 -0.22306482555E+03  0.23005567817E+03  0.00000000000E+00 0.  1.
</event>
<event>
 7    1  0.6273950E-006  0.1263745E+03  0.7818608E-02  0.1413355E+00
          2   -1    0    0  502    0  0.00000000000E+00  0.00000000000E+00  0.10308521441E+04  0.10308521441E+04  0.00000000000E+00 0. -1.
          1   -1    0    0  501    0 -0.00000000000E+00 -0.00000000000E+00 -0.25639425797E+03  0.25639425797E+03  0.00000000000E+00 0. -1.
         25    2    1    2    0    0 -0.14000196787E+01 -0.10563032940E+03 -0.85676312611E+02  0.18472751396E+03  0.12499638925E+03 0.  0.
          2    1    1    2  501    0  0.14352801541E+02 -0.20734254979E+02 -0.11571803639E+03  0.11843384730E+03  0.00000000000E+00 0. -1.
          1    1    1    2  502    0 -0.12952781862E+02  0.12636458438E+03  0.97585223514E+03  0.98408504082E+03  0.00000000000E+00 0. -1.
         22    1    3    3    0    0 -0.30199026761E+02 -0.10832548112E+03 -0.10173345807E+03  0.15164460943E+03  0.00000000000E+00 0.  1.
         22    1    3    3    0    0  0.28799007083E+02  0.26951517184E+01  0.16057145462E+02  0.33082904530E+02  0.00000000000E+00 0.  1.
</event>
<event>
 7    1  0.6273950E-006  0.4491614E+02  0.7818608E-02  0.1575446E+00
          2   -1    0    0  502    0  0.00000000000E+00  0.00000000000E+00  0.58313020551E+03  0.58313020551E+03  0.00000000000E+00 0. -1.
          1   -1    0    0  501    0 -0.00000000000E+00 -0.00000000000E+00 -0.21781444987E+02  0.21781444987E+02  0.00000000000E+00 0. -1.
         25    2    1    2    0    0  0.21127875659E+02 -0.34746629723E+02  0.35733144307E+03  0.38074987203E+03  0.12502395545E+03 0.  0.
          2    1    1    2  501    0 -0.19508585030E+02 -0.12212547227E+02  0.11003340174E+02  0.25510874047E+02  0.00000000000E+00 0. -1.
          1    1    1    2  502    0 -0.16192906288E+01  0.46959176950E+02  0.19301397728E+03  0.19865090442E+03  0.00000000000E+00 0. -1.
         22    1    3    3    0    0  0.57764321078E+02 -0.62598527785E+02  0.22008360537E+03  0.23599170711E+03  0.00000000000E+00 0. -1.
         22    1    3    3    0    0 -0.36636445420E+02  0.27851898062E+02  0.13724783770E+03  0.14475816492E+03  0.00000000000E+00 0. -1.
</event>
<event>
 7    1  0.6273950E-006  0.1422427E+03  0.7818608E-02  0.1332981E+00
          2   -1    0    0  502    0  0.00000000000E+00  0.00000000000E+00  0.84134356738E+03  0.84134356738E+03  0.00000000000E+00 0. -1.
          1   -1    0    0  501    0 -0.00000000000E+00 -0.00000000000E+00 -0.10595457857E+03  0.10595457857E+03  0.00000000000E+00 0. -1.
         25    2    1    2    0    0 -0.12995850074E+03  0.82617334192E+02  0.20008794738E+03  0.28173584476E+03  0.12500025486E+03 0.  0.
          2    1    1    2  501    0  0.13429666914E+03 -0.39367369444E+02  0.12002433754E+02  0.14046153756E+03  0.00000000000E+00 0. -1.
          1    1    1    2  502    0 -0.43381683953E+01 -0.43249964747E+02  0.52329860768E+03  0.52510076362E+03  0.00000000000E+00 0. -1.
         22    1    3    3    0    0 -0.12750922390E+03  0.18587724670E+02  0.10094483674E+03  0.16368862439E+03  0.00000000000E+00 0.  1.
         22    1    3    3    0    0 -0.24492768373E+01  0.64029609521E+02  0.99143110635E+02  0.11804722038E+03  0.00000000000E+00 0.  1.
</event>
<event>
 7    1  0.6273950E-006  0.7325358E+02  0.7818608E-02  0.1411248E+00
          2   -1    0    0  502    0  0.00000000000E+00  0.00000000000E+00  0.11517411610E+04  0.11517411610E+04  0.00000000000E+00 0. -1.
          1   -1    0    0  501    0 -0.00000000000E+00 -0.00000000000E+00 -0.26451362750E+03  0.26451362750E+03  0.00000000000E+00 0. -1.
         25    2    1    2    0    0  0.81853173968E+02  0.52777161355E+02  0.44089773296E+02  0.16448128545E+03  0.12499925721E+03 0.  0.
          2    1    1    2  501    0 -0.95527374530E+01 -0.43178341948E+02 -0.20063745788E+03  0.20545319056E+03  0.00000000000E+00 0. -1.
          1    1    1    2  502    0 -0.72300436515E+02 -0.95988194064E+01  0.10437752181E+04  0.10463203125E+04  0.00000000000E+00 0. -1.
         22    1    3    3    0    0 -0.21288971203E+02 -0.14155853739E+02 -0.13268772243E+02  0.28803972066E+02  0.00000000000E+00 0.  1.
         22    1    3    3    0    0  0.10314214517E+03  0.66933015093E+02  0.57358545539E+02  0.13567731338E+03  0.00000000000E+00 0.  1.
</event>
<event>
 7    1  0.6273950E-006  0.1131450E+03  0.7818608E-02  0.1319923E+00
          2   -1    0    0  502    0  0.00000000000E+00  0.00000000000E+00  0.18913392922E+04  0.18913392922E+04  0.00000000000E+00 0. -1.
          1   -1    0    0  501    0 -0.00000000000E+00 -0.00000000000E+00 -0.63968001384E+03  0.63968001384E+03  0.00000000000E+00 0. -1.
         25    2    1    2    0    0 -0.97389996917E+02  0.21348842353E+02  0.30015881322E+03  0.34009206999E+03  0.12500687319E+03 0.  0.
          2    1    1    2  501    0  0.10660610766E+03  0.39291186900E+02 -0.61390022354E+03  0.62432535109E+03  0.00000000000E+00 0. -1.
          1    1    1    2  502    0 -0.92161107423E+01 -0.60640029253E+02  0.15654006887E+04  0.15666018850E+04  0.00000000000E+00 0. -1.
         22    1    3    3    0    0 -0.11458236327E+03 -0.17843559791E+02  0.23626298454E+03  0.26318759178E+03  0.00000000000E+00 0.  1.
         22    1    3    3    0    0  0.17192366355E+02  0.39192402144E+02  0.63895828678E+02  0.76904478213E+02  0.00000000000E+00 0.  1.
</event>
<event>
 7    1  0.6273950E-006  0.3934846E+02  0.7818608E-02  0.1524156E+00
          2   -1    0    0  502    0  0.00000000000E+00  0.00000000000E+00  0.34375691750E+03  0.34375691750E+03  0.00000000000E+00 0. -1.
          1   -1    0    0  501    0 -0.00000000000E+00 -0.00000000000E+00 -0.66771200835E+02  0.66771200835E+02  0.00000000000E+00 0. -1.
         25    2    1    2    0    0 -0.70878833169E+01 -0.83749362936E+01  0.79803682510E+02  0.14871025969E+03  0.12500294376E+03 0.  0.
          2    1    1    2  501    0 -0.23775090884E+02  0.32783503595E+02 -0.17095393598E+02  0.43957542433E+02  0.00000000000E+00 0. -1.
          1    1    1    2  502    0  0.30862974200E+02 -0.24408567302E+02  0.21427742775E+03  0.21786031620E+03  0.00000000000E+00 0. -1.
         22    1    3    3    0    0  0.26215901029E+02 -0.49025818808E+02  0.78436779384E+02  0.96141212478E+02  0.00000000000E+00 0.  1.
         22    1    3    3    0    0 -0.33303784346E+02  0.40650882515E+02  0.13669031265E+01  0.52569047216E+02  0.00000000000E+00 0.  1.
</event>
<event>
 7    1  0.6273950E-006  0.1396817E+03  0.7818608E-02  0.1342253E+00
          2   -1    0    0  502    0  0.00000000000E+00  0.00000000000E+00  0.12086873954E+04  0.12086873954E+04  0.00000000000E+00 0. -1.
          1   -1    0    0  501    0 -0.00000000000E+00 -0.00000000000E+00 -0.44131963514E+03  0.44131963514E+03  0.00000000000E+00 0. -1.
         25    2    1    2    0    0  0.10525010187E+03 -0.29557206242E+02 -0.44211196023E+02  0.17184568451E+03  0.12500038818E+03 0.  0.
          2    1    1    2  501    0 -0.13677788830E+03  0.55510088615E+02 -0.31655940679E+03  0.34928415179E+03  0.00000000000E+00 0. -1.
          1    1    1    2  502    0  0.31527786437E+02 -0.25952882373E+02  0.11281383631E+04  0.11288771943E+04  0.00000000000E+00 0. -1.
         22    1    3    3    0    0  0.20949420114E+02  0.43677800545E+02  0.70869028297E+01  0.48957661864E+02  0.00000000000E+00 0.  1.
         22    1    3    3    0    0  0.84300681753E+02 -0.73235006787E+02 -0.51298098852E+02  0.12288802264E+03  0.00000000000E+00 0.  1.
</event>
<event>
 7    1  0.6273950E-006  0.5992049E+02  0.7818608E-02  0.1437095E+00
          2   -1    0    0  502    0  0.00000000000E+00  0.00000000000E+00  0.49336598805E+03  0.49336598805E+03  0.00000000000E+00 0. -1.
          1   -1    0    0  501    0 -0.00000000000E+00 -0.00000000000E+00 -0.25520713215E+03  0.25520713215E+03  0.00000000000E+00 0. -1.
         25    2    1    2    0    0 -0.44329502895E+02  0.69129234739E+02 -0.19096644259E+03  0.24256221399E+03  0.12499715812E+03 0.  0.
          2    1    1    2  501    0  0.42110844479E+02 -0.24815564076E+02 -0.21362670477E+02  0.53343220123E+02  0.00000000000E+00 0. -1.
          1    1    1    2  502    0  0.22186584154E+01 -0.44313670663E+02  0.45048796896E+03  0.45266768609E+03  0.00000000000E+00 0. -1.
         22    1    3    3    0    0  0.85776166166E+01  0.91217901621E+02 -0.12790820195E+03  0.15733654759E+03  0.00000000000E+00 0. -1.
         22    1    3    3    0    0 -0.52907119511E+02 -0.22088666882E+02 -0.63058240643E+02  0.85225666396E+02  0.00000000000E+00 0. -1.
</event>
<event>
 7    1  0.6273950E-006  0.7308918E+02  0.7818608E-02  0.1430030E+00
          2   -1    0    0  502    0  0.00000000000E+00  0.00000000000E+00  0.10186182009E+04  0.10186182009E+04  0.00000000000E+00 0. -1.
          1   -1    0    0  501    0 -0.00000000000E+00 -0.00000000000E+00 -0.78814339920E+03  0.78814339920E+03  0.00000000000E+00 0. -1.
         25    2    1    2    0    0  0.44684151423E+02  0.21232730524E+02  0.83211415789E+02  0.15810977049E+03  0.12500823002E+03 0.  0.
          2    1    1    2  501    0 -0.33233427216E+00  0.38364352778E+02 -0.74866567051E+03  0.74964806424E+03  0.00000000000E+00 0. -1.
          1    1    1    2  502    0 -0.44351817151E+02 -0.59597083302E+02  0.89592905647E+03  0.89900376543E+03  0.00000000000E+00 0. -1.
         22    1    3    3    0    0 -0.15001273234E+02  0.37244662651E+02  0.87389924570E+02  0.96172771671E+02  0.00000000000E+00 0.  1.
         22    1    3    3    0    0  0.59685424657E+02 -0.16011932127E+02 -0.41785087809E+01  0.61936998818E+02  0.00000000000E+00 0.  1.
</event>
<event>
 7    1  0.6273950E-006  0.1125351E+03  0.7818608E-02  0.1385169E+00
          2   -1    0    0  502    0  0.00000000000E+00  0.00000000000E+00  0.12729955503E+04  0.12729955503E+04  0.00000000000E+00 0. -1.
          1   -1    0    0  501    0 -0.00000000000E+00 -0.00000000000E+00 -0.11116474801E+03  0.11116474801E+03  0.00000000000E+00 0. -1.
         25    2    1    2    0    0  0.10308236517E+03 -0.45830976522E+02  0.41278187288E+03  0.44579145322E+03  0.12495876427E+03 0.  0.
          2    1    1    2  501    0  0.98180922611E+01  0.34019851710E+02 -0.87375058144E+02  0.94276964481E+02  0.00000000000E+00 0. -1.
          1    1    1    2  502    0 -0.11290045743E+03  0.11811124811E+02  0.83642398752E+03  0.84409188058E+03  0.00000000000E+00 0. -1.
         22    1    3    3    0    0  0.29119135572E+01  0.16060431346E+02  0.21495538812E+03  0.21557419971E+03  0.00000000000E+00 0. -1.
         22    1    3    3    0    0  0.10017045161E+03 -0.61891407868E+02  0.19782648475E+03  0.23021725351E+03  0.00000000000E+00 0. -1.
</event>
<event>
 7    1  0.6273950E-006  0.1033126E+03  0.7818608E-02  0.1337714E+00
          2   -1    0    0  502    0  0.00000000000E+00  0.00000000000E+00  0.22137402355E+03  0.22137402355E+03  0.00000000000E+00 0. -1.
          1   -1    0    0  501    0 -0.00000000000E+00 -0.00000000000E+00 -0.45488679385E+03  0.45488679385E+03  0.00000000000E+00 0. -1.
         25    2    1    2    0    0  0.31825212273E+02 -0.44687446448E+02 -0.68901587936E+02  0.15291059298E+03  0.12499763445E+03 0.  0.
          2    1    1    2  501    0  0.45680392588E+02 -0.34799099963E+02 -0.32403234331E+03  0.32908150227E+03  0.00000000000E+00 0. -1.
          1    1    1    2  502    0 -0.77505604860E+02  0.79486546412E+02  0.15942116095E+03  0.19426872215E+03  0.00000000000E+00 0. -1.
         22    1    3    3    0    0  0.10458027743E+02 -0.82123957922E+02 -0.15404041269E+02  0.84208071445E+02  0.00000000000E+00 0.  1.
         22    1    3    3    0    0  0.21367184529E+02  0.37436511473E+02 -0.53497546666E+02  0.68702521535E+02  0.00000000000E+00 0.  1.
</event>
<event>
 7    1  0.6273950E-006  0.7253793E+02  0.7818608E-02  0.1479028E+00
          2   -1    0    0  502    0  0.00000000000E+00  0.00000000000E+00  0.39935342046E+02  0.39935342046E+02  0.00000000000E+00 0. -1.
          1   -1    0    0  501    0 -0.00000000000E+00 -0.00000000000E+00 -0.93280329783E+03  0.93280329783E+03  0.00000000000E+00 0. -1.
         25    2    1    2    0    0  0.42836968969E+02  0.23633486412E+02 -0.40748115248E+03  0.42902094521E+03  0.12499813682E+03 0.  0.
          2    1    1    2  501    0  0.26194967880E+02  0.65576978383E+01 -0.46483642173E+03  0.46562010128E+03  0.00000000000E+00 0. -1.
          1    1    1    2  502    0 -0.69031936849E+02 -0.30191184251E+02 -0.20550381572E+02  0.78097593396E+02  0.00000000000E+00 0. -1.
         22    1    3    3    0    0  0.34838889077E+02  0.69587825452E+02 -0.16949629575E+03  0.18650792990E+03  0.00000000000E+00 0.  1.
         22    1    3    3    0    0  0.79980798917E+01 -0.45954339039E+02 -0.23798485673E+03  0.24251301531E+03  0.00000000000E+00 0.  1.
</event>
<event>
 7    1  0.6273950E-006  0.4536678E+02  0.7818608E-02  0.1581322E+00
          2   -1    0    0  502    0  0.00000000000E+00  0.00000000000E+00  0.46496667188E+03  0.46496667188E+03  0.00000000000E+00 0. -1.
          1   -1    0    0  501    0 -0.00000000000E+00 -0.00000000000E+00 -0.17818351617E+03  0.17818351617E+03  0.00000000000E+00 0. -1.
         25    2    1    2    0    0  0.32272946175E+02  0.46365735394E+01  0.15762117323E+03  0.20379410809E+03  0.12499825348E+03 0.  0.
          2    1    1    2  501    0  0.67914435153E+01  0.20897740309E+02 -0.15238814726E+03  0.15396423831E+03  0.00000000000E+00 0. -1.
          1    1    1    2  502    0 -0.39064389690E+02 -0.25534313849E+02  0.28155012973E+03  0.28539184164E+03  0.00000000000E+00 0. -1.
         22    1    3    3    0    0  0.70656680595E+02  0.76527614413E+01  0.43435913735E+02  0.83292315806E+02  0.00000000000E+00 0. -1.
         22    1    3    3    0    0 -0.38383734420E+02 -0.30161879019E+01  0.11418525950E+03  0.12050179229E+03  0.00000000000E+00 0. -1.
</event>
<event>
 7    1  0.6273950E-006  0.6042925E+02  0.7818608E-02  0.1488619E+00
          2   -1    0    0  502    0  0.00000000000E+00  0.00000000000E+00  0.82659448184E+02  0.82659448184E+02  0.00000000000E+00 0. -1.
          1   -1    0    0  501    0 -0.00000000000E+00 -0.00000000000E+00 -0.19051537017E+03  0.19051537017E+03  0.00000000000E+00 0. -1.
         25    2    1    2    0    0 -0.33167999870E+01  0.40086574624E+02 -0.83436072766E+02  0.15557544912E+03  0.12499682997E+03 0.  0.
          2    1    1    2  501    0 -0.23246306428E+02  0.19437502166E+02 -0.40386288937E+02  0.50490192979E+02  0.00000000000E+00 0. -1.
          1    1    1    2  502    0  0.26563106415E+02 -0.59524076790E+02  0.15966439718E+02  0.67109176253E+02  0.00000000000E+00 0. -1.
         22    1    3    3    0    0  0.21088964762E+02 -0.30277209243E+02 -0.71072964748E+02  0.80080085866E+02  0.00000000000E+00 0. -1.
         22    1    3    3    0    0 -0.24405764749E+02  0.70363783867E+02 -0.12363108018E+02  0.75495363254E+02  0.00000000000E+00 0. -1.
</event>
<event>
 7    1  0.6273950E-006  0.5537239E+02  0.7818608E-02  0.1445266E+00
          2   -1    0    0  502    0  0.00000000000E+00  0.00000000000E+00  0.16058497365E+03  0.16058497365E+03  0.00000000000E+00 0. -1.
          1   -1    0    0  501    0 -0.00000000000E+00 -0.00000000000E+00 -0.10850718784E+04  0.10850718784E+04  0.00000000000E+00 0. -1.
         25    2    1    2    0    0 -0.89504886372E+02 -0.39078807199E+02 -0.37695143976E+03  0.40896363666E+03  0.12498236001E+03 0.  0.
          2    1    1    2  501    0  0.49546679948E+02  0.18006592255E+02 -0.68755182063E+03  0.68956987820E+03  0.00000000000E+00 0. -1.
          1    1    1    2  502    0  0.39958206423E+02  0.21072214944E+02  0.14001635564E+03  0.14712333721E+03  0.00000000000E+00 0. -1.
         22    1    3    3    0    0 -0.89140543268E+02 -0.47210846070E+02 -0.38471238591E+03  0.39771663318E+03  0.00000000000E+00 0. -1.
         22    1    3    3    0    0 -0.36434310397E+00  0.81320388705E+01  0.77609461454E+01  0.11247003475E+02  0.00000000000E+00 0. -1.
</event>
<event>
 7    1  0.6273950E-006  0.6180249E+02  0.7818608E-02  0.1462224E+00
          2   -1    0    0  502    0  0.00000000000E+00  0.00000000000E+00  0.34834710821E+03  0.34834710821E+03  0.00000000000E+00 0. -1.
          1   -1    0    0  501    0 -0.00000000000E+00 -0.00000000000E+00 -0.73176768120E+03  0.73176768120E+03  0.00000000000E+00 0. -1.
         25    2    1    2    0    0 -0.29801392080E+02 -0.16538505339E+02 -0.30735198382E+03  0.33354760907E+03  0.12500848143E+03 0.  0.
          2    1    1    2  501    0 -0.32274752444E+02  0.15361918676E+02 -0.40765452644E+03  0.40921859820E+03  0.00000000000E+00 0. -1.
          1    1    1    2  502    0  0.62076144524E+02  0.11765866629E+01  0.33158593727E+03  0.33734858214E+03  0.00000000000E+00 0. -1.
         22    1    3    3    0    0 -0.34552660641E+01  0.13560888234E+02  0.76957171379E+01  0.15970617256E+02  0.00000000000E+00 0. -1.
         22    1    3    3    0    0 -0.26346126016E+02 -0.30099393573E+02 -0.31504770096E+03  0.31757699181E+03  0.00000000000E+00 0. -1.
</event>
<event>
 7    1  0.6273950E-006  0.4361914E+02  0.7818608E-02  0.1526234E+00
          2   -1    0    0  502    0  0.00000000000E+00  0.00000000000E+00  0.95410041698E+03  0.95410041698E+03  0.00000000000E+00 0. -1.
          1   -1    0    0  501    0 -0.00000000000E+00 -0.00000000000E+00 -0.11257861216E+04  0.11257861216E+04  0.00000000000E+00 0. -1.
         25    2    1    2    0    0 -0.56566666250E+02 -0.48417773400E+02 -0.56677835993E+02  0.15614870335E+03  0.12500388775E+03 0.  0.
          2    1    1    2  501    0  0.27834983382E+02  0.33223475938E+02 -0.10186198285E+04  0.10195415346E+04  0.00000000000E+00 0. -1.
          1    1    1    2  502    0  0.28731682868E+02  0.15194297462E+02  0.90361195984E+03  0.90419630072E+03  0.00000000000E+00 0. -1.
         22    1    3    3    0    0 -0.21725609141E+02  0.27122484647E+02  0.22422665602E+02  0.41357069513E+02  0.00000000000E+00 0.  1.
         22    1    3    3    0    0 -0.34841057109E+02 -0.75540258047E+02 -0.79100501595E+02  0.11479163384E+03  0.00000000000E+00 0.  1.
</event>
<event>
 7    1  0.6273950E-006  0.8842340E+02  0.7818608E-02  0.1359629E+00
          2   -1    0    0  502    0  0.00000000000E+00  0.00000000000E+00  0.44698055660E+03  0.44698055660E+03  0.00000000000E+00 0. -1.
          1   -1    0    0  501    0 -0.00000000000E+00 -0.00000000000E+00 -0.78479277619E+02  0.78479277619E+02  0.00000000000E+00 0. -1.
         25    2    1    2    0    0 -0.23329453359E+02 -0.97125648959E+02  0.33499880401E+02  0.16347409560E+03  0.12499553138E+03 0.  0.
          2    1    1    2  501    0  0.57462714540E+02  0.53196169440E+02  0.15618886981E+03  0.17471908613E+03  0.00000000000E+00 0. -1.
          1    1    1    2  502    0 -0.34133261181E+02  0.43929479519E+02  0.17881252877E+03  0.18726665249E+03  0.00000000000E+00 0. -1.
         22    1    3    3    0    0 -0.11261870539E+02 -0.12627927348E+03  0.17144114128E+02  0.12793437883E+03  0.00000000000E+00 0. -1.
         22    1    3    3    0    0 -0.12067582820E+02  0.29153624517E+02  0.16355766273E+02  0.35539716769E+02  0.00000000000E+00 0. -1.
</event>
<event>
 7    1  0.6273950E-006  0.5465768E+02  0.7818608E-02  0.1428413E+00
          2   -1    0    0  502    0  0.00000000000E+00  0.00000000000E+00  0.38878348128E+03  0.38878348128E+03  0.00000000000E+00 0. -1.
          1   -1    0    0  501    0 -0.00000000000E+00 -0.00000000000E+00 -0.43838913278E+03  0.43838913278E+03  0.00000000000E+00 0. -1.
         25    2    1    2    0    0  0.87551824144E+00 -0.13842274456E+01  0.66787010725E+02  0.14172999364E+03  0.12499681467E+03 0.  0.
          2    1    1    2  501    0  0.54468944859E+02 -0.45382765660E+01 -0.39630171023E+03  0.40005313077E+03  0.00000000000E+00 0. -1.
          1    1    1    2  502    0 -0.55344463101E+02  0.59225040116E+01  0.27990904801E+03  0.28538948966E+03  0.00000000000E+00 0. -1.
         22    1    3    3    0    0  0.16099909120E+02 -0.33139213511E+01  0.10200120999E+03  0.10331716211E+03  0.00000000000E+00 0.  1.
         22    1    3    3    0    0 -0.15224390879E+02  0.19296939055E+01 -0.35214199262E+02  0.38412831526E+02  0.00000000000E+00 0.  1.
</event>
<event>
 7    1  0.6273950E-006  0.1831459E+03  0.7818608E-02  0.1207553E+00
          2   -1    0    0  502    0  0.00000000000E+00  0.00000000000E+00  0.11299600462E+03  0.11299600462E+03  0.00000000000E+00 0. -1.
          1   -1    0    0  501    0 -0.00000000000E+00 -0.00000000000E+00 -0.37665624060E+04  0.37665624060E+04  0.00000000000E+00 0. -1.
         25    2    1    2    0    0 -0.11777733167E+03 -0.40398274293E+02 -0.12535990816E+04  0.12659538859E+04  0.12500025368E+03 0.  0.
          2    1    1    2  501    0  0.23014010073E+03  0.58559388781E+02 -0.24690602594E+04  0.24804540376E+04  0.00000000000E+00 0. -1.
          1    1    1    2  502    0 -0.11236276906E+03 -0.18161114488E+02  0.69092939550E+02  0.13315048722E+03  0.00000000000E+00 0. -1.
         22    1    3    3    0    0 -0.58351359038E+02  0.37246064378E+02 -0.73228941950E+03  0.73555417498E+03  0.00000000000E+00 0.  1.
         22    1    3    3    0    0 -0.59425972633E+02 -0.77644338671E+02 -0.52130966206E+03  0.53039971088E+03  0.00000000000E+00 0.  1.
</event>
<event>
 7    1  0.6273950E-006  0.2443915E+03  0.7818608E-02  0.1249440E+00
          2   -1    0    0  502    0  0.00000000000E+00  0.00000000000E+00  0.15317428794E+04  0.15317428794E+04  0.00000000000E+00 0. -1.
          1   -1    0    0  501    0 -0.00000000000E+00 -0.00000000000E+00 -0.30742737668E+03  0.30742737668E+03  0.00000000000E+00 0. -1.
         25    2    1    2    0    0 -0.25513193163E+03 -0.12517178517E+03  0.44150134342E+03  0.53972926046E+03  0.12499583996E+03 0.  0.
          2    1    1    2  501    0  0.36736897255E+02  0.41311012049E+02 -0.24201530160E+03  0.24824907964E+03  0.00000000000E+00 0. -1.
          1    1    1    2  502    0  0.21839503438E+03  0.83860773125E+02  0.10248294609E+04  0.10511919160E+04  0.00000000000E+00 0. -1.
         22    1    3    3    0    0 -0.77541852879E+01 -0.39691749909E+02  0.24165366704E+02  0.47111859953E+02  0.00000000000E+00 0.  1.
         22    1    3    3    0    0 -0.24737774635E+03 -0.85480035265E+02  0.41733597672E+03  0.49261740050E+03  0.00000000000E+00 0.  1.
</event>
<event>
 7    1  0.6273950E-006  0.1577831E+03  0.7818608E-02  0.1313009E+00
          2   -1    0    0  502    0  0.00000000000E+00  0.00000000000E+00  0.10021076494E+04  0.10021076494E+04  0.00000000000E+00 0. -1.
          1   -1    0    0  501    0 -0.00000000000E+00 -0.00000000000E+00 -0.74213421297E+03  0.74213421297E+03  0.00000000000E+00 0. -1.
         25    2    1    2    0    0  0.15999752771E+03  0.95608029035E+02 -0.27745332789E+02  0.22612734377E+03  0.12499467197E+03 0.  0.
          2    1    1    2  501    0 -0.11419944495E+03 -0.10524927772E+03 -0.60477366291E+03  0.62439579358E+03  0.00000000000E+00 0. -1.
          1    1    1    2  502    0 -0.45798082764E+02  0.96412486814E+01  0.89249243213E+03  0.89371872503E+03  0.00000000000E+00 0. -1.
         22    1    3    3    0    0  0.11159581035E+03  0.40054638341E+02 -0.73400931233E+02  0.13944782410E+03  0.00000000000E+00 0.  1.
         22    1    3    3    0    0  0.48401717364E+02  0.55553390695E+02  0.45655598445E+02  0.86679519673E+02  0.00000000000E+00 0.  1.
</event>
<event>
 7    1  0.6273950E-006  0.7580646E+02  0.7818608E-02  0.1385902E+00
          2   -1    0    0  502    0  0.00000000000E+00  0.00000000000E+00  0.27296668952E+03  0.27296668952E+03  0.00000000000E+00 0. -1.
          1   -1    0    0  501    0 -0.00000000000E+00 -0.00000000000E+00 -0.13516246165E+03  0.13516246165E+03  0.00000000000E+00 0. -1.
         25    2    1    2    0    0 -0.54997410947E+02  0.48695398059E+02  0.11429813092E+03  0.18462062408E+03  0.12499902040E+03 0.  0.
          2    1    1    2  501    0  0.41359948948E+02  0.31933578649E+02 -0.77549710589E+02  0.93511263679E+02  0.00000000000E+00 0. -1.
          1    1    1    2  502    0  0.13637461999E+02 -0.80628976708E+02  0.10105580754E+03  0.12999726340E+03  0.00000000000E+00 0. -1.
         22    1    3    3    0    0 -0.60807374534E+02  0.35712158003E+02  0.10948777476E+01  0.70527255613E+02  0.00000000000E+00 0.  1.
         22    1    3    3    0    0  0.58099635872E+01  0.12983240056E+02  0.11320325318E+03  0.11409336847E+03  0.00000000000E+00 0.  1.
</event>
<event>
 7    1  0.6273950E-006  0.7874181E+02  0.7818608E-02  0.1388321E+00
          2   -1    0    0  502    0  0.00000000000E+00  0.00000000000E+00  0.17441753105E+04  0.17441753105E+04  0.00000000000E+00 0. -1.
          1   -1    0    0  501    0 -0.00000000000E+00 -0.00000000000E+00 -0.79715040102E+03  0.79715040102E+03  0.00000000000E+00 0. -1.
         25    2    1    2    0    0  0.41899408588E+02 -0.10862965429E+03  0.61909722409E+03  0.64222930644E+03  0.12498458686E+03 0.  0.
          2    1    1    2  501    0  0.39314760966E+01  0.49175983963E+02 -0.78354254151E+03  0.78509403784E+03  0.00000000000E+00 0. -1.
          1    1    1    2  502    0 -0.45830884684E+02  0.59453670324E+02  0.11114702269E+04  0.11140023672E+04  0.00000000000E+00 0. -1.
         22    1    3    3    0    0  0.80623077594E+02 -0.60308963141E+02  0.47218844365E+03  0.48280345690E+03  0.00000000000E+00 0. -1.
         22    1    3    3    0    0 -0.38723669006E+02 -0.48320691146E+02  0.14690878043E+03  0.15942584954E+03  0.00000000000E+00 0. -1.
</event>
<event>
 7    1  0.6273950E-006  0.1703947E+03  0.7818608E-02  0.1214825E+00
          2   -1    0    0  502    0  0.00000000000E+00  0.00000000000E+00  0.92117638812E+03  0.92117638812E+03  0.00000000000E+00 0. -1.
          1   -1    0    0  501    0 -0.00000000000E+00 -0.00000000000E+00 -0.11456008095E+04  0.11456008095E+04  0.00000000000E+00 0. -1.
         25    2    1    2    0    0  0.17675920711E+03  0.10468882073E+03  0.30886185370E+03  0.39143820367E+03  0.12499862456E+03 0.  0.
          2    1    1    2  501    0 -0.17015805993E+03  0.83356287225E+01 -0.10920307123E+04  0.11052394874E+04  0.00000000000E+00 0. -1.
          1    1    1    2  502    0 -0.66011471844E+01 -0.11302444945E+03  0.55874443715E+03  0.57009950654E+03  0.00000000000E+00 0. -1.
         22    1    3    3    0    0  0.89830608700E+02 -0.57442163363E+01  0.68931114740E+02  0.11337562727E+03  0.00000000000E+00 0. -1.
         22    1    3    3    0    0  0.86928598410E+02  0.11043303706E+03  0.23993073896E+03  0.27806257640E+03  0.00000000000E+00 0. -1.
</event>
<event>
 7    1  0.6273950E-006  0.1606412E+03  0.7818608E-02  0.1290934E+00
          2   -1    0    0  502    0  0.00000000000E+00  0.00000000000E+00  0.11537849687E+04  0.11537849687E+04  0.00000000000E+00 0. -1.
          1   -1    0    0  501    0 -0.00000000000E+00 -0.00000000000E+00 -0.14473179130E+03  0.14473179130E+03  0.00000000000E+00 0. -1.
         25    2    1    2    0    0 -0.70153139174E+02 -0.18062234590E+03  0.37407990133E+03  0.43943871074E+03  0.12499885257E+03 0.  0.
          2    1    1    2  501    0  0.90434059865E+02  0.12809318665E+03 -0.55485189348E+02  0.16632735760E+03  0.00000000000E+00 0. -1.
          1    1    1    2  502    0 -0.20280920692E+02  0.52529159247E+02  0.69045846542E+03  0.69275069165E+03  0.00000000000E+00 0. -1.
         22    1    3    3    0    0 -0.44737586314E+01  0.14696233805E+00  0.12338032161E+03  0.12346149147E+03  0.00000000000E+00 0.  1.
         22    1    3    3    0    0 -0.65679380542E+02 -0.18076930824E+03  0.25069957972E+03  0.31597721928E+03  0.00000000000E+00 0.  1.
</event>
<event>
 7    1  0.6273950E-006  0.2112766E+03  0.7818608E-02  0.1148880E+00
          2   -1    0    0  502    0  0.00000000000E+00  0.00000000000E+00  0.67205476954E+03  0.67205476954E+03  0.00000000000E+00 0. -1.
          1   -1    0    0  501    0 -0.00000000000E+00 -0.00000000000E+00 -0.30128010315E+03  0.30128010315E+03  0.00000000000E+00 0. -1.
         25    2    1    2    0    0 -0.37577353263E+02  0.55205416954E+02  0.35205161664E+03  0.37950737845E+03  0.12500325587E+03 0.  0.
          2    1    1    2  501    0  0.19689704691E+03  0.83557132528E+02 -0.19777950548E+03  0.29131936816E+03  0.00000000000E+00 0. -1.
          1    1    1    2  502    0 -0.15931969365E+03 -0.13876254948E+03  0.21650255523E+03  0.30250812608E+03  0.00000000000E+00 0. -1.
         22    1    3    3    0    0 -0.22957086358E+02 -0.47933282293E+01  0.29341112082E+03  0.29434688657E+03  0.00000000000E+00 0. -1.
         22    1    3    3    0    0 -0.14620266905E+02  0.59998745183E+02  0.58640495822E+02  0.85160491885E+02  0.00000000000E+00 0. -1.
</event>
<event>
 7    1  0.6273950E-006  0.1057957E+03  0.7818608E-02  0.1339843E+00
          2   -1    0    0  502    0  0.00000000000E+00  0.00000000000E+00  0.11806188851E+04  0.11806188851E+04  0.00000000000E+00 0. -1.
          1   -1    0    0  501    0 -0.00000000000E+00 -0.00000000000E+00 -0.15748653498E+04  0.15748653498E+04  0.00000000000E+00 0. -1.
         25    2    1    2    0    0 -0.12467207019E+03  0.87302749512E+02  0.10120722382E+02  0.19720581852E+03  0.12499124241E+03 0.  0.
          2    1    1    2  501    0  0.54130126953E+02 -0.10028250658E+02 -0.14782679277E+04  0.14792926358E+04  0.00000000000E+00 0. -1.
          1    1    1    2  502    0  0.70541943234E+02 -0.77274498854E+02  0.10739007406E+04  0.10789857805E+04  0.00000000000E+00 0. -1.
         22    1    3    3    0    0 -0.12904654494E+03  0.81980797964E+02 -0.30590789148E+02  0.15591554886E+03  0.00000000000E+00 0.  1.
         22    1    3    3    0    0  0.43744747517E+01  0.53219515475E+01  0.40711511530E+02  0.41290269661E+02  0.00000000000E+00 0.  1.
</event>
<event>
 7    1  0.6273950E-006  0.5081184E+02  0.7818608E-02  0.1450803E+00
          2   -1    0    0  502    0  0.00000000000E+00  0.00000000000E+00  0.17235309719E+04  0.17235309719E+04  0.00000000000E+00 0. -1.
          1   -1    0    0  501    0 -0.00000000000E+00 -0.00000000000E+00 -0.18749903782E+03  0.18749903782E+03  0.00000000000E+00 0. -1.
         25    2    1    2    0    0 -0.53867502495E+02  0.38521418087E+02  0.24919607627E+02  0.14363835034E+03  0.12500152546E+03 0.  0.
          2    1    1    2  501    0  0.50261179519E+02  0.85963169603E+01 -0.12271172963E+03  0.13288435356E+03  0.00000000000E+00 0. -1.
          1    1    1    2  502    0  0.36063229754E+01 -0.47117735047E+02  0.16338240561E+04  0.16345073058E+04  0.00000000000E+00 0. -1.
         22    1    3    3    0    0  0.55898403650E+01 -0.29891872682E+02  0.41546038388E+02  0.51486344534E+02  0.00000000000E+00 0.  1.
         22    1    3    3    0    0 -0.59457342860E+02  0.68413290769E+02 -0.16626430761E+02  0.92152005803E+02  0.00000000000E+00 0.  1.
</event>
<event>
 7    1  0.6273950E-006  0.4801262E+02  0.7818608E-02  0.1479539E+00
          2   -1    0    0  502    0  0.00000000000E+00  0.00000000000E+00  0.23929601559E+04  0.23929601559E+04  0.00000000000E+00 0. -1.
          1   -1    0    0  501    0 -0.00000000000E+00 -0.00000000000E+00 -0.52255191505E+02  0.52255191505E+02  0.00000000000E+00 0. -1.
         25    2    1    2    0    0 -0.62877570550E+02 -0.56503999401E+02  0.36251789092E+03  0.39267055843E+03  0.12499862159E+03 0.  0.
          2    1    1    2  501    0  0.20642817451E+02  0.35018244413E+02 -0.25703246005E+02  0.48094284580E+02  0.00000000000E+00 0. -1.
          1    1    1    2  502    0  0.42234753099E+02  0.21485754988E+02  0.20038903195E+04  0.20044505044E+04  0.00000000000E+00 0. -1.
         22    1    3    3    0    0  0.17228397646E+02  0.28434469689E+02  0.99381111727E+02  0.10479476189E+03  0.00000000000E+00 0.  1.
         22    1    3    3    0    0 -0.80105968196E+02 -0.84938469090E+02  0.26313677919E+03  0.28787579654E+03  0.00000000000E+00 0.  1.
</event>
<event>
 7    1  0.6273950E-006  0.1029450E+03  0.7818608E-02  0.1356785E+00
          2   -1    0    0  502    0  0.00000000000E+00  0.00000000000E+00  0.13384535866E+04  0.13384535866E+04  0.00000000000E+00 0. -1.
          1   -1    0    0  501    0 -0.00000000000E+00 -0.00000000000E+00 -0.10846638520E+03  0.10846638520E+03  0.00000000000E+00 0. -1.
         25    2    1    2    0    0 -0.58255272566E+02 -0.11060357825E+03  0.59635943020E+03  0.62201173948E+03  0.12500882269E+03 0.  0.
          2    1    1    2  501    0  0.47358455857E+02  0.12352767154E+02 -0.85769306977E+02  0.98751142864E+02  0.00000000000E+00 0. -1.
          1    1    1    2  502    0  0.10896816709E+02  0.98250811097E+02  0.71939707816E+03  0.72615708946E+03  0.00000000000E+00 0. -1.
         22    1    3    3    0    0 -0.30031200749E+02  0.83185773634E+01  0.29745802063E+03  0.29908585019E+03  0.00000000000E+00 0.  1.
         22    1    3    3    0    0 -0.28224071817E+02 -0.11892215561E+03  0.29890140958E+03  0.32292588929E+03  0.00000000000E+00 0.  1.
</event>
<event>
 7    1  0.6273950E-006  0.5565337E+02  0.7818608E-02  0.1443101E+00
          2   -1    0    0  502    0  0.00000000000E+00  0.00000000000E+00  0.20629751865E+03  0.20629751865E+03  0.00000000000E+00 0. -1.
          1   -1    0    0  501    0 -0.00000000000E+00 -0.00000000000E+00 -0.54509396468E+03  0.54509396468E+03  0.00000000000E+00 0. -1.
         25    2    1    2    0    0 -0.94038305166E+02 -0.21299418963E+02  0.54013109795E+02  0.16685279358E+03  0.12500228242E+03 0.  0.
          2    1    1    2  501    0  0.44546728903E+02  0.10087894970E+02 -0.48079963133E+03  0.48296424523E+03  0.00000000000E+00 0. -1.
          1    1    1    2  502    0  0.49491576263E+02  0.11211523993E+02  0.87990075509E+02  0.10157444452E+03  0.00000000000E+00 0. -1.
         22    1    3    3    0    0 -0.83061783578E+02 -0.66813334438E+02  0.55150354931E+02  0.12002017830E+03  0.00000000000E+00 0. -1.
         22    1    3    3    0    0 -0.10976521589E+02  0.45513915475E+02 -0.11372451359E+01  0.46832615286E+02  0.00000000000E+00 0. -1.
</event>
<event>
 7    1  0.6273950E-006  0.3680556E+02  0.7818608E-02  0.1573141E+00
          2   -1    0    0  502    0  0.00000000000E+00  0.00000000000E+00  0.95141052443E+03  0.95141052443E+03  0.00000000000E+00 0. -1.
          1   -1    0    0  501    0 -0.00000000000E+00 -0.00000000000E+00 -0.16544049030E+03  0.16544049030E+03  0.00000000000E+00 0. -1.
         25    2    1    2    0    0  0.89744372890E+01 -0.20070333601E+01  0.46810874337E+03  0.48459795304E+03  0.12499924704E+03 0.  0.
          2    1    1    2  501    0 -0.30986026499E+02  0.20099920358E+02 -0.15459124382E+03  0.15894210677E+03  0.00000000000E+00 0. -1.
          1    1    1    2  502    0  0.22011589210E+02 -0.18092886998E+02  0.47245253458E+03  0.47331095493E+03  0.00000000000E+00 0. -1.
         22    1    3    3    0    0 -0.41561251802E+01 -0.56540876994E+02  0.34074904498E+03  0.34543314231E+03  0.00000000000E+00 0. -1.
         22    1    3    3    0    0  0.13130562469E+02  0.54533843634E+02  0.12735969839E+03  0.13916481073E+03  0.00000000000E+00 0. -1.
</event>
<event>
 7    1  0.6273950E-006  0.1916754E+03  0.7818608E-02  0.1236656E+00
          2   -1    0    0  502    0  0.00000000000E+00  0.00000000000E+00  0.22830006528E+04  0.22830006528E+04  0.00000000000E+00 0. -1.
          1   -1    0    0  501    0 -0.00000000000E+00 -0.00000000000E+00 -0.47790752938E+03  0.47790752938E+03  0.00000000000E+00 0. -1.
         25    2    1    2    0    0  0.16970711547E+03  0.15330536742E+03  0.36503237020E+03  0.44852392728E+03  0.12498816476E+03 0.  0.
          2    1    1    2  501    0  0.42589035239E+01 -0.80093066753E+02 -0.42767754685E+03  0.43513345273E+03  0.00000000000E+00 0. -1.
          1    1    1    2  502    0 -0.17396601899E+03 -0.73212300665E+02  0.18677383001E+04  0.18772508022E+04  0.00000000000E+00 0. -1.
         22    1    3    3    0    0  0.78486357944E+02  0.10259324854E+03  0.98986630698E+02  0.16273855132E+03  0.00000000000E+00 0. -1.
         22    1    3    3    0    0  0.91220757521E+02  0.50712118875E+02  0.26604573951E+03  0.28578537596E+03  0.00000000000E+00 0. -1.
</event>
<event>
 7    1  0.6273950E-006  0.7463374E+02  0.7818608E-02  0.1358626E+00
          2   -1    0    0  502    0  0.00000000000E+00  0.00000000000E+00  0.69046389446E+03  0.69046389446E+03  0.00000000000E+00 0. -1.
          1   -1    0    0  501    0 -0.00000000000E+00 -0.00000000000E+00 -0.44784545971E+03  0.44784545971E+03  0.00000000000E+00 0. -1.
         25    2    1    2    0    0 -0.39350050714E+02  0.11109648920E+02 -0.17926763585E+03  0.22233956012E+03  0.12500457568E+03 0.  0.
          2    1    1    2  501    0  0.52034591230E+02  0.62438280014E+02 -0.23819626413E+03  0.25168154032E+03  0.00000000000E+00 0. -1.
          1    1    1    2  502    0 -0.12684540516E+02 -0.73547928934E+02  0.66008233473E+03  0.66428825372E+03  0.00000000000E+00 0. -1.
         22    1    3    3    0    0  0.35770554209E+02 -0.27830658375E+02 -0.79607225230E+02  0.91604521738E+02  0.00000000000E+00 0.  1.
         22    1    3    3    0    0 -0.75120604922E+02  0.38940307295E+02 -0.99660410621E+02  0.13073503838E+03  0.00000000000E+00 0.  1.
</event>
<event>
 7    1  0.6273950E-006  0.1119379E+03  0.7818608E-02  0.1330132E+00
          2   -1    0    0  502    0  0.00000000000E+00  0.00000000000E+00  0.40411335477E+03  0.40411335477E+03  0.00000000000E+00 0. -1.
          1   -1    0    0  501    0 -0.00000000000E+00 -0.00000000000E+00 -0.92167559494E+03  0.92167559494E+03  0.00000000000E+00 0. -1.
         25    2    1    2    0    0 -0.56482647662E+01 -0.59074561779E+02 -0.51281320100E+03  0.53115352859E+03  0.12499994029E+03 0.  0.
          2    1    1    2  501    0  0.20781131450E+02 -0.52682876744E+02 -0.38955169476E+03  0.39364687706E+03  0.00000000000E+00 0. -1.
          1    1    1    2  502    0 -0.15132866684E+02  0.11175743852E+03  0.38480265559E+03  0.40098854406E+03  0.00000000000E+00 0. -1.
         22    1    3    3    0    0 -0.37048539014E+02 -0.81807419453E+02 -0.43553367930E+03  0.44469611414E+03  0.00000000000E+00 0. -1.
         22    1    3    3    0    0  0.31400274248E+02  0.22732857674E+02 -0.77279521696E+02  0.86457414456E+02  0.00000000000E+00 0. -1.
</event>
<event>
 7    1  0.6273950E-006  0.9997351E+02  0.7818608E-02  0.1299255E+00
          2   -1    0    0  502    0  0.00000000000E+00  0.00000000000E+00  0.35652655803E+02  0.35652655803E+02  0.00000000000E+00 0. -1.
          1   -1    0    0  501    0 -0.00000000000E+00 -0.00000000000E+00 -0.17811162443E+04  0.17811162443E+04  0.00000000000E+00 0. -1.
         25    2    1    2    0    0  0.53264051353E+02  0.31848131095E+02 -0.34150241543E+03  0.36891715520E+03  0.12499842015E+03 0.  0.
          2    1    1    2  501    0  0.30549160054E+02 -0.95191655041E+02 -0.12860397382E+04  0.12899197303E+04  0.00000000000E+00 0. -1.
          1    1    1    2  502    0 -0.83813211408E+02  0.63343523946E+02 -0.11792143482E+03  0.15793201456E+03  0.00000000000E+00 0. -1.
         22    1    3    3    0    0  0.68374557813E+02  0.28594554452E+02 -0.88460472526E+02  0.11540356970E+03  0.00000000000E+00 0. -1.
         22    1    3    3    0    0 -0.15110506460E+02  0.32535766430E+01 -0.25304194290E+03  0.25351358550E+03  0.00000000000E+00 0. -1.
</event>
<event>
 7    1  0.6273950E-006  0.1197146E+03  0.7818608E-02  0.1351584E+00
          2   -1    0    0  502    0  0.00000000000E+00  0.00000000000E+00  0.25605020968E+04  0.25605020968E+04  0.00000000000E+00 0. -1.
          1   -1    0    0  501    0 -0.00000000000E+00 -0.00000000000E+00 -0.36464966851E+03  0.36464966851E+03  0.00000000000E+00 0. -1.
         25    2    1    2    0    0  0.18955011004E+02 -0.91862678288E+02  0.12468678674E+03  0.19992367337E+03  0.12499854512E+03 0.  0.
          2    1    1    2  501    0  0.13959818718E+02  0.12103872467E+03 -0.31547305898E+03  0.33818412197E+03  0.00000000000E+00 0. -1.
          1    1    1    2  502    0 -0.32914829722E+02 -0.29176046382E+02  0.23866387006E+04  0.23870439700E+04  0.00000000000E+00 0. -1.
         22    1    3    3    0    0  0.43186730886E+02  0.18519816336E+01  0.84896378883E+02  0.95267616261E+02  0.00000000000E+00 0. -1.
         22    1    3    3    0    0 -0.24231719882E+02 -0.93714659921E+02  0.39790407858E+02  0.10465605711E+03  0.00000000000E+00 0. -1.
</event>
<event>
 7    1  0.6273950E-006  0.7999544E+02  0.7818608E-02  0.1447913E+00
          2   -1    0    0  502    0  0.00000000000E+00  0.00000000000E+00  0.25407144459E+03  0.25407144459E+03  0.00000000000E+00 0. -1.
          1   -1    0    0  501    0 -0.00000000000E+00 -0.00000000000E+00 -0.12507562039E+04  0.12507562039E+04  0.00000000000E+00 0. -1.
         25    2    1    2    0    0 -0.17899209598E+01  0.10799809619E+03 -0.92118831579E+03  0.93588529132E+03  0.12500629093E+03 0.  0.
          2    1    1    2  501    0  0.10790807375E+02 -0.28700922551E+02 -0.31500180141E+03  0.31649063078E+03  0.00000000000E+00 0. -1.
          1    1    1    2  502    0 -0.90008864152E+01 -0.79297173640E+02  0.23950535788E+03  0.25245172639E+03  0.00000000000E+00 0. -1.
         22    1    3    3    0    0 -0.55348497131E+02  0.60902668758E+02 -0.31723777742E+03  0.32773830814E+03  0.00000000000E+00 0. -1.
         22    1    3    3    0    0  0.53558576171E+02  0.47095427434E+02 -0.60395053836E+03  0.60814698318E+03  0.00000000000E+00 0. -1.
</event>
<event>
 7    1  0.6273950E-006  0.1285386E+03  0.7818608E-02  0.1230037E+00
          2   -1    0    0  502    0  0.00000000000E+00  0.00000000000E+00  0.56549519625E+03  0.56549519625E+03  0.00000000000E+00 0. -1.
          1   -1    0    0  501    0 -0.00000000000E+00 -0.00000000000E+00 -0.32416880785E+03  0.32416880785E+03  0.00000000000E+00 0. -1.
         25    2    1    2    0    0 -0.11472483643E+03 -0.44382073920E+02  0.14345602683E+03  0.22657765273E+03  0.12500497792E+03 0.  0.
          2    1    1    2  501    0  0.10516615806E+03 -0.83273737242E+02 -0.25477119631E+03  0.28792846088E+03  0.00000000000E+00 0. -1.
          1    1    1    2  502    0  0.95586783669E+01  0.12765581116E+03  0.35264155788E+03  0.37515789050E+03  0.00000000000E+00 0. -1.
         22    1    3    3    0    0 -0.12404514780E+03 -0.73876127703E+02  0.12054487323E+03  0.18808494730E+03  0.00000000000E+00 0.  1.
         22    1    3    3    0    0  0.93203113668E+01  0.29494053783E+02  0.22911153592E+02  0.38492705432E+02  0.00000000000E+00 0.  1.
</event>
<event>
 7    1  0.6273950E-006  0.1118385E+03  0.7818608E-02  0.1301312E+00
          2   -1    0    0  502    0  0.00000000000E+00  0.00000000000E+00  0.81614960936E+03  0.81614960936E+03  0.00000000000E+00 0. -1.
          1   -1    0    0  501    0 -0.00000000000E+00 -0.00000000000E+00 -0.97020137722E+02  0.97020137722E+02  0.00000000000E+00 0. -1.
         25    2    1    2    0    0  0.10657914824E+03  0.10741315916E+03  0.34421889111E+03  0.39624128791E+03  0.12499524649E+03 0.  0.
          2    1    1    2  501    0 -0.74851211342E+01 -0.73075431971E+02 -0.43637231375E+02  0.85441522448E+02  0.00000000000E+00 0. -1.
          1    1    1    2  502    0 -0.99094027108E+02 -0.34337727191E+02  0.41854781190E+03  0.43148693673E+03  0.00000000000E+00 0. -1.
         22    1    3    3    0    0 -0.19607882444E+02 -0.43236472568E+00  0.78141445594E+01  0.21112007209E+02  0.00000000000E+00 0.  1.
         22    1    3    3    0    0  0.12618703069E+03  0.10784552389E+03  0.33640474655E+03  0.37512928070E+03  0.00000000000E+00 0.  1.
</event>
<event>
 7    1  0.6273950E-006  0.2814086E+03  0.7818608E-02  0.1160284E+00
          2   -1    0    0  502    0  0.00000000000E+00  0.00000000000E+00  0.84690334133E+03  0.84690334133E+03  0.00000000000E+00 0. -1.
          1   -1    0    0  501    0 -0.00000000000E+00 -0.00000000000E+00 -0.44741736148E+03  0.44741736148E+03  0.00000000000E+00 0. -1.
         25    2    1    2    0    0  0.83107678781E+02 -0.27441401946E+03  0.26574026587E+02  0.31391343991E+03  0.12500211405E+03 0.  0.
          2    1    1    2  501    0 -0.12535701607E+03 -0.76100954121E+01 -0.25860582156E+03  0.28748785361E+03  0.00000000000E+00 0. -1.
          1    1    1    2  502    0  0.42249337285E+02  0.28202411488E+03  0.63151777481E+03  0.69291940930E+03  0.00000000000E+00 0. -1.
         22    1    3    3    0    0  0.67336673276E+02 -0.24054856472E+03 -0.24102247430E+02  0.25095568909E+03  0.00000000000E+00 0.  1.
         22    1    3    3    0    0  0.15771005504E+02 -0.33865454743E+02  0.50676274016E+02  0.62957750816E+02  0.00000000000E+00 0.  1.
</event>
<event>
 7    1  0.6273950E-006  0.4749301E+02  0.7818608E-02  0.1533196E+00
          2   -1    0    0  502    0  0.00000000000E+00  0.00000000000E+00  0.20428370245E+03  0.20428370245E+03  0.00000000000E+00 0. -1.
          1   -1    0    0  501    0 -0.00000000000E+00 -0.00000000000E+00 -0.21973698105E+03  0.21973698105E+03  0.00000000000E+00 0. -1.
         25    2    1    2    0    0  0.37013549946E+02 -0.62142596213E+02 -0.24945097457E+02  0.14656537053E+03  0.12500977884E+03 0.  0.
          2    1    1    2  501    0 -0.21947348552E+02  0.18197645305E+02 -0.12861885283E+03  0.13174084297E+03  0.00000000000E+00 0. -1.
          1    1    1    2  502    0 -0.15066201395E+02  0.43944950908E+02  0.13811067169E+03  0.14571447000E+03  0.00000000000E+00 0. -1.
         22    1    3    3    0    0  0.24936456031E+00 -0.13564587147E+02 -0.69676755675E+02  0.70985283606E+02  0.00000000000E+00 0.  1.
         22    1    3    3    0    0  0.36764185386E+02 -0.48578009067E+02  0.44731658219E+02  0.75580086921E+02  0.00000000000E+00 0.  1.
</event>
<event>
 7    1  0.6273950E-006  0.5120783E+02  0.7818608E-02  0.1533887E+00
          2   -1    0    0  502    0  0.00000000000E+00  0.00000000000E+00  0.12823573712E+04  0.12823573712E+04  0.00000000000E+00 0. -1.
          1   -1    0    0  501    0 -0.00000000000E+00 -0.00000000000E+00 -0.16834429023E+04  0.16834429023E+04  0.00000000000E+00 0. -1.
         25    2    1    2    0    0 -0.17308713507E+01 -0.64436317720E+02  0.40585790923E+03  0.42953401658E+03  0.12499517575E+03 0.  0.
          2    1    1    2  501    0 -0.19007483472E+02  0.18209356933E+02 -0.16707588895E+04  0.16709662271E+04  0.00000000000E+00 0. -1.
          1    1    1    2  502    0  0.20738354823E+02  0.46226960787E+02  0.86381544919E+03  0.86530002977E+03  0.00000000000E+00 0. -1.
         22    1    3    3    0    0  0.39632719140E+02 -0.33612894433E+02  0.58013834857E+02  0.77885711998E+02  0.00000000000E+00 0.  1.
         22    1    3    3    0    0 -0.41363590490E+02 -0.30823423287E+02  0.34784407437E+03  0.35164830459E+03  0.00000000000E+00 0.  1.
</event>
<event>
 7    1  0.6273950E-006  0.6966937E+02  0.7818608E-02  0.1468093E+00
          2   -1    0    0  502    0  0.00000000000E+00  0.00000000000E+00  0.30072891604E+03  0.30072891604E+03  0.00000000000E+00 0. -1.
          1   -1    0    0  501    0 -0.00000000000E+00 -0.00000000000E+00 -0.14273661499E+03  0.14273661499E+03  0.00000000000E+00 0. -1.
         25    2    1    2    0    0  0.56064342510E+02 -0.55502780894E+02  0.69629712806E+02  0.16339672526E+03  0.12500569479E+03 0.  0.
          2    1    1    2  501    0 -0.29268557574E+02 -0.81944183022E+01 -0.86693371384E+02  0.91866955951E+02  0.00000000000E+00 0. -1.
          1    1    1    2  502    0 -0.26795784937E+02  0.63697199196E+02  0.17505595963E+03  0.18820184982E+03  0.00000000000E+00 0. -1.
         22    1    3    3    0    0 -0.19227375064E+02 -0.38387808835E+02  0.74548361483E+02  0.86027751446E+02  0.00000000000E+00 0. -1.
         22    1    3    3    0    0  0.75291717574E+02 -0.17114972059E+02 -0.49186486768E+01  0.77368973811E+02  0.00000000000E+00 0. -1.
</event>
<event>
 7    1  0.6273950E-006  0.6741549E+02  0.7818608E-02  0.1476015E+00
          2   -1    0    0  502    0  0.00000000000E+00  0.00000000000E+00  0.22594685101E+03  0.22594685101E+03  0.00000000000E+00 0. -1.
          1   -1    0    0  501    0 -0.00000000000E+00 -0.00000000000E+00 -0.80598238372E+02  0.80598238372E+02  0.00000000000E+00 0. -1.
         25    2    1    2    0    0 -0.58941998451E+02 -0.38871678824E+02  0.11154360374E+03  0.18180220282E+03  0.12499959527E+03 0.  0.
          2    1    1    2  501    0 -0.82347952798E+01  0.28517077983E+02 -0.21879979121E+02  0.36875046798E+02  0.00000000000E+00 0. -1.
          1    1    1    2  502    0  0.67176793731E+02  0.10354600841E+02  0.55684988021E+02  0.87867839767E+02  0.00000000000E+00 0. -1.
         22    1    3    3    0    0  0.18335907926E+02 -0.87839079729E+01  0.95112826313E+02  0.97261566345E+02  0.00000000000E+00 0.  1.
         22    1    3    3    0    0 -0.77277906376E+02 -0.30087770851E+02  0.16430777430E+02  0.84540636475E+02  0.00000000000E+00 0.  1.
</event>
<event>
 7    1  0.6273950E-006  0.6786889E+02  0.7818608E-02  0.1497895E+00
          2   -1    0    0  502    0  0.00000000000E+00  0.00000000000E+00  0.14736119630E+03  0.14736119630E+03  0.00000000000E+00 0. -1.
          1   -1    0    0  501    0 -0.00000000000E+00 -0.00000000000E+00 -0.15933698979E+03  0.15933698979E+03  0.00000000000E+00 0. -1.
         25    2    1    2    0    0 -0.48579958973E+02 -0.47305280170E+02 -0.36729693250E+02  0.14687318717E+03  0.12499944318E+03 0.  0.
          2    1    1    2  501    0  0.20329199952E+02 -0.15058883174E+02 -0.51479864308E+02  0.57360463408E+02  0.00000000000E+00 0. -1.
          1    1    1    2  502    0  0.28250759021E+02  0.62364163344E+02  0.76233764068E+02  0.10246453552E+03  0.00000000000E+00 0. -1.
         22    1    3    3    0    0  0.14324388150E+02  0.33764015181E+02 -0.23137113187E+02  0.43364995373E+02  0.00000000000E+00 0.  1.
         22    1    3    3    0    0 -0.62904347123E+02 -0.81069295351E+02 -0.13592580063E+02  0.10350819179E+03  0.00000000000E+00 0.  1.
</event>
<event>
 7    1  0.6273950E-006  0.1379862E+03  0.7818608E-02  0.1277129E+00
          2   -1    0    0  502    0  0.00000000000E+00  0.00000000000E+00  0.93650311737E+03  0.93650311737E+03  0.00000000000E+00 0. -1.
          1   -1    0    0  501    0 -0.00000000000E+00 -0.00000000000E+00 -0.16082091869E+04  0.16082091869E+04  0.00000000000E+00 0. -1.
         25    2    1    2    0    0 -0.48922678251E+02 -0.15884947645E+03  0.58512711583E+03  0.62098687037E+03  0.12499746749E+03 0.  0.
          2    1    1    2  501    0  0.65972652303E+02  0.35022785145E+02 -0.15776507673E+04  0.15794179086E+04  0.00000000000E+00 0. -1.
          1    1    1    2  502    0 -0.17049974051E+02  0.12382669130E+03  0.32081758196E+03  0.34430752531E+03  0.00000000000E+00 0. -1.
         22    1    3    3    0    0 -0.46610115141E+02 -0.17443985139E+03  0.57390647314E+03  0.60163976306E+03  0.00000000000E+00 0. -1.
         22    1    3    3    0    0 -0.23125631101E+01  0.15590374939E+02  0.11220642690E+02  0.19347107310E+02  0.00000000000E+00 0. -1.
</event>
<event>
 7    1  0.6273950E-006  0.9931594E+02  0.7818608E-02  0.1350322E+00
          2   -1    0    0  502    0  0.00000000000E+00  0.00000000000E+00  0.10864960013E+04  0.10864960013E+04  0.00000000000E+00 0. -1.
          1   -1    0    0  501    0 -0.00000000000E+00 -0.00000000000E+00 -0.24425031384E+03  0.24425031384E+03  0.00000000000E+00 0. -1.
         25    2    1    2    0    0 -0.60452997367E+02 -0.28205251107E+01 -0.31701518620E+02  0.14245439051E+03  0.12500298732E+03 0.  0.
          2    1    1    2  501    0  0.11320012995E+03  0.12296257969E+02 -0.13574506542E+03  0.17717841338E+03  0.00000000000E+00 0. -1.
          1    1    1    2  502    0 -0.52747132586E+02 -0.94757328586E+01  0.10096922715E+04  0.10111135113E+04  0.00000000000E+00 0. -1.
         22    1    3    3    0    0 -0.72027705043E+02  0.23880111556E+02  0.24017581928E+02  0.79593305393E+02  0.00000000000E+00 0. -1.
         22    1    3    3    0    0  0.11574707677E+02 -0.26700636666E+02 -0.55719100548E+02  0.62861085116E+02  0.00000000000E+00 0. -1.
</event>
<event>
 7    1  0.6273950E-006  0.3523936E+02  0.7818608E-02  0.1614217E+00
          2   -1    0    0  502    0  0.00000000000E+00  0.00000000000E+00  0.18462149975E+03  0.18462149975E+03  0.00000000000E+00 0. -1.
          1   -1    0    0  501    0 -0.00000000000E+00 -0.00000000000E+00 -0.77299880926E+03  0.77299880926E+03  0.00000000000E+00 0. -1.
         25    2    1    2    0    0 -0.44236142134E+02 -0.17360429759E+01  0.29242436335E+02  0.13578601639E+03  0.12499148790E+03 0.  0.
          2    1    1    2  501    0  0.15024541869E+02 -0.17671863937E+02 -0.71652229921E+03  0.71689764743E+03  0.00000000000E+00 0. -1.
          1    1    1    2  502    0  0.29211600265E+02  0.19407906913E+02  0.98902553368E+02  0.10493664519E+03  0.00000000000E+00 0. -1.
         22    1    3    3    0    0 -0.54256133835E+02 -0.26570512465E+02 -0.32418036503E+02  0.68561281216E+02  0.00000000000E+00 0.  1.
         22    1    3    3    0    0  0.10019991700E+02  0.24834469489E+02  0.61660472837E+02  0.67224735172E+02  0.00000000000E+00 0.  1.
</event>
<event>
 7    1  0.6273950E-006  0.8225311E+02  0.7818608E-02  0.1341988E+00
          2   -1    0    0  502    0  0.00000000000E+00  0.00000000000E+00  0.10711884484E+04  0.10711884484E+04  0.00000000000E+00 0. -1.
          1   -1    0    0  501    0 -0.00000000000E+00 -0.00000000000E+00 -0.25329971272E+03  0.25329971272E+03  0.00000000000E+00 0. -1.
         25    2    1    2    0    0  0.14427391105E+03 -0.23797817153E+02  0.28081115013E+03  0.34038182031E+03  0.12499433609E+03 0.  0.
          2    1    1    2  501    0 -0.66338324521E+02  0.20743158304E+02 -0.21604777165E+03  0.22695306024E+03  0.00000000000E+00 0. -1.
          1    1    1    2  502    0 -0.77935586533E+02  0.30546588488E+01  0.75312535722E+03  0.75715328057E+03  0.00000000000E+00 0. -1.
         22    1    3    3    0    0  0.42377305177E+02 -0.64866774222E+02  0.15547407705E+03  0.17371160879E+03  0.00000000000E+00 0. -1.
         22    1    3    3    0    0  0.10189660588E+03  0.41068957069E+02  0.12533707307E+03  0.16667021153E+03  0.00000000000E+00 0. -1.
</event>
<event>
 7    1  0.6273950E-006  0.6246410E+02  0.7818608E-02  0.1470277E+00
          2   -1    0    0  502    0  0.00000000000E+00  0.00000000000E+00  0.27271985543E+04  0.27271985543E+04  0.00000000000E+00 0. -1.
          1   -1    0    0  501    0 -0.00000000000E+00 -0.00000000000E+00 -0.78755563336E+02  0.78755563336E+02  0.00000000000E+00 0. -1.
         25    2    1    2    0    0 -0.67792161098E+02  0.35351998722E+02  0.10042796290E+04  0.10149129044E+04  0.12500035725E+03 0.  0.
          2    1    1    2  501    0  0.30424014943E+02  0.13716985417E+02 -0.69063617810E+02  0.76704365451E+02  0.00000000000E+00 0. -1.
          1    1    1    2  502    0  0.37368146155E+02 -0.49068984140E+02  0.17132269797E+04  0.17143368478E+04  0.00000000000E+00 0. -1.
         22    1    3    3    0    0  0.13863638950E+02  0.50740700691E+02  0.21805737198E+03  0.22431191824E+03  0.00000000000E+00 0. -1.
         22    1    3    3    0    0 -0.81655800048E+02 -0.15388701969E+02  0.78622225707E+03  0.79060098618E+03  0.00000000000E+00 0. -1.
</event>
<event>
 7    1  0.6273950E-006  0.6957700E+02  0.7818608E-02  0.1443644E+00
          2   -1    0    0  502    0  0.00000000000E+00  0.00000000000E+00  0.54166936981E+03  0.54166936981E+03  0.00000000000E+00 0. -1.
          1   -1    0    0  501    0 -0.00000000000E+00 -0.00000000000E+00 -0.37804167176E+03  0.37804167176E+03  0.00000000000E+00 0. -1.
         25    2    1    2    0    0  0.77675028195E+01 -0.39714668765E+02 -0.11961238668E+03  0.17768061959E+03  0.12500276203E+03 0.  0.
          2    1    1    2  501    0 -0.22107279625E+02 -0.28901541527E+02 -0.22553374744E+03  0.22845021810E+03  0.00000000000E+00 0. -1.
          1    1    1    2  502    0  0.14339776805E+02  0.68616210292E+02  0.50877383218E+03  0.51358020388E+03  0.00000000000E+00 0. -1.
         22    1    3    3    0    0  0.84641554312E+01  0.44006576888E+02 -0.24893719330E+02  0.51263222672E+02  0.00000000000E+00 0. -1.
         22    1    3    3    0    0 -0.69665261172E+00 -0.83721245653E+02 -0.94718667353E+02  0.12641739692E+03  0.00000000000E+00 0. -1.
</event>
<event>
 7    1  0.6273950E-006  0.1650347E+03  0.7818608E-02  0.1198707E+00
          2   -1    0    0  502    0  0.00000000000E+00  0.00000000000E+00  0.79076360517E+03  0.79076360517E+03  0.00000000000E+00 0. -1.
          1   -1    0    0  501    0 -0.00000000000E+00 -0.00000000000E+00 -0.12943056360E+04  0.12943056360E+04  0.00000000000E+00 0. -1.
         25    2    1    2    0    0  0.19298317970E+02 -0.29646388653E+03 -0.45950116326E+03  0.56127449071E+03  0.12499789515E+03 0.  0.
          2    1    1    2  501    0 -0.35114113565E+02  0.13446827439E+03 -0.76865860547E+03  0.78112148195E+03  0.00000000000E+00 0. -1.
          1    1    1    2  502    0  0.15815795595E+02  0.16199561214E+03  0.72461773789E+03  0.74267326854E+03  0.00000000000E+00 0. -1.
         22    1    3    3    0    0  0.28853686509E+02 -0.13010294991E+03 -0.10533976226E+03  0.16986988642E+03  0.00000000000E+00 0.  1.
         22    1    3    3    0    0 -0.95553685389E+01 -0.16636093663E+03 -0.35416140100E+03  0.39140460429E+03  0.00000000000E+00 0.  1.
</event>
<event>
 7    1  0.6273950E-006  0.1187546E+03  0.7818608E-02  0.1394641E+00
          2   -1    0    0  502    0  0.00000000000E+00  0.00000000000E+00  0.39165073993E+04  0.39165073993E+04  0.00000000000E+00 0. -1.
          1   -1    0    0  501    0 -0.00000000000E+00 -0.00000000000E+00 -0.58869752192E+03  0.58869752192E+03  0.00000000000E+00 0. -1.
         25    2    1    2    0    0  0.12809805834E+02  0.12967024895E+03 -0.20176435785E+03  0.27076275075E+03  0.12500058602E+03 0.  0.
          2    1    1    2  501    0  0.25775836249E+02 -0.17391741703E+02 -0.35083845264E+03  0.35221369403E+03  0.00000000000E+00 0. -1.
          1    1    1    2  502    0 -0.38585642083E+02 -0.11227850725E+03  0.38804126878E+04  0.38822284764E+04  0.00000000000E+00 0. -1.
         22    1    3    3    0    0  0.18821482242E+02  0.37628776490E+02  0.68867041887E+01  0.42633316884E+02  0.00000000000E+00 0. -1.
         22    1    3    3    0    0 -0.60116764079E+01  0.92041472463E+02 -0.20865106204E+03  0.22812943387E+03  0.00000000000E+00 0. -1.
</event>
<event>
 7    1  0.6273950E-006  0.9501387E+02  0.7818608E-02  0.1316838E+00
          2   -1    0    0  502    0  0.00000000000E+00  0.00000000000E+00  0.34127990401E+04  0.34127990401E+04  0.00000000000E+00 0. -1.
          1   -1    0    0  501    0 -0.00000000000E+00 -0.00000000000E+00 -0.20919696799E+02  0.20919696799E+02  0.00000000000E+00 0. -1.
         25    2    1    2    0    0  0.28094613902E+02 -0.12341936414E+02  0.12607772723E+04  0.12673301814E+04  0.12499930995E+03 0.  0.
          2    1    1    2  501    0 -0.10299617297E+03  0.70683540899E+01  0.14039984967E+03  0.17427074070E+03  0.00000000000E+00 0. -1.
          1    1    1    2  502    0  0.74901559073E+02  0.52735823245E+01  0.19907022213E+04  0.19921178148E+04  0.00000000000E+00 0. -1.
         22    1    3    3    0    0  0.19507878365E+02 -0.26494575624E+02  0.80870070253E+02  0.87306861807E+02  0.00000000000E+00 0.  1.
         22    1    3    3    0    0  0.85867355364E+01  0.14152639210E+02  0.11799072021E+04  0.11800233196E+04  0.00000000000E+00 0.  1.
</event>
<event>
 7    1  0.6273950E-006  0.1192732E+03  0.7818608E-02  0.1411503E+00
          2   -1    0    0  502    0  0.00000000000E+00  0.00000000000E+00  0.77378853764E+03  0.77378853764E+03  0.00000000000E+00 0. -1.
          1   -1    0    0  501    0 -0.00000000000E+00 -0.00000000000E+00 -0.31574514343E+03  0.31574514343E+03  0.00000000000E+00 0. -1.
         25    2    1    2    0    0 -0.74755397846E+02 -0.12372258489E+03  0.17368120368E+03  0.25823544967E+03  0.12499895775E+03 0.  0.
          2    1    1    2  501    0  0.57557894008E+02  0.10277056755E+03 -0.26043139098E+03  0.28583073684E+03  0.00000000000E+00 0. -1.
          1    1    1    2  502    0  0.17197503838E+02  0.20952017335E+02  0.54479358151E+03  0.54546749456E+03  0.00000000000E+00 0. -1.
         22    1    3    3    0    0 -0.96799553807E+02 -0.10400531257E+03  0.17863352581E+03  0.22824810011E+03  0.00000000000E+00 0. -1.
         22    1    3    3    0    0  0.22044155960E+02 -0.19717272313E+02 -0.49523221287E+01  0.29987349565E+02  0.00000000000E+00 0. -1.
</event>
<event>
 7    1  0.6273950E-006  0.2165856E+03  0.7818608E-02  0.1278054E+00
          2   -1    0    0  502    0  0.00000000000E+00  0.00000000000E+00  0.74980867333E+03  0.74980867333E+03  0.00000000000E+00 0. -1.
          1   -1    0    0  501    0 -0.00000000000E+00 -0.00000000000E+00 -0.58306184901E+03  0.58306184901E+03  0.00000000000E+00 0. -1.
         25    2    1    2    0    0  0.72656087450E+01 -0.17141831303E+03 -0.33196181355E+03  0.39403133216E+03  0.12500007184E+03 0.  0.
          2    1    1    2  501    0 -0.11746222425E+01 -0.47153204855E+02 -0.20063764975E+03  0.20610742579E+03  0.00000000000E+00 0. -1.
          1    1    1    2  502    0 -0.60909865025E+01  0.21857151789E+03  0.69934628762E+03  0.73273176439E+03  0.00000000000E+00 0. -1.
         22    1    3    3    0    0 -0.34595935871E+02 -0.59925476778E+02 -0.21980757033E+03  0.23044155337E+03  0.00000000000E+00 0. -1.
         22    1    3    3    0    0  0.41861544616E+02 -0.11149283625E+03 -0.11215424322E+03  0.16358977879E+03  0.00000000000E+00 0. -1.
</event>
<event>
 7    1  0.6273950E-006  0.6481289E+02  0.7818608E-02  0.1391401E+00
          2   -1    0    0  502    0  0.00000000000E+00  0.00000000000E+00  0.27066997555E+04  0.27066997555E+04  0.00000000000E+00 0. -1.
          1   -1    0    0  501    0 -0.00000000000E+00 -0.00000000000E+00 -0.42363327577E+03  0.42363327577E+03  0.00000000000E+00 0. -1.
         25    2    1    2    0    0  0.71075701958E+02 -0.98254822506E+02  0.13301530574E+02  0.17466337430E+03  0.12499839219E+03 0.  0.
          2    1    1    2  501    0 -0.42082987400E+02  0.40591946386E+02 -0.34005838468E+03  0.34504838636E+03  0.00000000000E+00 0. -1.
          1    1    1    2  502    0 -0.28992714558E+02  0.57662876120E+02  0.26098233338E+04  0.26106212706E+04  0.00000000000E+00 0. -1.
         22    1    3    3    0    0  0.18122860105E+02 -0.11389529711E+03 -0.77115275963E+01  0.11558565836E+03  0.00000000000E+00 0.  1.
         22    1    3    3    0    0  0.52952841853E+02  0.15640474602E+02  0.21013058171E+02  0.59077715932E+02  0.00000000000E+00 0.  1.
</event>
<event>
 7    1  0.6273950E-006  0.6054512E+02  0.7818608E-02  0.1459201E+00
          2   -1    0    0  502    0  0.00000000000E+00  0.00000000000E+00  0.20671409930E+04  0.20671409930E+04  0.00000000000E+00 0. -1.
          1   -1    0    0  501    0 -0.00000000000E+00 -0.00000000000E+00 -0.11013015829E+03  0.11013015829E+03  0.00000000000E+00 0. -1.
         25    2    1    2    0    0 -0.37604881208E+02 -0.39901522655E+02 -0.28871680687E+02  0.13951678733E+03  0.12500040560E+03 0.  0.
          2    1    1    2  501    0  0.31222578645E+02 -0.20398889948E+02 -0.11826086924E+02  0.39125700765E+02  0.00000000000E+00 0. -1.
          1    1    1    2  502    0  0.63823025627E+01  0.60300412604E+02  0.19977086023E+04  0.19986286632E+04  0.00000000000E+00 0. -1.
         22    1    3    3    0    0 -0.16509464632E+02 -0.34450583145E+01 -0.75104214211E+02  0.76974501242E+02  0.00000000000E+00 0. -1.
         22    1    3    3    0    0 -0.21095416576E+02 -0.36456464341E+02  0.46232533524E+02  0.62542286085E+02  0.00000000000E+00 0. -1.
</event>
<event>
 7    1  0.6273950E-006  0.6506178E+02  0.7818608E-02  0.1477166E+00
          2   -1    0    0  502    0  0.00000000000E+00  0.00000000000E+00  0.13742713423E+04  0.13742713423E+04  0.00000000000E+00 0. -1.
          1   -1    0    0  501    0 -0.00000000000E+00 -0.00000000000E+00 -0.82855762213E+03  0.82855762213E+03  0.00000000000E+00 0. -1.
         25    2    1    2    0    0 -0.22470644642E+02  0.28061655373E+02  0.76231584850E+03  0.77333128129E+03  0.12499372536E+03 0.  0.
          2    1    1    2  501    0  0.49368625700E+02 -0.42453111385E+02 -0.82137710410E+03  0.82395380636E+03  0.00000000000E+00 0. -1.
          1    1    1    2  502    0 -0.26897981058E+02  0.14391456011E+02  0.60477497578E+03  0.60554387679E+03  0.00000000000E+00 0. -1.
         22    1    3    3    0    0 -0.28741217768E+02  0.37756771490E+02  0.97684934171E+02  0.10860008175E+03  0.00000000000E+00 0.  1.
         22    1    3    3    0    0  0.62705731264E+01 -0.96951161162E+01  0.66463091433E+03  0.66473119954E+03  0.00000000000E+00 0.  1.
</event>
<event>
 7    1  0.6273950E-006  0.5092373E+02  0.7818608E-02  0.1500504E+00
          2   -1    0    0  502    0  0.00000000000E+00  0.00000000000E+00  0.48234249258E+03  0.48234249258E+03  0.00000000000E+00 0. -1.
          1   -1    0    0  501    0 -0.00000000000E+00 -0.00000000000E+00 -0.44394617915E+03  0.44394617915E+03  0.00000000000E+00 0. -1.
         25    2    1    2    0    0 -0.17890393122E+02  0.24191228648E+01 -0.23048945983E+03  0.26282393477E+03  0.12500044508E+03 0.  0.
          2    1    1    2  501    0 -0.32201784718E+02  0.77361597300E+01 -0.19448450099E+03  0.19728412057E+03  0.00000000000E+00 0. -1.
          1    1    1    2  502    0  0.50092177840E+02 -0.10155282595E+02  0.46337027425E+03  0.46618061640E+03  0.00000000000E+00 0. -1.
         22    1    3    3    0    0  0.13267081784E+02  0.59229979943E+02 -0.96718327321E+02  0.11418686800E+03  0.00000000000E+00 0. -1.
         22    1    3    3    0    0 -0.31157474906E+02 -0.56810857078E+02 -0.13377113251E+03  0.14863706677E+03  0.00000000000E+00 0. -1.
</event>
<event>
 7    1  0.6273950E-006  0.1121305E+03  0.7818608E-02  0.1360442E+00
          2   -1    0    0  502    0  0.00000000000E+00  0.00000000000E+00  0.20764972375E+04  0.20764972375E+04  0.00000000000E+00 0. -1.
          1   -1    0    0  501    0 -0.00000000000E+00 -0.00000000000E+00 -0.12689971637E+03  0.12689971637E+03  0.00000000000E+00 0. -1.
         25    2    1    2    0    0  0.13931215384E+03  0.48261651270E+02  0.79333788564E+03  0.81654512914E+03  0.12499553570E+03 0.  0.
          2    1    1    2  501    0 -0.96307337537E+02 -0.55263067249E+02 -0.88092517067E+02  0.14173708558E+03  0.00000000000E+00 0. -1.
          1    1    1    2  502    0 -0.43004816301E+02  0.70014159790E+01  0.12443521525E+04  0.12451147391E+04  0.00000000000E+00 0. -1.
         22    1    3    3    0    0  0.28752515365E+01  0.27949099973E+02  0.31041360884E+02  0.41868667835E+02  0.00000000000E+00 0.  1.
         22    1    3    3    0    0  0.13643690230E+03  0.20312551298E+02  0.76229652476E+03  0.77467646131E+03  0.00000000000E+00 0.  1.
</event>
<event>
 7    1  0.6273950E-006  0.8193341E+02  0.7818608E-02  0.1366754E+00
          2   -1    0    0  502    0  0.00000000000E+00  0.00000000000E+00  0.69658921857E+03  0.69658921857E+03  0.00000000000E+00 0. -1.
          1   -1    0    0  501    0 -0.00000000000E+00 -0.00000000000E+00 -0.18048805041E+03  0.18048805041E+03  0.00000000000E+00 0. -1.
         25    2    1    2    0    0 -0.25345868494E+02 -0.30962638685E+02  0.80120034361E+02  0.15376832848E+03  0.12499752355E+03 0.  0.
          2    1    1    2  501    0  0.81907540449E+02  0.30320562751E+02 -0.12884505464E+03  0.15565741169E+03  0.00000000000E+00 0. -1.
          1    1    1    2  502    0 -0.56561671955E+02  0.64207593412E+00  0.56482618845E+03  0.56765152880E+03  0.00000000000E+00 0. -1.
         22    1    3    3    0    0 -0.11147919615E+02 -0.61398032830E+02  0.97648906203E+02  0.11588487144E+03  0.00000000000E+00 0. -1.
         22    1    3    3    0    0 -0.14197948879E+02  0.30435394145E+02 -0.17528871842E+02  0.37883457038E+02  0.00000000000E+00 0. -1.
</event>
<event>
 7    1  0.6273950E-006  0.7501798E+02  0.7818608E-02  0.1358309E+00
          2   -1    0    0  502    0  0.00000000000E+00  0.00000000000E+00  0.17481056148E+04  0.17481056148E+04  0.00000000000E+00 0. -1.
          1   -1    0    0  501    0 -0.00000000000E+00 -0.00000000000E+00 -0.88629178303E+02  0.88629178303E+02  0.00000000000E+00 0. -1.
         25    2    1    2    0    0  0.65153770149E+01 -0.91472079872E+01  0.59007306204E+03  0.60327229648E+03  0.12500049441E+03 0.  0.
          2    1    1    2  501    0  0.71407961575E+02  0.22991295346E+02 -0.63203555827E+02  0.98093761816E+02  0.00000000000E+00 0. -1.
          1    1    1    2  502    0 -0.77923338590E+02 -0.13844087359E+02  0.11326069303E+04  0.11353687348E+04  0.00000000000E+00 0. -1.
         22    1    3    3    0    0  0.31135773061E+02  0.46122374305E+02  0.17030733390E+03  0.17916835032E+03  0.00000000000E+00 0. -1.
         22    1    3    3    0    0 -0.24620396046E+02 -0.55269582292E+02  0.41976572815E+03  0.42410394617E+03  0.00000000000E+00 0. -1.
</event>
<event>
 7    1  0.6273950E-006  0.3689058E+03  0.7818608E-02  0.1251932E+00
          2   -1    0    0  502    0  0.00000000000E+00  0.00000000000E+00  0.13936380820E+04  0.13936380820E+04  0.00000000000E+00 0. -1.
          1   -1    0    0  501    0 -0.00000000000E+00 -0.00000000000E+00 -0.62505074168E+03  0.62505074168E+03  0.00000000000E+00 0. -1.
         25    2    1    2    0    0 -0.29232576997E+03  0.20682947715E+03  0.59510660222E+03  0.70569808335E+03  0.12500051373E+03 0.  0.
          2    1    1    2  501    0  0.12363657980E+01  0.35702926731E+02 -0.52081615189E+03  0.52203993300E+03  0.00000000000E+00 0. -1.
          1    1    1    2  502    0  0.29108940418E+03 -0.24253240388E+03  0.69429688998E+03  0.79095080732E+03  0.00000000000E+00 0. -1.
         22    1    3    3    0    0 -0.19717435605E+03  0.14250196902E+03  0.28336098500E+03  0.37346751623E+03  0.00000000000E+00 0. -1.
         22    1    3    3    0    0 -0.95151413919E+02  0.64327508132E+02  0.31174561722E+03  0.33223056712E+03  0.00000000000E+00 0. -1.
</event>
<event>
 7    1  0.6273950E-006  0.8051005E+02  0.7818608E-02  0.1394031E+00
          2   -1    0    0  502    0  0.00000000000E+00  0.00000000000E+00  0.15853974949E+04  0.15853974949E+04  0.00000000000E+00 0. -1.
          1   -1    0    0  501    0 -0.00000000000E+00 -0.00000000000E+00 -0.95749859845E+03  0.95749859845E+03  0.00000000000E+00 0. -1.
         25    2    1    2    0    0  0.53146836032E+01  0.11624791525E+03  0.23809543484E+03  0.29301373914E+03  0.12500316625E+03 0.  0.
          2    1    1    2  501    0  0.20050016690E+02 -0.77765922816E+02 -0.92790212669E+03  0.93137097799E+03  0.00000000000E+00 0. -1.
          1    1    1    2  502    0 -0.25364700293E+02 -0.38481992430E+02  0.13177055883E+04  0.13185113762E+04  0.00000000000E+00 0. -1.
         22    1    3    3    0    0 -0.27690860480E+02  0.84680253465E+01  0.14190667017E+03  0.14483091606E+03  0.00000000000E+00 0.  1.
         22    1    3    3    0    0  0.33005544083E+02  0.10777988990E+03  0.96188764665E+02  0.14818282308E+03  0.00000000000E+00 0.  1.
</event>
<event>
 7    1  0.6273950E-006  0.4591868E+02  0.7818608E-02  0.1471259E+00
          2   -1    0    0  502    0  0.00000000000E+00  0.00000000000E+00  0.30865069901E+03  0.30865069901E+03  0.00000000000E+00 0. -1.
          1   -1    0    0  501    0 -0.00000000000E+00 -0.00000000000E+00 -0.71309329545E+03  0.71309329545E+03  0.00000000000E+00 0. -1.
         25    2    1    2    0    0 -0.82265640871E+01  0.79152221990E+01 -0.30994948978E+03  0.33439892389E+03  0.12499450782E+03 0.  0.
          2    1    1    2  501    0 -0.13041233329E+02 -0.48611728137E+02 -0.38750352619E+03  0.39075843777E+03  0.00000000000E+00 0. -1.
          1    1    1    2  502    0  0.21267797416E+02  0.40696505938E+02  0.29301041953E+03  0.29658663280E+03  0.00000000000E+00 0. -1.
         22    1    3    3    0    0  0.15243896565E+02 -0.50130249253E+02 -0.76674434485E+02  0.92867578714E+02  0.00000000000E+00 0.  1.
         22    1    3    3    0    0 -0.23470460652E+02  0.58045471452E+02 -0.23327505530E+03  0.24153134518E+03  0.00000000000E+00 0.  1.
</event>
<event>
 7    1  0.6273950E-006  0.8265740E+02  0.7818608E-02  0.1356889E+00
          2   -1    0    0  502    0  0.00000000000E+00  0.00000000000E+00  0.16473713462E+04  0.16473713462E+04  0.00000000000E+00 0. -1.
          1   -1    0    0  501    0 -0.00000000000E+00 -0.00000000000E+00 -0.13685678585E+03  0.13685678585E+03  0.00000000000E+00 0. -1.
         25    2    1    2    0    0  0.61991043969E+02  0.22007287488E+02  0.11152786365E+04  0.11241879365E+04  0.12499947719E+03 0.  0.
          2    1    1    2  501    0 -0.74058977883E+02  0.37687654192E+02 -0.11738150131E+03  0.14381762178E+03  0.00000000000E+00 0. -1.
          1    1    1    2  502    0  0.12067933915E+02 -0.59694941680E+02  0.51261742512E+03  0.51622257373E+03  0.00000000000E+00 0. -1.
         22    1    3    3    0    0 -0.91280364979E+01 -0.40175647639E+02  0.21074455850E+03  0.21473395784E+03  0.00000000000E+00 0. -1.
         22    1    3    3    0    0  0.71119080467E+02  0.62182935127E+02  0.90453407805E+03  0.90945397870E+03  0.00000000000E+00 0. -1.
</event>
<event>
 7    1  0.6273950E-006  0.1951812E+03  0.7818608E-02  0.1199680E+00
          2   -1    0    0  502    0  0.00000000000E+00  0.00000000000E+00  0.29496417919E+04  0.29496417919E+04  0.00000000000E+00 0. -1.
          1   -1    0    0  501    0 -0.00000000000E+00 -0.00000000000E+00 -0.64575400737E+03  0.64575400737E+03  0.00000000000E+00 0. -1.
         25    2    1    2    0    0  0.27534640536E+03 -0.44588031895E+02  0.21447893042E+03  0.37340373282E+03  0.12500160220E+03 0.  0.
          2    1    1    2  501    0 -0.86138864314E+02  0.78102144212E+02 -0.55680239847E+03  0.56881346663E+03  0.00000000000E+00 0. -1.
          1    1    1    2  502    0 -0.18920754105E+03 -0.33514112317E+02  0.26462112526E+04  0.26531785998E+04  0.00000000000E+00 0. -1.
         22    1    3    3    0    0  0.10731949548E+03  0.27815774758E+02  0.13291863398E+03  0.17308539712E+03  0.00000000000E+00 0. -1.
         22    1    3    3    0    0  0.16802690988E+03 -0.72403806653E+02  0.81560296438E+02  0.20031833570E+03  0.00000000000E+00 0. -1.
</event>
<event>
 7    1  0.6273950E-006  0.5689819E+02  0.7818608E-02  0.1462450E+00
          2   -1    0    0  502    0  0.00000000000E+00  0.00000000000E+00  0.13018235075E+04  0.13018235075E+04  0.00000000000E+00 0. -1.
          1   -1    0    0  501    0 -0.00000000000E+00 -0.00000000000E+00 -0.25408990286E+03  0.25408990286E+03  0.00000000000E+00 0. -1.
         25    2    1    2    0    0  0.90222830501E+02  0.15560781219E+02  0.25813664050E+03  0.30106881229E+03  0.12500243002E+03 0.  0.
          2    1    1    2  501    0 -0.34525238054E+02 -0.17619886419E+02 -0.23024289797E+03  0.23348285703E+03  0.00000000000E+00 0. -1.
          1    1    1    2  502    0 -0.55697592447E+02  0.20591051994E+01  0.10198398621E+04  0.10213617410E+04  0.00000000000E+00 0. -1.
         22    1    3    3    0    0  0.38921504307E+02 -0.41427225203E+02  0.39082315072E+02  0.68982068952E+02  0.00000000000E+00 0. -1.
         22    1    3    3    0    0  0.51301326194E+02  0.56988006423E+02  0.21905432543E+03  0.23208674334E+03  0.00000000000E+00 0. -1.
</event>
<event>
 7    1  0.6273950E-006  0.6502330E+02  0.7818608E-02  0.1419119E+00
          2   -1    0    0  502    0  0.00000000000E+00  0.00000000000E+00  0.25159987125E+03  0.25159987125E+03  0.00000000000E+00 0. -1.
          1   -1    0    0  501    0 -0.00000000000E+00 -0.00000000000E+00 -0.51019984605E+03  0.51019984605E+03  0.00000000000E+00 0. -1.
         25    2    1    2    0    0 -0.35825673521E+02  0.47486299353E+02 -0.25749363518E+03  0.29234636848E+03  0.12499999798E+03 0.  0.
          2    1    1    2  501    0 -0.51891828299E+01 -0.70178747584E+02 -0.22756366537E+03  0.23819573049E+03  0.00000000000E+00 0. -1.
          1    1    1    2  502    0  0.41014856351E+02  0.22692448231E+02  0.22645732575E+03  0.23125761833E+03  0.00000000000E+00 0. -1.
         22    1    3    3    0    0 -0.12062561602E+02  0.86692561651E+02 -0.12875883540E+03  0.15569182166E+03  0.00000000000E+00 0.  1.
         22    1    3    3    0    0 -0.23763111919E+02 -0.39206262298E+02 -0.12873479979E+03  0.13665454682E+03  0.00000000000E+00 0.  1.
</event>
<event>
 7    1  0.6273950E-006  0.4639165E+02  0.7818608E-02  0.1531772E+00
          2   -1    0    0  502    0  0.00000000000E+00  0.00000000000E+00  0.10196040144E+03  0.10196040144E+03  0.00000000000E+00 0. -1.
          1   -1    0    0  501    0 -0.00000000000E+00 -0.00000000000E+00 -0.16186995616E+04  0.16186995616E+04  0.00000000000E+00 0. -1.
         25    2    1    2    0    0 -0.90292459861E+01  0.59036751046E+02 -0.40866171690E+03  0.43150474656E+03  0.12500032873E+03 0.  0.
          2    1    1    2  501    0 -0.15893084758E+02 -0.43324627874E+02 -0.11957626717E+04  0.11966528237E+04  0.00000000000E+00 0. -1.
          1    1    1    2  502    0  0.24922330744E+02 -0.15712123171E+02  0.87685228419E+02  0.92502392765E+02  0.00000000000E+00 0. -1.
         22    1    3    3    0    0  0.42331768652E+02  0.60969312665E+02 -0.14514468603E+03  0.16302213226E+03  0.00000000000E+00 0. -1.
         22    1    3    3    0    0 -0.51361014638E+02 -0.19325616188E+01 -0.26351703088E+03  0.26848261430E+03  0.00000000000E+00 0. -1.
</event>
<event>
 7    1  0.6273950E-006  0.5703940E+02  0.7818608E-02  0.1418128E+00
          2   -1    0    0  502    0  0.00000000000E+00  0.00000000000E+00  0.18284031505E+04  0.18284031505E+04  0.00000000000E+00 0. -1.
          1   -1    0    0  501    0 -0.00000000000E+00 -0.00000000000E+00 -0.60248398275E+03  0.60248398275E+03  0.00000000000E+00 0. -1.
         25    2    1    2    0    0 -0.34753896143E+02 -0.30522650588E+02  0.40411603124E+03  0.42551426719E+03  0.12495262856E+03 0.  0.
          2    1    1    2  501    0 -0.12844549051E+02  0.55694182066E+02 -0.58989035171E+03  0.59265289285E+03  0.00000000000E+00 0. -1.
          1    1    1    2  502    0  0.47598445194E+02 -0.25171531478E+02  0.14116934882E+04  0.14127199732E+04  0.00000000000E+00 0. -1.
         22    1    3    3    0    0  0.35520460721E+02 -0.31493310912E+02  0.26957199647E+03  0.27371991714E+03  0.00000000000E+00 0.  1.
         22    1    3    3    0    0 -0.70274356863E+02  0.97066032423E+00  0.13454403477E+03  0.15179435005E+03  0.00000000000E+00 0.  1.
</event>
<event>
 7    1  0.6273950E-006  0.1379924E+03  0.7818608E-02  0.1329816E+00
          2   -1    0    0  502    0  0.00000000000E+00  0.00000000000E+00  0.86685343532E+02  0.86685343532E+02  0.00000000000E+00 0. -1.
          1   -1    0    0  501    0 -0.00000000000E+00 -0.00000000000E+00 -0.15512222357E+04  0.15512222357E+04  0.00000000000E+00 0. -1.
         25    2    1    2    0    0 -0.17133043429E+03 -0.28060862869E+02 -0.53536117748E+03  0.57652107433E+03  0.12499371607E+03 0.  0.
          2    1    1    2  501    0  0.44081256614E+02 -0.13384130796E+02 -0.92638423104E+03  0.92752899451E+03  0.00000000000E+00 0. -1.
          1    1    1    2  502    0  0.12724917767E+03  0.41444993665E+02 -0.27914836939E+01  0.13385751043E+03  0.00000000000E+00 0. -1.
         22    1    3    3    0    0 -0.79736285114E+02 -0.49238575234E+02 -0.12911996075E+03  0.15954396485E+03  0.00000000000E+00 0. -1.
         22    1    3    3    0    0 -0.91594149174E+02  0.21177712365E+02 -0.40624121673E+03  0.41697710949E+03  0.00000000000E+00 0. -1.
</event>
<event>
 7    1  0.6273950E-006  0.3627976E+02  0.7818608E-02  0.1608553E+00
          2   -1    0    0  502    0  0.00000000000E+00  0.00000000000E+00  0.27507820702E+03  0.27507820702E+03  0.00000000000E+00 0. -1.
          1   -1    0    0  501    0 -0.00000000000E+00 -0.00000000000E+00 -0.17514371333E+03  0.17514371333E+03  0.00000000000E+00 0. -1.
         25    2    1    2    0    0  0.29305954276E+02  0.23693207767E+02 -0.32822619538E+02  0.13461624728E+03  0.12499601045E+03 0.  0.
          2    1    1    2  501    0 -0.20239141558E+02  0.11543676690E+02 -0.88428926575E+02  0.91447003110E+02  0.00000000000E+00 0. -1.
          1    1    1    2  502    0 -0.90668127177E+01 -0.35236884458E+02  0.22118603980E+03  0.22415866997E+03  0.00000000000E+00 0. -1.
         22    1    3    3    0    0  0.30447403699E+02 -0.41412566639E+02  0.15320940908E+02  0.53635587980E+02  0.00000000000E+00 0.  1.
         22    1    3    3    0    0 -0.11414494237E+01  0.65105774407E+02 -0.48143560446E+02  0.80980659298E+02  0.00000000000E+00 0.  1.
</event>
<event>
 7    1  0.6273950E-006  0.6799274E+02  0.7818608E-02  0.1400151E+00
          2   -1    0    0  502    0  0.00000000000E+00  0.00000000000E+00  0.12663872101E+03  0.12663872101E+03  0.00000000000E+00 0. -1.
          1   -1    0    0  501    0 -0.00000000000E+00 -0.00000000000E+00 -0.39872243599E+03  0.39872243599E+03  0.00000000000E+00 0. -1.
         25    2    1    2    0    0  0.20278120062E+01 -0.20867529986E+02 -0.26509013703E+02  0.12948893204E+03  0.12500035954E+03 0.  0.
          2    1    1    2  501    0 -0.26152187028E+02  0.66912698935E+02 -0.30706310624E+03  0.31535535096E+03  0.00000000000E+00 0. -1.
          1    1    1    2  502    0  0.24124375022E+02 -0.46045168949E+02  0.61488404961E+02  0.80516873998E+02  0.00000000000E+00 0. -1.
         22    1    3    3    0    0 -0.67053160611E+01 -0.34617590584E+02 -0.72542622531E+02  0.80658359301E+02  0.00000000000E+00 0. -1.
         22    1    3    3    0    0  0.87331280673E+01  0.13750060598E+02  0.46033608828E+02  0.48830572739E+02  0.00000000000E+00 0. -1.
</event>
<event>
 7    1  0.6273950E-006  0.5933071E+02  0.7818608E-02  0.1455025E+00
          2   -1    0    0  502    0  0.00000000000E+00  0.00000000000E+00  0.69178674198E+03  0.69178674198E+03  0.00000000000E+00 0. -1.
          1   -1    0    0  501    0 -0.00000000000E+00 -0.00000000000E+00 -0.42037398456E+03  0.42037398456E+03  0.00000000000E+00 0. -1.
         25    2    1    2    0    0  0.25546870896E+02 -0.57205418132E+02  0.25387368547E+03  0.28983187087E+03  0.12500225087E+03 0.  0.
          2    1    1    2  501    0 -0.52181810163E+02  0.28394766711E+02 -0.39927591629E+03  0.40367122937E+03  0.00000000000E+00 0. -1.
          1    1    1    2  502    0  0.26634939267E+02  0.28810651421E+02  0.41681498825E+03  0.41865762629E+03  0.00000000000E+00 0. -1.
         22    1    3    3    0    0  0.64960068684E+02 -0.21715703219E+02  0.67909627066E+02  0.96452577663E+02  0.00000000000E+00 0.  1.
         22    1    3    3    0    0 -0.39413197787E+02 -0.35489714913E+02  0.18596405840E+03  0.19337929321E+03  0.00000000000E+00 0.  1.
</event>
<event>
 7    1  0.6273950E-006  0.7395793E+02  0.7818608E-02  0.1377659E+00
          2   -1    0    0  502    0  0.00000000000E+00  0.00000000000E+00  0.11863578057E+04  0.11863578057E+04  0.00000000000E+00 0. -1.
          1   -1    0    0  501    0 -0.00000000000E+00 -0.00000000000E+00 -0.45251944796E+03  0.45251944796E+03  0.00000000000E+00 0. -1.
         25    2    1    2    0    0 -0.28608655604E+02  0.12708714410E+03  0.14824576057E+03  0.23360482975E+03  0.12499925434E+03 0.  0.
          2    1    1    2  501    0  0.16488585404E+02 -0.71110798727E+02 -0.40575638879E+03  0.41227037995E+03  0.00000000000E+00 0. -1.
          1    1    1    2  502    0  0.12120070200E+02 -0.55976345370E+02  0.99134898591E+03  0.99300204391E+03  0.00000000000E+00 0. -1.
         22    1    3    3    0    0  0.28719057256E+01  0.14360722405E+03  0.10674042308E+03  0.17895474444E+03  0.00000000000E+00 0. -1.
         22    1    3    3    0    0 -0.31480561330E+02 -0.16520079949E+02  0.41505337498E+02  0.54650085306E+02  0.00000000000E+00 0. -1.
</event>
<event>
 7    1  0.6273950E-006  0.1556409E+03  0.7818608E-02  0.1287919E+00
          2   -1    0    0  502    0  0.00000000000E+00  0.00000000000E+00  0.21433418797E+04  0.21433418797E+04  0.00000000000E+00 0. -1.
          1   -1    0    0  501    0 -0.00000000000E+00 -0.00000000000E+00 -0.86178978747E+03  0.86178978747E+03  0.00000000000E+00 0. -1.
         25    2    1    2    0    0 -0.61186606001E+02  0.80182339033E+02  0.34330433063E+02  0.16424580232E+03  0.12500038679E+03 0.  0.
          2    1    1    2  501    0  0.88833673123E+02 -0.13318868390E+03 -0.78834739841E+03  0.80443910122E+03  0.00000000000E+00 0. -1.
          1    1    1    2  502    0 -0.27647067122E+02  0.53006344869E+02  0.20355690575E+04  0.20364467636E+04  0.00000000000E+00 0. -1.
         22    1    3    3    0    0  0.26988557850E+02  0.49259948277E+02 -0.15609649677E+02  0.58297392069E+02  0.00000000000E+00 0. -1.
         22    1    3    3    0    0 -0.88175163851E+02  0.30922390757E+02  0.49940082739E+02  0.10594841025E+03  0.00000000000E+00 0. -1.
</event>
<event>
 7    1  0.6273950E-006  0.4019937E+02  0.7818608E-02  0.1540714E+00
          2   -1    0    0  502    0  0.00000000000E+00  0.00000000000E+00  0.19087101764E+04  0.19087101764E+04  0.00000000000E+00 0. -1.
          1   -1    0    0  501    0 -0.00000000000E+00 -0.00000000000E+00 -0.13642337057E+03  0.13642337057E+03  0.00000000000E+00 0. -1.
         25    2    1    2    0    0 -0.41719254779E+01  0.34892083084E+02 -0.15923464928E+02  0.13081743237E+03  0.12499912581E+03 0.  0.
          2    1    1    2  501    0  0.34433606676E+02 -0.24281411770E+02 -0.55859151430E+02  0.69967885667E+02  0.00000000000E+00 0. -1.
          1    1    1    2  502    0 -0.30261681198E+02 -0.10610671314E+02  0.18440694222E+04  0.18443482290E+04  0.00000000000E+00 0. -1.
         22    1    3    3    0    0 -0.43056844156E+02  0.37528556129E+02 -0.52344741225E+02  0.77474229830E+02  0.00000000000E+00 0. -1.
         22    1    3    3    0    0  0.38884918678E+02 -0.26364730444E+01  0.36421276296E+02  0.53343202545E+02  0.00000000000E+00 0. -1.
</event>
<event>
 7    1  0.6273950E-006  0.9924815E+02  0.7818608E-02  0.1358597E+00
          2   -1    0    0  502    0  0.00000000000E+00  0.00000000000E+00  0.32350105620E+04  0.32350105620E+04  0.00000000000E+00 0. -1.
          1   -1    0    0  501    0 -0.00000000000E+00 -0.00000000000E+00 -0.44095945499E+02  0.44095945499E+02  0.00000000000E+00 0. -1.
         25    2    1    2    0    0 -0.85834248860E+02 -0.58992166542E+01  0.22429756667E+03  0.27080725341E+03  0.12499940421E+03 0.  0.
          2    1    1    2  501    0  0.27003783563E+01 -0.49923369768E+02  0.11263106425E+02  0.51249316665E+02  0.00000000000E+00 0. -1.
          1    1    1    2  502    0  0.83133870503E+02  0.55822586422E+02  0.29553539434E+04  0.29570499374E+04  0.00000000000E+00 0. -1.
         22    1    3    3    0    0 -0.11537314657E+03 -0.93044712348E+01  0.14137104075E+03  0.18271099391E+03  0.00000000000E+00 0. -1.
         22    1    3    3    0    0  0.29538897711E+02  0.34052545805E+01  0.82926525921E+02  0.88096259501E+02  0.00000000000E+00 0. -1.
</event>
<event>
 7    1  0.6273950E-006  0.1750411E+03  0.7818608E-02  0.1273625E+00
          2   -1    0    0  502    0  0.00000000000E+00  0.00000000000E+00  0.19747462824E+04  0.19747462824E+04  0.00000000000E+00 0. -1.
          1   -1    0    0  501    0 -0.00000000000E+00 -0.00000000000E+00 -0.58647903412E+03  0.58647903412E+03  0.00000000000E+00 0. -1.
         25    2    1    2    0    0 -0.14699242558E+03 -0.71445884069E+02 -0.77404642639E+02  0.21984638019E+03  0.12501865722E+03 0.  0.
          2    1    1    2  501    0  0.17900137910E+03  0.19645106202E+02 -0.41882594335E+03  0.45589757045E+03  0.00000000000E+00 0. -1.
          1    1    1    2  502    0 -0.32008953517E+02  0.51800777867E+02  0.18844978343E+04  0.18854813659E+04  0.00000000000E+00 0. -1.
         22    1    3    3    0    0 -0.31580485767E+02 -0.67792050303E+02  0.94169541982E+01  0.75377504548E+02  0.00000000000E+00 0.  1.
         22    1    3    3    0    0 -0.11541193981E+03 -0.36538337658E+01 -0.86821596837E+02  0.14446887564E+03  0.00000000000E+00 0.  1.
</event>
<event>
 7    1  0.6273950E-006  0.9346612E+02  0.7818608E-02  0.1368397E+00
          2   -1    0    0  502    0  0.00000000000E+00  0.00000000000E+00  0.33022329647E+04  0.33022329647E+04  0.00000000000E+00 0. -1.
          1   -1    0    0  501    0 -0.00000000000E+00 -0.00000000000E+00 -0.12794303730E+03  0.12794303730E+03  0.00000000000E+00 0. -1.
         25    2    1    2    0    0 -0.11351096594E+03 -0.46062639700E+02  0.32943926049E+03  0.37304445618E+03  0.12500173507E+03 0.  0.
          2    1    1    2  501    0  0.92210332978E+02  0.20306911449E+01 -0.85860939352E+02  0.12601178564E+03  0.00000000000E+00 0. -1.
          1    1    1    2  502    0  0.21300632959E+02  0.44031948555E+02  0.29307116063E+04  0.29311197602E+04  0.00000000000E+00 0. -1.
         22    1    3    3    0    0  0.24447059028E+02  0.92235361732E+01  0.42253107135E+02  0.49679546870E+02  0.00000000000E+00 0. -1.
         22    1    3    3    0    0 -0.13795802496E+03 -0.55286175873E+02  0.28718615335E+03  0.32336490931E+03  0.00000000000E+00 0. -1.
</event>
<event>
 7    1  0.6273950E-006  0.5735969E+02  0.7818608E-02  0.1543469E+00
          2   -1    0    0  502    0  0.00000000000E+00  0.00000000000E+00  0.31209501984E+02  0.31209501984E+02  0.00000000000E+00 0. -1.
          1   -1    0    0  501    0 -0.00000000000E+00 -0.00000000000E+00 -0.15551729028E+04  0.15551729028E+04  0.00000000000E+00 0. -1.
         25    2    1    2    0    0 -0.47922618765E+02 -0.56865703438E+02 -0.80867778244E+03  0.82165370555E+03  0.12499908168E+03 0.  0.
          2    1    1    2  501    0  0.28167241074E+02  0.47013151048E+02 -0.73384446870E+03  0.73588812606E+03  0.00000000000E+00 0. -1.
          1    1    1    2  502    0  0.19755377691E+02  0.98525523906E+01  0.18558850312E+02  0.28840573178E+02  0.00000000000E+00 0. -1.
         22    1    3    3    0    0  0.55971787248E+01  0.36769110964E+02 -0.23520465787E+03  0.23812712365E+03  0.00000000000E+00 0.  1.
         22    1    3    3    0    0 -0.53519797490E+02 -0.93634814402E+02 -0.57347312457E+03  0.58352658191E+03  0.00000000000E+00 0.  1.
</event>
<event>
 7    1  0.6273950E-006  0.9872176E+02  0.7818608E-02  0.1293042E+00
          2   -1    0    0  502    0  0.00000000000E+00  0.00000000000E+00  0.14881025618E+04  0.14881025618E+04  0.00000000000E+00 0. -1.
          1   -1    0    0  501    0 -0.00000000000E+00 -0.00000000000E+00 -0.13680011668E+04  0.13680011668E+04  0.00000000000E+00 0. -1.
         25    2    1    2    0    0  0.11681143931E+03  0.91585833418E+02  0.19074816185E+03  0.27210689507E+03  0.12499769542E+03 0.  0.
          2    1    1    2  501    0 -0.98483022809E+02 -0.36354684154E+01 -0.13238823021E+04  0.13275452807E+04  0.00000000000E+00 0. -1.
          1    1    1    2  502    0 -0.18328416505E+02 -0.87950365003E+02  0.12532355353E+04  0.12564515528E+04  0.00000000000E+00 0. -1.
         22    1    3    3    0    0  0.31885623816E+02  0.48108707367E+02  0.16274217035E+03  0.17267354962E+03  0.00000000000E+00 0.  1.
         22    1    3    3    0    0  0.84925815497E+02  0.43477126051E+02  0.28005991502E+02  0.99433345451E+02  0.00000000000E+00 0.  1.
</event>
<event>
 7    1  0.6273950E-006  0.8999832E+02  0.7818608E-02  0.1475992E+00
          2   -1    0    0  502    0  0.00000000000E+00  0.00000000000E+00  0.16887492597E+04  0.16887492597E+04  0.00000000000E+00 0. -1.
          1   -1    0    0  501    0 -0.00000000000E+00 -0.00000000000E+00 -0.29227009440E+03  0.29227009440E+03  0.00000000000E+00 0. -1.
         25    2    1    2    0    0 -0.63693672175E+02  0.25858128024E+02  0.17873728973E+03  0.22868633895E+03  0.12499958489E+03 0.  0.
          2    1    1    2  501    0  0.85288670184E+02 -0.31166662167E+02 -0.25949748326E+03  0.27492628450E+03  0.00000000000E+00 0. -1.
          1    1    1    2  502    0 -0.21594998009E+02  0.53085341430E+01  0.14772393588E+04  0.14774067306E+04  0.00000000000E+00 0. -1.
         22    1    3    3    0    0 -0.93803002048E+02  0.39766845400E+02  0.16240135185E+03  0.19171490362E+03  0.00000000000E+00 0. -1.
         22    1    3    3    0    0  0.30109329873E+02 -0.13908717376E+02  0.16335937880E+02  0.36971435336E+02  0.00000000000E+00 0. -1.
</event>
<event>
 7    1  0.6273950E-006  0.4476528E+02  0.7818608E-02  0.1574146E+00
          2   -1    0    0  502    0  0.00000000000E+00  0.00000000000E+00  0.14013742852E+04  0.14013742852E+04  0.00000000000E+00 0. -1.
          1   -1    0    0  501    0 -0.00000000000E+00 -0.00000000000E+00 -0.14714056045E+03  0.14714056045E+03  0.00000000000E+00 0. -1.
         25    2    1    2    0    0 -0.49870288019E+02 -0.33148381219E+02 -0.85992659981E+02  0.16311208418E+03  0.12499981453E+03 0.  0.
          2    1    1    2  501    0  0.27365956365E+02  0.27186225676E+02 -0.59451992419E+01  0.39029883786E+02  0.00000000000E+00 0. -1.
          1    1    1    2  502    0  0.22504331654E+02  0.59621555431E+01  0.13461715840E+04  0.13463728777E+04  0.00000000000E+00 0. -1.
         22    1    3    3    0    0 -0.30232151898E+02 -0.81187213699E+02 -0.56307811639E+02  0.10332432593E+03  0.00000000000E+00 0.  1.
         22    1    3    3    0    0 -0.19638136121E+02  0.48038832480E+02 -0.29684848342E+02  0.59787758258E+02  0.00000000000E+00 0.  1.
</event>
<event>
 7    1  0.8123088E-006  0.5560438E+02  0.7818608E-02  0.1479832E+00
          2   -1    0    0  502    0  0.00000000000E+00  0.00000000000E+00  0.25892573737E+04  0.25892573737E+04  0.00000000000E+00 0. -1.
          1   -1    0    0  501    0 -0.00000000000E+00 -0.00000000000E+00 -0.23134305071E+04  0.23134305071E+04  0.00000000000E+00 0. -1.
         25    2    1    2    0    0 -0.44752067992E+02 -0.32761087853E+02 -0.12311871676E+04  0.12387585464E+04  0.12499943265E+03 0.  0.
          2    1    1    2  501    0  0.28467778106E+02 -0.20408163874E+02 -0.10778741332E+04  0.10784431160E+04  0.00000000000E+00 0. -1.
          1    1    1    2  502    0  0.16284289886E+02  0.53169251727E+02  0.25848881673E+04  0.25854862183E+04  0.00000000000E+00 0. -1.
         22    1    3    3    0    0  0.43453765438E+02 -0.99998980456E+01 -0.48047823783E+03  0.48254281128E+03  0.00000000000E+00 0.  1.
         22    1    3    3    0    0 -0.88205833430E+02 -0.22761189807E+02 -0.75070892976E+03  0.75621573511E+03  0.00000000000E+00 0.  1.
</event>
<event>
 7    1  0.6273950E-006  0.1874670E+03  0.7818608E-02  0.1245748E+00
          2   -1    0    0  502    0  0.00000000000E+00  0.00000000000E+00  0.25134881434E+03  0.25134881434E+03  0.00000000000E+00 0. -1.
          1   -1    0    0  501    0 -0.00000000000E+00 -0.00000000000E+00 -0.13531431858E+04  0.13531431858E+04  0.00000000000E+00 0. -1.
         25    2    1    2    0    0 -0.12307158491E+03 -0.14120375282E+03 -0.15808560943E+03  0.27511532853E+03  0.12494906667E+03 0.  0.
          2    1    1    2  501    0  0.17007404118E+03  0.83032014983E+02 -0.11210485379E+04  0.11369121863E+04  0.00000000000E+00 0. -1.
          1    1    1    2  502    0 -0.47002456273E+02  0.58171737841E+02  0.17733977591E+03  0.19246448529E+03  0.00000000000E+00 0. -1.
         22    1    3    3    0    0 -0.91820389982E+02 -0.23648816049E+02 -0.32380109607E+02  0.10019342301E+03  0.00000000000E+00 0.  1.
         22    1    3    3    0    0 -0.31251194923E+02 -0.11755493677E+03 -0.12570549983E+03  0.17492190552E+03  0.00000000000E+00 0.  1.
</event>
<event>
 7    1  0.6273950E-006  0.4944017E+02  0.7818608E-02  0.1458927E+00
          2   -1    0    0  502    0  0.00000000000E+00  0.00000000000E+00  0.19354976468E+03  0.19354976468E+03  0.00000000000E+00 0. -1.
          1   -1    0    0  501    0 -0.00000000000E+00 -0.00000000000E+00 -0.16096884589E+04  0.16096884589E+04  0.00000000000E+00 0. -1.
         25    2    1    2    0    0  0.52461749862E+02  0.46172513316E+02 -0.87141652275E+03  0.88310623680E+03  0.12500293264E+03 0.  0.
          2    1    1    2  501    0 -0.48589429080E+02 -0.57259531523E+00 -0.72881652320E+03  0.73043465482E+03  0.00000000000E+00 0. -1.
          1    1    1    2  502    0 -0.38723207826E+01 -0.45599918001E+02  0.18409435176E+03  0.18969733192E+03  0.00000000000E+00 0. -1.
         22    1    3    3    0    0  0.65278105076E+02  0.68827678508E+02 -0.82007859484E+03  0.82554671706E+03  0.00000000000E+00 0. -1.
         22    1    3    3    0    0 -0.12816355213E+02 -0.22655165191E+02 -0.51337927911E+02  0.57559519742E+02  0.00000000000E+00 0. -1.
</event>
<event>
 7    1  0.6273950E-006  0.4060564E+02  0.7818608E-02  0.1527174E+00
          2   -1    0    0  502    0  0.00000000000E+00  0.00000000000E+00  0.49329386054E+03  0.49329386054E+03  0.00000000000E+00 0. -1.
          1   -1    0    0  501    0 -0.00000000000E+00 -0.00000000000E+00 -0.82441937450E+03  0.82441937450E+03  0.00000000000E+00 0. -1.
         25    2    1    2    0    0 -0.18059079706E+02 -0.36299086030E+02 -0.23534175855E+03  0.26953909336E+03  0.12498730146E+03 0.  0.
          2    1    1    2  501    0 -0.16608620891E+02  0.37727440921E+02 -0.57060241416E+03  0.57208943456E+03  0.00000000000E+00 0. -1.
          1    1    1    2  502    0  0.34667700598E+02 -0.14283548911E+01  0.47481865874E+03  0.47608470712E+03  0.00000000000E+00 0. -1.
         22    1    3    3    0    0 -0.58537065513E+02  0.79865195047E+01 -0.59947456029E+02  0.84166917593E+02  0.00000000000E+00 0.  1.
         22    1    3    3    0    0  0.40477985807E+02 -0.44285605535E+02 -0.17539430252E+03  0.18537217577E+03  0.00000000000E+00 0.  1.
</event>
<event>
 7    1  0.6273950E-006  0.8675925E+02  0.7818608E-02  0.1429654E+00
          2   -1    0    0  502    0  0.00000000000E+00  0.00000000000E+00  0.25282249763E+04  0.25282249763E+04  0.00000000000E+00 0. -1.
          1   -1    0    0  501    0 -0.00000000000E+00 -0.00000000000E+00 -0.70436895012E+02  0.70436895012E+02  0.00000000000E+00 0. -1.
         25    2    1    2    0    0 -0.39488943113E+02  0.49191351014E+02  0.37574976419E+03  0.40098793799E+03  0.12499710188E+03 0.  0.
          2    1    1    2  501    0  0.71703637047E+02 -0.52772178369E+02 -0.23346150210E+02  0.92039975582E+02  0.00000000000E+00 0. -1.
          1    1    1    2  502    0 -0.32214693934E+02  0.35808273554E+01  0.21053844673E+04  0.21056339577E+04  0.00000000000E+00 0. -1.
         22    1    3    3    0    0 -0.56729658636E+02  0.28916055279E+01  0.32586305030E+03  0.33077687813E+03  0.00000000000E+00 0. -1.
         22    1    3    3    0    0  0.17240715523E+02  0.46299745486E+02  0.49886713888E+02  0.70211059858E+02  0.00000000000E+00 0. -1.
</event>
<event>
 7    1  0.6273950E-006  0.6890149E+02  0.7818608E-02  0.1408215E+00
          2   -1    0    0  502    0  0.00000000000E+00  0.00000000000E+00  0.56649340296E+03  0.56649340296E+03  0.00000000000E+00 0. -1.
          1   -1    0    0  501    0 -0.00000000000E+00 -0.00000000000E+00 -0.58359445620E+02  0.58359445620E+02  0.00000000000E+00 0. -1.
         25    2    1    2    0    0  0.50374992900E+02 -0.10730862482E+02  0.16999552890E+03  0.21720072513E+03  0.12499953533E+03 0.  0.
          2    1    1    2  501    0 -0.58275901680E+01 -0.47788363888E+02 -0.12210720999E+02  0.49666792101E+02  0.00000000000E+00 0. -1.
          1    1    1    2  502    0 -0.44547402732E+02  0.58519226370E+02  0.35034914944E+03  0.35798533134E+03  0.00000000000E+00 0. -1.
         22    1    3    3    0    0 -0.17666597734E+02 -0.11090745148E+02 -0.11182047199E+02  0.23667519579E+02  0.00000000000E+00 0.  1.
         22    1    3    3    0    0  0.68041590635E+02  0.35988266606E+00  0.18117757610E+03  0.19353320555E+03  0.00000000000E+00 0.  1.
</event>
<event>
 7    1  0.6273950E-006  0.7371154E+02  0.7818608E-02  0.1441283E+00
          2   -1    0    0  502    0  0.00000000000E+00  0.00000000000E+00  0.96460658916E+01  0.96460658916E+01  0.00000000000E+00 0. -1.
          1   -1    0    0  501    0 -0.00000000000E+00 -0.00000000000E+00 -0.37535441264E+04  0.37535441264E+04  0.00000000000E+00 0. -1.
         25    2    1    2    0    0 -0.74795577918E+00  0.80764771279E+02 -0.16736192800E+04  0.16802232392E+04  0.12500052566E+03 0.  0.
          2    1    1    2  501    0  0.32462186902E+02 -0.66064651625E+02 -0.20221201810E+04  0.20234595024E+04  0.00000000000E+00 0. -1.
          1    1    1    2  502    0 -0.31714231123E+02 -0.14700119654E+02 -0.48158599555E+02  0.59507450665E+02  0.00000000000E+00 0. -1.
         22    1    3    3    0    0  0.34132662569E+02  0.21764020001E+02 -0.15961531412E+03  0.16466863613E+03  0.00000000000E+00 0.  1.
         22    1    3    3    0    0 -0.34880618348E+02  0.59000751278E+02 -0.15140039659E+04  0.15155546031E+04  0.00000000000E+00 0.  1.
</event>
<event>
 7    1  0.6273950E-006  0.9216413E+02  0.7818608E-02  0.1320183E+00
          2   -1    0    0  502    0  0.00000000000E+00  0.00000000000E+00  0.65675441674E+02  0.65675441674E+02  0.00000000000E+00 0. -1.
          1   -1    0    0  501    0 -0.00000000000E+00 -0.00000000000E+00 -0.95844427288E+03  0.95844427288E+03  0.00000000000E+00 0. -1.
         25    2    1    2    0    0  0.19282818637E+02 -0.76305534839E+02 -0.53552770518E+03  0.55552705661E+03  0.12500410344E+03 0.  0.
          2    1    1    2  501    0 -0.75117580369E+02 -0.10361704960E+01 -0.36522289318E+03  0.37286926159E+03  0.00000000000E+00 0. -1.
          1    1    1    2  502    0  0.55834761732E+02  0.77341705335E+02  0.79817671588E+01  0.95723396350E+02  0.00000000000E+00 0. -1.
         22    1    3    3    0    0 -0.28317014716E+02  0.23615045551E+02 -0.14554345294E+03  0.15014133473E+03  0.00000000000E+00 0. -1.
         22    1    3    3    0    0  0.47599833353E+02 -0.99920580390E+02 -0.38998425223E+03  0.40538572189E+03  0.00000000000E+00 0. -1.
</event>
<event>
 7    1  0.6273950E-006  0.1055128E+03  0.7818608E-02  0.1317345E+00
          2   -1    0    0  502    0  0.00000000000E+00  0.00000000000E+00  0.34206168014E+03  0.34206168014E+03  0.00000000000E+00 0. -1.
          1   -1    0    0  501    0 -0.00000000000E+00 -0.00000000000E+00 -0.31192714623E+03  0.31192714623E+03  0.00000000000E+00 0. -1.
         25    2    1    2    0    0 -0.57110155416E+02 -0.46728187989E+02 -0.84197864049E+02  0.16780732653E+03  0.12499970049E+03 0.  0.
          2    1    1    2  501    0  0.31547751969E+02 -0.59457725423E+02 -0.16933089823E+03  0.18221809697E+03  0.00000000000E+00 0. -1.
          1    1    1    2  502    0  0.25562403447E+02  0.10618591341E+03  0.28366329619E+03  0.30396340287E+03  0.00000000000E+00 0. -1.
         22    1    3    3    0    0 -0.84701036497E+02 -0.68435220883E+01 -0.83744502299E+02  0.11930733860E+03  0.00000000000E+00 0. -1.
         22    1    3    3    0    0  0.27590881081E+02 -0.39884665901E+02 -0.45336175008E+00  0.48499987935E+02  0.00000000000E+00 0. -1.
</event>
<event>
 7    1  0.6273950E-006  0.2445126E+02  0.7818608E-02  0.1670564E+00
          2   -1    0    0  502    0  0.00000000000E+00  0.00000000000E+00  0.10871475933E+04  0.10871475933E+04  0.00000000000E+00 0. -1.
          1   -1    0    0  501    0 -0.00000000000E+00 -0.00000000000E+00 -0.26837970961E+03  0.26837970961E+03  0.00000000000E+00 0. -1.
         25    2    1    2    0    0  0.11795341374E+01 -0.49788932515E+01  0.67830226003E+03  0.68974255781E+03  0.12499863767E+03 0.  0.
          2    1    1    2  501    0  0.24418200634E+02  0.12711446252E+01 -0.26167414487E+03  0.26281404534E+03  0.00000000000E+00 0. -1.
          1    1    1    2  502    0 -0.25597734771E+02  0.37077486263E+01  0.40213976853E+03  0.40297069975E+03  0.00000000000E+00 0. -1.
         22    1    3    3    0    0 -0.37567761557E+02 -0.39571088858E+02  0.16431899474E+03  0.17314138677E+03  0.00000000000E+00 0.  1.
         22    1    3    3    0    0  0.38747295695E+02  0.34592195607E+02  0.51398326529E+03  0.51660117104E+03  0.00000000000E+00 0.  1.
</event>
<event>
 7    1  0.6273950E-006  0.1956596E+03  0.7818608E-02  0.1271010E+00
          2   -1    0    0  502    0  0.00000000000E+00  0.00000000000E+00  0.40525243598E+03  0.40525243598E+03  0.00000000000E+00 0. -1.
          1   -1    0    0  501    0 -0.00000000000E+00 -0.00000000000E+00 -0.12421918724E+04  0.12421918724E+04  0.00000000000E+00 0. -1.
         25    2    1    2    0    0 -0.14194748548E+03  0.16863689536E+03  0.69263548262E+02  0.26269563596E+03  0.12499626764E+03 0.  0.
          2    1    1    2  501    0  0.86391625249E+02 -0.17450648253E+03 -0.11337981884E+04  0.11503974779E+04  0.00000000000E+00 0. -1.
          1    1    1    2  502    0  0.55555860235E+02  0.58695871727E+01  0.22759520362E+03  0.23435119451E+03  0.00000000000E+00 0. -1.
         22    1    3    3    0    0 -0.10770078729E+03  0.11221487605E+03  0.10497958552E+03  0.18764954401E+03  0.00000000000E+00 0.  1.
         22    1    3    3    0    0 -0.34246698190E+02  0.56422019300E+02 -0.35716037262E+02  0.75046091947E+02  0.00000000000E+00 0.  1.
</event>
<event>
 7    1  0.6273950E-006  0.1345714E+03  0.7818608E-02  0.1279637E+00
          2   -1    0    0  502    0  0.00000000000E+00  0.00000000000E+00  0.88537365011E+03  0.88537365011E+03  0.00000000000E+00 0. -1.
          1   -1    0    0  501    0 -0.00000000000E+00 -0.00000000000E+00 -0.16127881625E+04  0.16127881625E+04  0.00000000000E+00 0. -1.
         25    2    1    2    0    0 -0.75637125019E+02  0.14540774889E+03  0.62197022121E+02  0.21530830824E+03  0.12499923966E+03 0.  0.
          2    1    1    2  501    0  0.10899650417E+03 -0.78484047323E+02 -0.15314134598E+04  0.15372921546E+04  0.00000000000E+00 0. -1.
          1    1    1    2  502    0 -0.33359379152E+02 -0.66923701570E+02  0.74180192528E+03  0.74556134983E+03  0.00000000000E+00 0. -1.
         22    1    3    3    0    0 -0.47568224861E+02  0.21761204032E+02  0.71024805861E+02  0.88208894477E+02  0.00000000000E+00 0.  1.
         22    1    3    3    0    0 -0.28068900158E+02  0.12364654486E+03 -0.88277837393E+01  0.12709941376E+03  0.00000000000E+00 0.  1.
</event>
<event>
 7    1  0.6273950E-006  0.6992975E+02  0.7818608E-02  0.1448016E+00
          2   -1    0    0  502    0  0.00000000000E+00  0.00000000000E+00  0.53616290512E+02  0.53616290512E+02  0.00000000000E+00 0. -1.
          1   -1    0    0  501    0 -0.00000000000E+00 -0.00000000000E+00 -0.19885606845E+04  0.19885606845E+04  0.00000000000E+00 0. -1.
         25    2    1    2    0    0  0.31910517578E+02  0.24258140679E+02 -0.92514158798E+02  0.16059345772E+03  0.12499860225E+03 0.  0.
          2    1    1    2  501    0 -0.66911000263E+02 -0.22405478468E+02 -0.18450848588E+04  0.18464336500E+04  0.00000000000E+00 0. -1.
          1    1    1    2  502    0  0.35000482685E+02 -0.18526622109E+01  0.26546236558E+01  0.35149867315E+02  0.00000000000E+00 0. -1.
         22    1    3    3    0    0 -0.20844199985E+02  0.55924531387E+02 -0.76476407508E+02  0.97008632550E+02  0.00000000000E+00 0.  1.
         22    1    3    3    0    0  0.52754717563E+02 -0.31666390708E+02 -0.16037751290E+02  0.63584825171E+02  0.00000000000E+00 0.  1.
</event>
<event>
 7    1  0.6273950E-006  0.7372853E+02  0.7818608E-02  0.1492344E+00
          2   -1    0    0  502    0  0.00000000000E+00  0.00000000000E+00  0.65545016908E+02  0.65545016908E+02  0.00000000000E+00 0. -1.
          1   -1    0    0  501    0 -0.00000000000E+00 -0.00000000000E+00 -0.11867318796E+04  0.11867318796E+04  0.00000000000E+00 0. -1.
         25    2    1    2    0    0  0.85671224353E+02  0.35342807986E+01 -0.24104595935E+03  0.28474559912E+03  0.12499940750E+03 0.  0.
          2    1    1    2  501    0 -0.71344518855E+02  0.15969403278E+02 -0.91891830008E+03  0.92182205682E+03  0.00000000000E+00 0. -1.
          1    1    1    2  502    0 -0.14326705499E+02 -0.19503684077E+02  0.38777396697E+02  0.45709240615E+02  0.00000000000E+00 0. -1.
         22    1    3    3    0    0  0.41707865589E+02 -0.44304532157E+02 -0.19717248010E+03  0.20634782415E+03  0.00000000000E+00 0. -1.
         22    1    3    3    0    0  0.43963358765E+02  0.47838812956E+02 -0.43873479256E+02  0.78397774974E+02  0.00000000000E+00 0. -1.
</event>
<event>
 7    1  0.6273950E-006  0.4437244E+02  0.7818608E-02  0.1529605E+00
          2   -1    0    0  502    0  0.00000000000E+00  0.00000000000E+00  0.29793031345E+03  0.29793031345E+03  0.00000000000E+00 0. -1.
          1   -1    0    0  501    0 -0.00000000000E+00 -0.00000000000E+00 -0.50663850452E+03  0.50663850452E+03  0.00000000000E+00 0. -1.
         25    2    1    2    0    0  0.12756781631E+02  0.16860723202E+02  0.66289107181E+02  0.14305345310E+03  0.12499210074E+03 0.  0.
          2    1    1    2  501    0 -0.10567278185E+02  0.29404252116E+02 -0.46494934945E+03  0.46599804181E+03  0.00000000000E+00 0. -1.
          1    1    1    2  502    0 -0.21895034458E+01 -0.46264975318E+02  0.18995205120E+03  0.19551732307E+03  0.00000000000E+00 0. -1.
         22    1    3    3    0    0 -0.91227186102E+00 -0.49787778692E+02  0.26075466346E+01  0.49864360484E+02  0.00000000000E+00 0. -1.
         22    1    3    3    0    0  0.13669053492E+02  0.66648501894E+02  0.63681560547E+02  0.93189092611E+02  0.00000000000E+00 0. -1.
</event>
<event>
 7    1  0.6273950E-006  0.1016705E+03  0.7818608E-02  0.1303579E+00
          2   -1    0    0  502    0  0.00000000000E+00  0.00000000000E+00  0.27777956277E+04  0.27777956277E+04  0.00000000000E+00 0. -1.
          1   -1    0    0  501    0 -0.00000000000E+00 -0.00000000000E+00 -0.16078991618E+03  0.16078991618E+03  0.00000000000E+00 0. -1.
         25    2    1    2    0    0 -0.13080389931E+03  0.97528855585E+02  0.11561605832E+04  0.11742887290E+04  0.12500074858E+03 0.  0.
          2    1    1    2  501    0  0.52474026336E+02 -0.86236446768E+02 -0.13384472278E+03  0.16764443923E+03  0.00000000000E+00 0. -1.
          1    1    1    2  502    0  0.78329872972E+02 -0.11292408817E+02  0.15946898512E+04  0.15966523757E+04  0.00000000000E+00 0. -1.
         22    1    3    3    0    0 -0.58315886388E+02  0.33473868669E+02  0.16154459839E+03  0.17497971242E+03  0.00000000000E+00 0. -1.
         22    1    3    3    0    0 -0.72488012920E+02  0.64054986916E+02  0.99461598479E+03  0.99930901655E+03  0.00000000000E+00 0. -1.
</event>
<event>
 7    1  0.6273950E-006  0.1163901E+03  0.7818608E-02  0.1301236E+00
          2   -1    0    0  502    0  0.00000000000E+00  0.00000000000E+00  0.97003302457E+03  0.97003302457E+03  0.00000000000E+00 0. -1.
          1   -1    0    0  501    0 -0.00000000000E+00 -0.00000000000E+00 -0.33820938467E+04  0.33820938467E+04  0.00000000000E+00 0. -1.
         25    2    1    2    0    0 -0.13031782486E+03 -0.19183159240E+02 -0.10760451905E+03  0.21107861189E+03  0.12499887519E+03 0.  0.
          2    1    1    2  501    0  0.23855862946E+02  0.66484116275E+02 -0.32186684855E+04  0.32194434394E+04  0.00000000000E+00 0. -1.
          1    1    1    2  502    0  0.10646196192E+03 -0.47300957035E+02  0.91421218238E+03  0.92160482002E+03  0.00000000000E+00 0. -1.
         22    1    3    3    0    0 -0.14945915072E+03 -0.11454356924E+01 -0.10861057715E+03  0.18475823994E+03  0.00000000000E+00 0. -1.
         22    1    3    3    0    0  0.19141325860E+02 -0.18037723548E+02  0.10060580945E+01  0.26320371945E+02  0.00000000000E+00 0. -1.
</event>
<event>
 7    1  0.6273950E-006  0.7364931E+02  0.7818608E-02  0.1380664E+00
          2   -1    0    0  502    0  0.00000000000E+00  0.00000000000E+00  0.58451820633E+03  0.58451820633E+03  0.00000000000E+00 0. -1.
          1   -1    0    0  501    0 -0.00000000000E+00 -0.00000000000E+00 -0.18116361632E+03  0.18116361632E+03  0.00000000000E+00 0. -1.
         25    2    1    2    0    0 -0.35569830367E+02 -0.15071776228E+02  0.21656556134E+03  0.25301889628E+03  0.12500219296E+03 0.  0.
          2    1    1    2  501    0  0.69273530459E+02 -0.29799822566E+02 -0.15177614604E+03  0.16947816955E+03  0.00000000000E+00 0. -1.
          1    1    1    2  502    0 -0.33703700092E+02  0.44871598795E+02  0.33856517472E+03  0.34318475682E+03  0.00000000000E+00 0. -1.
         22    1    3    3    0    0  0.15348059689E+02 -0.58942678020E+02  0.12879100877E+03  0.14246728105E+03  0.00000000000E+00 0. -1.
         22    1    3    3    0    0 -0.50917890056E+02  0.43870901791E+02  0.87774552569E+02  0.11055161523E+03  0.00000000000E+00 0. -1.
</event>
<event>
 7    1  0.6273950E-006  0.1295194E+03  0.7818608E-02  0.1312923E+00
          2   -1    0    0  502    0  0.00000000000E+00  0.00000000000E+00  0.39851363912E+03  0.39851363912E+03  0.00000000000E+00 0. -1.
          1   -1    0    0  501    0 -0.00000000000E+00 -0.00000000000E+00 -0.20213387592E+04  0.20213387592E+04  0.00000000000E+00 0. -1.
         25    2    1    2    0    0  0.76976276004E+02  0.17794394336E+02 -0.59604948352E+02  0.15943638519E+03  0.12500089407E+03 0.  0.
          2    1    1    2  501    0 -0.13188222058E+03 -0.22654607581E+01 -0.19071899356E+04  0.19117456690E+04  0.00000000000E+00 0. -1.
          1    1    1    2  502    0  0.54905944579E+02 -0.15528933578E+02  0.34396976381E+03  0.34867034422E+03  0.00000000000E+00 0. -1.
         22    1    3    3    0    0  0.31521918024E+02  0.41985931676E+02  0.26728315097E+02  0.58913942344E+02  0.00000000000E+00 0. -1.
         22    1    3    3    0    0  0.45454357980E+02 -0.24191537340E+02 -0.86333263449E+02  0.10052244285E+03  0.00000000000E+00 0. -1.
</event>
<event>
 7    1  0.6273950E-006  0.5944810E+02  0.7818608E-02  0.1403193E+00
          2   -1    0    0  502    0  0.00000000000E+00  0.00000000000E+00  0.83477100970E+03  0.83477100970E+03  0.00000000000E+00 0. -1.
          1   -1    0    0  501    0 -0.00000000000E+00 -0.00000000000E+00 -0.77434237224E+02  0.77434237224E+02  0.00000000000E+00 0. -1.
         25    2    1    2    0    0  0.24963053745E+02 -0.42949026460E+02  0.57928546444E+03  0.59469369317E+03  0.12498466491E+03 0.  0.
          2    1    1    2  501    0  0.50629911063E+02  0.28380918611E+02 -0.50130176386E+02  0.76693539624E+02  0.00000000000E+00 0. -1.
          1    1    1    2  502    0 -0.75592964808E+02  0.14568107849E+02  0.22818148442E+03  0.24081801413E+03  0.00000000000E+00 0. -1.
         22    1    3    3    0    0  0.45583041518E+02  0.31574886511E+02  0.28991621197E+03  0.29517147067E+03  0.00000000000E+00 0. -1.
         22    1    3    3    0    0 -0.20619987773E+02 -0.74523912971E+02  0.28936925247E+03  0.29952222250E+03  0.00000000000E+00 0. -1.
</event>
<event>
 7    1  0.6273950E-006  0.1249151E+03  0.7818608E-02  0.1260336E+00
          2   -1    0    0  502    0  0.00000000000E+00  0.00000000000E+00  0.42963695120E+03  0.42963695120E+03  0.00000000000E+00 0. -1.
          1   -1    0    0  501    0 -0.00000000000E+00 -0.00000000000E+00 -0.74731405279E+03  0.74731405279E+03  0.00000000000E+00 0. -1.
         25    2    1    2    0    0 -0.33120473424E+02  0.37219207860E+01 -0.27148906253E+03  0.30073805976E+03  0.12500500415E+03 0.  0.
          2    1    1    2  501    0 -0.83383701979E+02  0.49732430107E+02 -0.44595359317E+03  0.45639978487E+03  0.00000000000E+00 0. -1.
          1    1    1    2  502    0  0.11650417540E+03 -0.53454350893E+02  0.39976555411E+03  0.41981315936E+03  0.00000000000E+00 0. -1.
         22    1    3    3    0    0  0.40012186497E+02  0.26762531948E+02 -0.68266626176E+02  0.83531673238E+02  0.00000000000E+00 0. -1.
         22    1    3    3    0    0 -0.73132659921E+02 -0.23040611162E+02 -0.20322243635E+03  0.21720638652E+03  0.00000000000E+00 0. -1.
</event>
<event>
 7    1  0.6273950E-006  0.4155102E+02  0.7818608E-02  0.1540723E+00
          2   -1    0    0  502    0  0.00000000000E+00  0.00000000000E+00  0.19068740729E+03  0.19068740729E+03  0.00000000000E+00 0. -1.
          1   -1    0    0  501    0 -0.00000000000E+00 -0.00000000000E+00 -0.12695601913E+04  0.12695601913E+04  0.00000000000E+00 0. -1.
         25    2    1    2    0    0 -0.12185178428E+02  0.58475614396E+02 -0.14814920345E+02  0.13933033712E+03  0.12500233968E+03 0.  0.
          2    1    1    2  501    0 -0.14628285517E+02 -0.27357653211E+02 -0.11889955919E+04  0.11894002461E+04  0.00000000000E+00 0. -1.
          1    1    1    2  502    0  0.26813463946E+02 -0.31117961185E+02  0.12493772829E+03  0.13151701528E+03  0.00000000000E+00 0. -1.
         22    1    3    3    0    0 -0.67407189118E+01 -0.16341232529E+02 -0.52489743951E+02  0.55386337594E+02  0.00000000000E+00 0.  1.
         22    1    3    3    0    0 -0.54444595166E+01  0.74816846925E+02  0.37674823607E+02  0.83943999529E+02  0.00000000000E+00 0.  1.
</event>
<event>
 7    1  0.6273950E-006  0.6353387E+02  0.7818608E-02  0.1397102E+00
          2   -1    0    0  502    0  0.00000000000E+00  0.00000000000E+00  0.10378851745E+04  0.10378851745E+04  0.00000000000E+00 0. -1.
          1   -1    0    0  501    0 -0.00000000000E+00 -0.00000000000E+00 -0.22572986324E+03  0.22572986324E+03  0.00000000000E+00 0. -1.
         25    2    1    2    0    0 -0.37351185275E+02 -0.66959317441E+02 -0.13645564263E+02  0.14727438389E+03  0.12499952597E+03 0.  0.
          2    1    1    2  501    0 -0.24416703212E+02  0.51497096291E+02 -0.13858951246E+03  0.14985052314E+03  0.00000000000E+00 0. -1.
          1    1    1    2  502    0  0.61767888486E+02  0.15462221150E+02  0.96439038799E+03  0.96649013072E+03  0.00000000000E+00 0. -1.
         22    1    3    3    0    0  0.21188622083E+02 -0.66322027444E+02  0.28403214363E+02  0.75195156867E+02  0.00000000000E+00 0. -1.
         22    1    3    3    0    0 -0.58539807358E+02 -0.63728999652E+00 -0.42048778626E+02  0.72079227021E+02  0.00000000000E+00 0. -1.
</event>
<event>
 7    1  0.6273950E-006  0.3080697E+03  0.7818608E-02  0.1197813E+00
          2   -1    0    0  502    0  0.00000000000E+00  0.00000000000E+00  0.19110023164E+04  0.19110023164E+04  0.00000000000E+00 0. -1.
          1   -1    0    0  501    0 -0.00000000000E+00 -0.00000000000E+00 -0.99255512607E+02  0.99255512607E+02  0.00000000000E+00 0. -1.
         25    2    1    2    0    0 -0.24054494792E+03  0.67053709629E+02  0.25826824905E+03  0.38037485733E+03  0.12499788668E+03 0.  0.
          2    1    1    2  501    0 -0.70031604512E+02  0.27340176493E+02  0.46626320801E+02  0.88464256470E+02  0.00000000000E+00 0. -1.
          1    1    1    2  502    0  0.31057655244E+03 -0.94393886123E+02  0.15068522340E+04  0.15414187152E+04  0.00000000000E+00 0. -1.
         22    1    3    3    0    0 -0.67263974578E+01 -0.63912558676E+01  0.71861550311E+02  0.72458091249E+02  0.00000000000E+00 0. -1.
         22    1    3    3    0    0 -0.23381855047E+03  0.73444965497E+02  0.18640669874E+03  0.30791676608E+03  0.00000000000E+00 0. -1.
</event>
<event>
 7    1  0.6273950E-006  0.6851962E+02  0.7818608E-02  0.1422904E+00
          2   -1    0    0  502    0  0.00000000000E+00  0.00000000000E+00  0.63734015135E+03  0.63734015135E+03  0.00000000000E+00 0. -1.
          1   -1    0    0  501    0 -0.00000000000E+00 -0.00000000000E+00 -0.11850026608E+03  0.11850026608E+03  0.00000000000E+00 0. -1.
         25    2    1    2    0    0 -0.51160748444E+02 -0.76859067672E+02  0.16220450285E+03  0.22463506326E+03  0.12500348970E+03 0.  0.
          2    1    1    2  501    0 -0.67421536333E+01  0.42678493278E+02 -0.79196976257E+02  0.90216802606E+02  0.00000000000E+00 0. -1.
          1    1    1    2  502    0  0.57902902077E+02  0.34180574393E+02  0.43583235869E+03  0.44098855157E+03  0.00000000000E+00 0. -1.
         22    1    3    3    0    0  0.22863533329E+02 -0.32792978833E+02 -0.11101585559E+01  0.39991912546E+02  0.00000000000E+00 0. -1.
         22    1    3    3    0    0 -0.74024281773E+02 -0.44066088839E+02  0.16331466140E+03  0.18464315072E+03  0.00000000000E+00 0. -1.
</event>
<event>
 7    1  0.6273950E-006  0.6435979E+02  0.7818608E-02  0.1433315E+00
          2   -1    0    0  502    0  0.00000000000E+00  0.00000000000E+00  0.78640213144E+03  0.78640213144E+03  0.00000000000E+00 0. -1.
          1   -1    0    0  501    0 -0.00000000000E+00 -0.00000000000E+00 -0.25811082139E+03  0.25811082139E+03  0.00000000000E+00 0. -1.
         25    2    1    2    0    0 -0.56791776623E+02 -0.87122975102E+02  0.39405520227E+02  0.16731288841E+03  0.12500035569E+03 0.  0.
          2    1    1    2  501    0  0.28079259731E+02  0.55788060381E+02 -0.18845114215E+03  0.19853106932E+03  0.00000000000E+00 0. -1.
          1    1    1    2  502    0  0.28712516892E+02  0.31334914721E+02  0.67733693197E+03  0.67866899510E+03  0.00000000000E+00 0. -1.
         22    1    3    3    0    0 -0.34930437456E+02 -0.74422320322E+02  0.83059363924E+02  0.11686605649E+03  0.00000000000E+00 0. -1.
         22    1    3    3    0    0 -0.21861339168E+02 -0.12700654780E+02 -0.43653843696E+02  0.50446831928E+02  0.00000000000E+00 0. -1.
</event>
<event>
 7    1  0.6273950E-006  0.1971717E+03  0.7818608E-02  0.1358927E+00
          2   -1    0    0  502    0  0.00000000000E+00  0.00000000000E+00  0.11791919901E+04  0.11791919901E+04  0.00000000000E+00 0. -1.
          1   -1    0    0  501    0 -0.00000000000E+00 -0.00000000000E+00 -0.40351966337E+03  0.40351966337E+03  0.00000000000E+00 0. -1.
         25    2    1    2    0    0 -0.44647180777E+02  0.19362491326E+03  0.25387496573E+03  0.34577686405E+03  0.12500065479E+03 0.  0.
          2    1    1    2  501    0  0.24971386240E+02  0.25015500907E+01 -0.34606294171E+03  0.34697173877E+03  0.00000000000E+00 0. -1.
          1    1    1    2  502    0  0.19675794536E+02 -0.19612646336E+03  0.86786030265E+03  0.88996305060E+03  0.00000000000E+00 0. -1.
         22    1    3    3    0    0 -0.49189426854E+02  0.19604396701E+03  0.26513839055E+03  0.33339346553E+03  0.00000000000E+00 0.  1.
         22    1    3    3    0    0  0.45422460776E+01 -0.24190537408E+01 -0.11263424814E+02  0.12383398523E+02  0.00000000000E+00 0.  1.
</event>
<event>
 7    1  0.6273950E-006  0.1126627E+03  0.7818608E-02  0.1362482E+00
          2   -1    0    0  502    0  0.00000000000E+00  0.00000000000E+00  0.26132412274E+03  0.26132412274E+03  0.00000000000E+00 0. -1.
          1   -1    0    0  501    0 -0.00000000000E+00 -0.00000000000E+00 -0.74909144770E+03  0.74909144770E+03  0.00000000000E+00 0. -1.
         25    2    1    2    0    0  0.67162027387E+02  0.87306234301E+02 -0.13359753698E+03  0.21355563585E+03  0.12499836498E+03 0.  0.
          2    1    1    2  501    0 -0.36529142911E+02  0.21975999113E+02 -0.56010291464E+03  0.56172288347E+03  0.00000000000E+00 0. -1.
          1    1    1    2  502    0 -0.30632884476E+02 -0.10928223341E+03  0.20593312667E+03  0.23513705112E+03  0.00000000000E+00 0. -1.
         22    1    3    3    0    0 -0.15597489671E+02  0.54508145202E+02 -0.10624606669E+03  0.12042693330E+03  0.00000000000E+00 0.  1.
         22    1    3    3    0    0  0.82759517059E+02  0.32798089098E+02 -0.27351470295E+02  0.93128702555E+02  0.00000000000E+00 0.  1.
</event>
<event>
 7    1  0.6273950E-006  0.9629817E+02  0.7818608E-02  0.1440586E+00
          2   -1    0    0  502    0  0.00000000000E+00  0.00000000000E+00  0.86324891624E+03  0.86324891624E+03  0.00000000000E+00 0. -1.
          1   -1    0    0  501    0 -0.00000000000E+00 -0.00000000000E+00 -0.96576550921E+03  0.96576550921E+03  0.00000000000E+00 0. -1.
         25    2    1    2    0    0 -0.67566604057E+01 -0.10957131913E+03  0.28886700674E+03  0.33334695497E+03  0.12499807346E+03 0.  0.
          2    1    1    2  501    0 -0.15791595437E+02  0.94908970671E+02 -0.94074287918E+03  0.94565017418E+03  0.00000000000E+00 0. -1.
          1    1    1    2  502    0  0.22548255842E+02  0.14662348463E+02  0.54935927947E+03  0.55001729631E+03  0.00000000000E+00 0. -1.
         22    1    3    3    0    0  0.66385714566E+01 -0.65643718007E+01 -0.11913090779E+02  0.15135499332E+02  0.00000000000E+00 0.  1.
         22    1    3    3    0    0 -0.13395231862E+02 -0.10300694733E+03  0.30078009752E+03  0.31821145564E+03  0.00000000000E+00 0.  1.
</event>
<event>
 7    1  0.6273950E-006  0.1766658E+03  0.7818608E-02  0.1315231E+00
          2   -1    0    0  502    0  0.00000000000E+00  0.00000000000E+00  0.11182662759E+04  0.11182662759E+04  0.00000000000E+00 0. -1.
          1   -1    0    0  501    0 -0.00000000000E+00 -0.00000000000E+00 -0.25308800481E+03  0.25308800481E+03  0.00000000000E+00 0. -1.
         25    2    1    2    0    0 -0.73036411724E+01 -0.17445331573E+03 -0.97188256277E+02  0.23571710301E+03  0.12501877039E+03 0.  0.
          2    1    1    2  501    0 -0.40760808455E+02  0.41429566750E+01 -0.73831121249E+02  0.84437207798E+02  0.00000000000E+00 0. -1.
          1    1    1    2  502    0  0.48064449627E+02  0.17031035906E+03  0.10361976487E+04  0.10511999699E+04  0.00000000000E+00 0. -1.
         22    1    3    3    0    0 -0.18699130588E+02 -0.96061287395E+02  0.14350031709E+02  0.98910827672E+02  0.00000000000E+00 0.  1.
         22    1    3    3    0    0  0.11395489416E+02 -0.78392028339E+02 -0.11153828799E+03  0.13680627534E+03  0.00000000000E+00 0.  1.
</event>
<event>
 7    1  0.6273950E-006  0.1086394E+03  0.7818608E-02  0.1338660E+00
          2   -1    0    0  502    0  0.00000000000E+00  0.00000000000E+00  0.11135883976E+04  0.11135883976E+04  0.00000000000E+00 0. -1.
          1   -1    0    0  501    0 -0.00000000000E+00 -0.00000000000E+00 -0.30835488034E+02  0.30835488034E+02  0.00000000000E+00 0. -1.
         25    2    1    2    0    0  0.11010366716E+03 -0.60899059346E+02  0.56955212498E+03  0.59652762378E+03  0.12499627959E+03 0.  0.
          2    1    1    2  501    0 -0.57441455333E+01  0.53857579155E+02  0.52358413650E+02  0.75332844897E+02  0.00000000000E+00 0. -1.
          1    1    1    2  502    0 -0.10435952163E+03  0.70414801916E+01  0.46084237094E+03  0.47256341696E+03  0.00000000000E+00 0. -1.
         22    1    3    3    0    0  0.63008459896E+02 -0.67701761848E+02  0.16471609817E+03  0.18890470500E+03  0.00000000000E+00 0.  1.
         22    1    3    3    0    0  0.47095207265E+02  0.68027025012E+01  0.40483602681E+03  0.40762291878E+03  0.00000000000E+00 0.  1.
</event>
<event>
 7    1  0.6273950E-006  0.7754398E+02  0.7818608E-02  0.1488369E+00
          2   -1    0    0  502    0  0.00000000000E+00  0.00000000000E+00  0.87772482282E+02  0.87772482282E+02  0.00000000000E+00 0. -1.
          1   -1    0    0  501    0 -0.00000000000E+00 -0.00000000000E+00 -0.53861219280E+03  0.53861219280E+03  0.00000000000E+00 0. -1.
         25    2    1    2    0    0 -0.91643493414E+02  0.17183998595E+02 -0.15483913450E+03  0.21976007971E+03  0.12500206145E+03 0.  0.
          2    1    1    2  501    0  0.16085248276E+02 -0.17344525761E+02 -0.32487641203E+03  0.32573647459E+03  0.00000000000E+00 0. -1.
          1    1    1    2  502    0  0.75558245138E+02  0.16052716557E+00  0.28875836020E+02  0.80888120779E+02  0.00000000000E+00 0. -1.
         22    1    3    3    0    0  0.11636378505E+02  0.33696572478E+02 -0.35344919483E+01  0.35823971511E+02  0.00000000000E+00 0. -1.
         22    1    3    3    0    0 -0.10327987192E+03 -0.16512573883E+02 -0.15130464255E+03  0.18393610820E+03  0.00000000000E+00 0. -1.
</event>
<event>
 7    1  0.6273950E-006  0.9780606E+02  0.7818608E-02  0.1443701E+00
          2   -1    0    0  502    0  0.00000000000E+00  0.00000000000E+00  0.75746422961E+03  0.75746422961E+03  0.00000000000E+00 0. -1.
          1   -1    0    0  501    0 -0.00000000000E+00 -0.00000000000E+00 -0.19326756642E+03  0.19326756642E+03  0.00000000000E+00 0. -1.
         25    2    1    2    0    0  0.38278669599E+01  0.19843690926E+02 -0.14485856104E+03  0.19240033131E+03  0.12500184058E+03 0.  0.
          2    1    1    2  501    0 -0.99878511774E+02 -0.13965164768E+01  0.99534405360E+02  0.14101335122E+03  0.00000000000E+00 0. -1.
          1    1    1    2  502    0  0.96050644814E+02 -0.18447174449E+02  0.60952081887E+03  0.61731811350E+03  0.00000000000E+00 0. -1.
         22    1    3    3    0    0  0.62630572709E+02 -0.29688459000E+01 -0.61081483691E+02  0.87534852109E+02  0.00000000000E+00 0. -1.
         22    1    3    3    0    0 -0.58802705749E+02  0.22812536826E+02 -0.83777077345E+02  0.10486547920E+03  0.00000000000E+00 0. -1.
</event>
<event>
 7    1  0.6273950E-006  0.3063978E+02  0.7818608E-02  0.1596636E+00
          2   -1    0    0  502    0  0.00000000000E+00  0.00000000000E+00  0.33423573799E+03  0.33423573799E+03  0.00000000000E+00 0. -1.
          1   -1    0    0  501    0 -0.00000000000E+00 -0.00000000000E+00 -0.24618943278E+03  0.24618943278E+03  0.00000000000E+00 0. -1.
         25    2    1    2    0    0  0.18494821832E+02 -0.18829415605E+02  0.18094962541E+03  0.22150636054E+03  0.12500278197E+03 0.  0.
          2    1    1    2  501    0  0.12769747226E+02  0.26739560222E+02 -0.22296145126E+03  0.22492194040E+03  0.00000000000E+00 0. -1.
          1    1    1    2  502    0 -0.31264569058E+02 -0.79101446176E+01  0.13005813107E+03  0.13399686983E+03  0.00000000000E+00 0. -1.
         22    1    3    3    0    0  0.11748960228E+02 -0.34675501655E+02 -0.30164388221E+01  0.36735914098E+02  0.00000000000E+00 0. -1.
         22    1    3    3    0    0  0.67458616040E+01  0.15846086050E+02  0.18396606423E+03  0.18477044645E+03  0.00000000000E+00 0. -1.
</event>
<event>
 7    1  0.6273950E-006  0.6941378E+02  0.7818608E-02  0.1435772E+00
          2   -1    0    0  502    0  0.00000000000E+00  0.00000000000E+00  0.34095788953E+03  0.34095788953E+03  0.00000000000E+00 0. -1.
          1   -1    0    0  501    0 -0.00000000000E+00 -0.00000000000E+00 -0.16328236196E+04  0.16328236196E+04  0.00000000000E+00 0. -1.
         25    2    1    2    0    0  0.54116554948E+02  0.47342056480E+02  0.16912589357E+03  0.22226145009E+03  0.12500684977E+03 0.  0.
          2    1    1    2  501    0 -0.32741768601E+02  0.20600839916E+02 -0.15972767170E+04  0.15977450762E+04  0.00000000000E+00 0. -1.
          1    1    1    2  502    0 -0.21374786347E+02 -0.67942896396E+02  0.13628509336E+03  0.15377498280E+03  0.00000000000E+00 0. -1.
         22    1    3    3    0    0 -0.18262606121E+02 -0.18777623333E+02 -0.66402923426E+00  0.26202344460E+02  0.00000000000E+00 0.  1.
         22    1    3    3    0    0  0.72379161069E+02  0.66119679813E+02  0.16978992280E+03  0.19605910563E+03  0.00000000000E+00 0.  1.
</event>
<event>
 7    1  0.6273950E-006  0.6391836E+02  0.7818608E-02  0.1384072E+00
          2   -1    0    0  502    0  0.00000000000E+00  0.00000000000E+00  0.74686274887E+02  0.74686274887E+02  0.00000000000E+00 0. -1.
          1   -1    0    0  501    0 -0.00000000000E+00 -0.00000000000E+00 -0.80948141974E+03  0.80948141974E+03  0.00000000000E+00 0. -1.
         25    2    1    2    0    0 -0.11010208896E+02  0.72996857323E+01 -0.62376331096E+03  0.63630228056E+03  0.12500165611E+03 0.  0.
          2    1    1    2  501    0 -0.39860782577E+02 -0.48653131121E+02 -0.15610984341E+03  0.16830416622E+03  0.00000000000E+00 0. -1.
          1    1    1    2  502    0  0.50870991473E+02  0.41353445389E+02  0.45078009515E+02  0.79561247858E+02  0.00000000000E+00 0. -1.
         22    1    3    3    0    0  0.14585024679E+01 -0.42676689989E+02 -0.85402835902E+02  0.95483357073E+02  0.00000000000E+00 0.  1.
         22    1    3    3    0    0 -0.12468711364E+02  0.49976375721E+02 -0.53836047506E+03  0.54081892348E+03  0.00000000000E+00 0.  1.
</event>
<event>
 7    1  0.6273950E-006  0.5866147E+02  0.7818608E-02  0.1427991E+00
          2   -1    0    0  502    0  0.00000000000E+00  0.00000000000E+00  0.86373188643E+03  0.86373188643E+03  0.00000000000E+00 0. -1.
          1   -1    0    0  501    0 -0.00000000000E+00 -0.00000000000E+00 -0.19729424315E+04  0.19729424315E+04  0.00000000000E+00 0. -1.
         25    2    1    2    0    0 -0.55738584442E+02 -0.16692651666E+02  0.29598452837E+03  0.32652295839E+03  0.12499986762E+03 0.  0.
          2    1    1    2  501    0  0.29950633454E+02 -0.38207720789E+02 -0.19557062703E+04  0.19563087400E+04  0.00000000000E+00 0. -1.
          1    1    1    2  502    0  0.25787950988E+02  0.54900372455E+02  0.55051119690E+03  0.55384261954E+03  0.00000000000E+00 0. -1.
         22    1    3    3    0    0 -0.28085959669E+02  0.50900658220E+02  0.18280615615E+03  0.19182749767E+03  0.00000000000E+00 0. -1.
         22    1    3    3    0    0 -0.27652624773E+02 -0.67593309886E+02  0.11317837222E+03  0.13469546072E+03  0.00000000000E+00 0. -1.
</event>
<event>
 7    1  0.6273950E-006  0.1421338E+03  0.7818608E-02  0.1363045E+00
          2   -1    0    0  502    0  0.00000000000E+00  0.00000000000E+00  0.21585670668E+04  0.21585670668E+04  0.00000000000E+00 0. -1.
          1   -1    0    0  501    0 -0.00000000000E+00 -0.00000000000E+00 -0.13127431581E+03  0.13127431581E+03  0.00000000000E+00 0. -1.
         25    2    1    2    0    0 -0.11132660622E+03  0.95838057514E+02  0.54408897161E+03  0.57726572724E+03  0.12499745717E+03 0.  0.
          2    1    1    2  501    0  0.27853301366E+02  0.18849517909E+02 -0.10899749637E+03  0.11406824684E+03  0.00000000000E+00 0. -1.
          1    1    1    2  502    0  0.83473304857E+02 -0.11468757542E+03  0.15922012758E+04  0.15985074086E+04  0.00000000000E+00 0. -1.
         22    1    3    3    0    0  0.20678459495E+02  0.56592418965E+01  0.19938926354E+02  0.29277747353E+02  0.00000000000E+00 0. -1.
         22    1    3    3    0    0 -0.13200506572E+03  0.90178815618E+02  0.52415004525E+03  0.54798797989E+03  0.00000000000E+00 0. -1.
</event>
<event>
 7    1  0.6273950E-006  0.9243118E+02  0.7818608E-02  0.1450182E+00
          2   -1    0    0  502    0  0.00000000000E+00  0.00000000000E+00  0.22373589349E+04  0.22373589349E+04  0.00000000000E+00 0. -1.
          1   -1    0    0  501    0 -0.00000000000E+00 -0.00000000000E+00 -0.71682254121E+02  0.71682254121E+02  0.00000000000E+00 0. -1.
         25    2    1    2    0    0 -0.37651533312E+02  0.96834106063E+02  0.44156966216E+03  0.47053511862E+03  0.12500019704E+03 0.  0.
          2    1    1    2  501    0  0.25411035246E+02 -0.59423411587E+01 -0.52977636981E+02  0.59056431917E+02  0.00000000000E+00 0. -1.
          1    1    1    2  502    0  0.12240498066E+02 -0.90891764904E+02  0.17770846556E+04  0.17794496385E+04  0.00000000000E+00 0. -1.
         22    1    3    3    0    0  0.41054800335E+00  0.11861813716E+03  0.31630171876E+03  0.33781238625E+03  0.00000000000E+00 0. -1.
         22    1    3    3    0    0 -0.38062081316E+02 -0.21784031098E+02  0.12526794339E+03  0.13272273237E+03  0.00000000000E+00 0. -1.
</event>
<event>
 7    1  0.6273950E-006  0.4237766E+02  0.7818608E-02  0.1498174E+00
          2   -1    0    0  502    0  0.00000000000E+00  0.00000000000E+00  0.61542593565E+03  0.61542593565E+03  0.00000000000E+00 0. -1.
          1   -1    0    0  501    0 -0.00000000000E+00 -0.00000000000E+00 -0.30130571288E+03  0.30130571288E+03  0.00000000000E+00 0. -1.
         25    2    1    2    0    0  0.78011790489E+01  0.17216451855E+02 -0.21741438735E+03  0.25149104141E+03  0.12498585309E+03 0.  0.
          2    1    1    2  501    0 -0.46470677492E+02 -0.34552424403E+02 -0.53400821643E+02  0.78772086749E+02  0.00000000000E+00 0. -1.
          1    1    1    2  502    0  0.38669498444E+02  0.17335972548E+02  0.58493543176E+03  0.58646852037E+03  0.00000000000E+00 0. -1.
         22    1    3    3    0    0  0.56573489285E+01  0.77995669407E+01 -0.23297650176E+03  0.23317566171E+03  0.00000000000E+00 0. -1.
         22    1    3    3    0    0  0.21438301204E+01  0.94168849139E+01  0.15562114403E+02  0.18315379706E+02  0.00000000000E+00 0. -1.
</event>
<event>
 7    1  0.6273950E-006  0.4238231E+02  0.7818608E-02  0.1590016E+00
          2   -1    0    0  502    0  0.00000000000E+00  0.00000000000E+00  0.78806116558E+03  0.78806116558E+03  0.00000000000E+00 0. -1.
          1   -1    0    0  501    0 -0.00000000000E+00 -0.00000000000E+00 -0.11837669104E+03  0.11837669104E+03  0.00000000000E+00 0. -1.
         25    2    1    2    0    0 -0.59236260570E+02  0.86061988670E+01  0.11700420683E+03  0.18137780266E+03  0.12499968663E+03 0.  0.
          2    1    1    2  501    0  0.17509036761E+02 -0.13810953316E+02 -0.84042189045E+02  0.86950551115E+02  0.00000000000E+00 0. -1.
          1    1    1    2  502    0  0.41727223809E+02  0.52047544494E+01  0.63672245676E+03  0.63810950284E+03  0.00000000000E+00 0. -1.
         22    1    3    3    0    0 -0.78940658889E+02 -0.20296118786E+02  0.28726209870E+02  0.86421960156E+02  0.00000000000E+00 0. -1.
         22    1    3    3    0    0  0.19704398319E+02  0.28902317653E+02  0.88277996958E+02  0.94955842504E+02  0.00000000000E+00 0. -1.
</event>
<event>
 7    1  0.6273950E-006  0.8909900E+02  0.7818608E-02  0.1307061E+00
          2   -1    0    0  502    0  0.00000000000E+00  0.00000000000E+00  0.11094480654E+04  0.11094480654E+04  0.00000000000E+00 0. -1.
          1   -1    0    0  501    0 -0.00000000000E+00 -0.00000000000E+00 -0.21896344764E+03  0.21896344764E+03  0.00000000000E+00 0. -1.
         25    2    1    2    0    0 -0.10786381171E+01  0.65123618816E+02  0.37247041702E+03  0.39825238907E+03  0.12501401784E+03 0.  0.
          2    1    1    2  501    0 -0.86871592873E+02 -0.10273398118E+02 -0.19285808258E+03  0.21176981932E+03  0.00000000000E+00 0. -1.
          1    1    1    2  502    0  0.87950230990E+02 -0.54850220697E+02  0.71087228334E+03  0.71838930467E+03  0.00000000000E+00 0. -1.
         22    1    3    3    0    0 -0.73857701047E+01 -0.36919932265E+02  0.12336228932E+03  0.12898017454E+03  0.00000000000E+00 0. -1.
         22    1    3    3    0    0  0.63071319876E+01  0.10204355108E+03  0.24910812770E+03  0.26927221453E+03  0.00000000000E+00 0. -1.
</event>
<event>
 7    1  0.6273950E-006  0.1087992E+03  0.7818608E-02  0.1443377E+00
          2   -1    0    0  502    0  0.00000000000E+00  0.00000000000E+00  0.80726636731E+03  0.80726636731E+03  0.00000000000E+00 0. -1.
          1   -1    0    0  501    0 -0.00000000000E+00 -0.00000000000E+00 -0.80304246190E+02  0.80304246190E+02  0.00000000000E+00 0. -1.
         25    2    1    2    0    0 -0.52289312268E+02  0.77015392208E+02  0.28417085596E+03  0.32411066888E+03  0.12501642890E+03 0.  0.
          2    1    1    2  501    0 -0.20826078410E+02  0.10483518232E+02 -0.51316961811E+02  0.56365417287E+02  0.00000000000E+00 0. -1.
          1    1    1    2  502    0  0.73115390678E+02 -0.87498910439E+02  0.49410822697E+03  0.50709452733E+03  0.00000000000E+00 0. -1.
         22    1    3    3    0    0 -0.44735145943E+02  0.28027096224E+02  0.21825190963E+02  0.57123465982E+02  0.00000000000E+00 0. -1.
         22    1    3    3    0    0 -0.75541663253E+01  0.48988295984E+02  0.26234566499E+03  0.26698720290E+03  0.00000000000E+00 0. -1.
</event>
<event>
 7    1  0.6273950E-006  0.8730573E+02  0.7818608E-02  0.1364819E+00
          2   -1    0    0  502    0  0.00000000000E+00  0.00000000000E+00  0.68317711813E+03  0.68317711813E+03  0.00000000000E+00 0. -1.
          1   -1    0    0  501    0 -0.00000000000E+00 -0.00000000000E+00 -0.38186331292E+03  0.38186331292E+03  0.00000000000E+00 0. -1.
         25    2    1    2    0    0 -0.13625436433E+02  0.13243434200E+03 -0.42201902054E+02  0.18743078601E+03  0.12499916620E+03 0.  0.
          2    1    1    2  501    0 -0.79799751109E+01 -0.83002154280E+02 -0.25930372424E+03  0.27238109153E+03  0.00000000000E+00 0. -1.
          1    1    1    2  502    0  0.21605411543E+02 -0.49432187718E+02  0.60281943150E+03  0.60522855351E+03  0.00000000000E+00 0. -1.
         22    1    3    3    0    0 -0.69078106036E+02  0.62010672436E+02 -0.17619821387E+02  0.94485799648E+02  0.00000000000E+00 0. -1.
         22    1    3    3    0    0  0.55452669603E+02  0.70423669562E+02 -0.24582080667E+02  0.92944986366E+02  0.00000000000E+00 0. -1.
</event>
<event>
 7    1  0.6273950E-006  0.2011548E+03  0.7818608E-02  0.1359010E+00
          2   -1    0    0  502    0  0.00000000000E+00  0.00000000000E+00  0.11916995443E+04  0.11916995443E+04  0.00000000000E+00 0. -1.
          1   -1    0    0  501    0 -0.00000000000E+00 -0.00000000000E+00 -0.12039310501E+04  0.12039310501E+04  0.00000000000E+00 0. -1.
         25    2    1    2    0    0  0.13682159672E+03  0.12521392226E+03 -0.60044540720E+03  0.64074469801E+03  0.12498162006E+03 0.  0.
          2    1    1    2  501    0 -0.21192680886E+01  0.24490642903E+02 -0.57441679234E+03  0.57494254861E+03  0.00000000000E+00 0. -1.
          1    1    1    2  502    0 -0.13470232863E+03 -0.14970456516E+03  0.11626306937E+04  0.11799433479E+04  0.00000000000E+00 0. -1.
         22    1    3    3    0    0  0.14039072919E+03  0.14358422256E+03 -0.57571010580E+03  0.60972789974E+03  0.00000000000E+00 0.  1.
         22    1    3    3    0    0 -0.35691324747E+01 -0.18370300295E+02 -0.24735301400E+02  0.31016798270E+02  0.00000000000E+00 0.  1.
</event>
<event>
 7    1  0.6273950E-006  0.1339146E+03  0.7818608E-02  0.1245622E+00
          2   -1    0    0  502    0  0.00000000000E+00  0.00000000000E+00  0.10678465288E+04  0.10678465288E+04  0.00000000000E+00 0. -1.
          1   -1    0    0  501    0 -0.00000000000E+00 -0.00000000000E+00 -0.18980943579E+03  0.18980943579E+03  0.00000000000E+00 0. -1.
         25    2    1    2    0    0 -0.18354658728E+03 -0.69691588281E+02  0.20720326185E+03  0.31161905073E+03  0.12500789524E+03 0.  0.
          2    1    1    2  501    0  0.12760064558E+03 -0.18959818819E+02 -0.10303593714E+03  0.16509937560E+03  0.00000000000E+00 0. -1.
          1    1    1    2  502    0  0.55945941704E+02  0.88651407100E+02  0.77386976834E+03  0.78093753830E+03  0.00000000000E+00 0. -1.
         22    1    3    3    0    0 -0.18514676452E+03 -0.94488685773E+02  0.18680888501E+03  0.27947271006E+03  0.00000000000E+00 0.  1.
         22    1    3    3    0    0  0.16001772390E+01  0.24797097492E+02  0.20394376842E+02  0.32146340662E+02  0.00000000000E+00 0.  1.
</event>
<event>
 7    1  0.6273950E-006  0.1280073E+03  0.7818608E-02  0.1392681E+00
          2   -1    0    0  502    0  0.00000000000E+00  0.00000000000E+00  0.86871631258E+03  0.86871631258E+03  0.00000000000E+00 0. -1.
          1   -1    0    0  501    0 -0.00000000000E+00 -0.00000000000E+00 -0.33210083193E+03  0.33210083193E+03  0.00000000000E+00 0. -1.
         25    2    1    2    0    0 -0.10859491942E+03  0.63223916120E+02  0.10666773233E+03  0.20686714381E+03  0.12500355985E+03 0.  0.
          2    1    1    2  501    0  0.12287567260E+03 -0.37637111462E+02 -0.26703639972E+03  0.29635016762E+03  0.00000000000E+00 0. -1.
          1    1    1    2  502    0 -0.14280753182E+02 -0.25586804658E+02  0.69698414804E+03  0.69759983307E+03  0.00000000000E+00 0. -1.
         22    1    3    3    0    0 -0.75677546192E+02 -0.12809322711E+01 -0.26539760713E+01  0.75734901955E+02  0.00000000000E+00 0. -1.
         22    1    3    3    0    0 -0.32917373229E+02  0.64504848391E+02  0.10932170840E+03  0.13113224185E+03  0.00000000000E+00 0. -1.
</event>
<event>
 7    1  0.6273950E-006  0.1071453E+03  0.7818608E-02  0.1307230E+00
          2   -1    0    0  502    0  0.00000000000E+00  0.00000000000E+00  0.47265514275E+03  0.47265514275E+03  0.00000000000E+00 0. -1.
          1   -1    0    0  501    0 -0.00000000000E+00 -0.00000000000E+00 -0.26732914861E+04  0.26732914861E+04  0.00000000000E+00 0. -1.
         25    2    1    2    0    0  0.16694724675E+03 -0.46061302895E+02  0.22180778838E+03  0.30792435118E+03  0.12500273695E+03 0.  0.
          2    1    1    2  501    0 -0.94428162578E+02  0.50089264325E+02 -0.26227642770E+04  0.26249415356E+04  0.00000000000E+00 0. -1.
          1    1    1    2  502    0 -0.72519084168E+02 -0.40279614298E+01  0.20032014530E+03  0.21308074210E+03  0.00000000000E+00 0. -1.
         22    1    3    3    0    0 -0.82392802830E+01 -0.30184575661E+02  0.65570884754E+02  0.72653528991E+02  0.00000000000E+00 0. -1.
         22    1    3    3    0    0  0.17518652703E+03 -0.15876727233E+02  0.15623690362E+03  0.23527082219E+03  0.00000000000E+00 0. -1.
</event>
<event>
 7    1  0.6273950E-006  0.1583741E+03  0.7818608E-02  0.1270040E+00
          2   -1    0    0  502    0  0.00000000000E+00  0.00000000000E+00  0.38157728638E+03  0.38157728638E+03  0.00000000000E+00 0. -1.
          1   -1    0    0  501    0 -0.00000000000E+00 -0.00000000000E+00 -0.14278356586E+04  0.14278356586E+04  0.00000000000E+00 0. -1.
         25    2    1    2    0    0  0.18969342878E+03  0.11646729643E+02  0.17811299152E+03  0.28890971528E+03  0.12500137039E+03 0.  0.
          2    1    1    2  501    0 -0.52116405809E+02 -0.46232265049E+02 -0.13373438305E+04  0.13391572212E+04  0.00000000000E+00 0. -1.
          1    1    1    2  502    0 -0.13757702297E+03  0.34585535406E+02  0.11297246684E+03  0.18134600843E+03  0.00000000000E+00 0. -1.
         22    1    3    3    0    0  0.19206675994E+03  0.42346808053E+02  0.15450981222E+03  0.25011232377E+03  0.00000000000E+00 0.  1.
         22    1    3    3    0    0 -0.23733311611E+01 -0.30700078410E+02  0.23603179300E+02  0.38797391514E+02  0.00000000000E+00 0.  1.
</event>
<event>
 7    1  0.6273950E-006  0.7513159E+02  0.7818608E-02  0.1369969E+00
          2   -1    0    0  502    0  0.00000000000E+00  0.00000000000E+00  0.48724236367E+03  0.48724236367E+03  0.00000000000E+00 0. -1.
          1   -1    0    0  501    0 -0.00000000000E+00 -0.00000000000E+00 -0.29740297601E+04  0.29740297601E+04  0.00000000000E+00 0. -1.
         25    2    1    2    0    0 -0.80884049773E+02 -0.29188655597E+01 -0.20916165917E+03  0.25677172277E+03  0.12502947119E+03 0.  0.
          2    1    1    2  501    0  0.55298611389E+02 -0.51421729481E+02 -0.27385943817E+04  0.27396352527E+04  0.00000000000E+00 0. -1.
          1    1    1    2  502    0  0.25585438384E+02  0.54340595040E+02  0.46096864441E+03  0.46486514825E+03  0.00000000000E+00 0. -1.
         22    1    3    3    0    0 -0.22605384608E+02  0.21626432418E+02 -0.18725158752E+03  0.18984694630E+03  0.00000000000E+00 0. -1.
         22    1    3    3    0    0 -0.58278665165E+02 -0.24545297977E+02 -0.21910071651E+02  0.66924776473E+02  0.00000000000E+00 0. -1.
</event>
<event>
 7    1  0.6273950E-006  0.8412930E+02  0.7818608E-02  0.1364749E+00
          2   -1    0    0  502    0  0.00000000000E+00  0.00000000000E+00  0.95320587441E+03  0.95320587441E+03  0.00000000000E+00 0. -1.
          1   -1    0    0  501    0 -0.00000000000E+00 -0.00000000000E+00 -0.10744305726E+04  0.10744305726E+04  0.00000000000E+00 0. -1.
         25    2    1    2    0    0 -0.11032026354E+03  0.50129250498E+02  0.42108145491E+03  0.45565145997E+03  0.12500063600E+03 0.  0.
          2    1    1    2  501    0  0.31580406616E+02 -0.46266246373E+02 -0.10533791309E+04  0.10548675182E+04  0.00000000000E+00 0. -1.
          1    1    1    2  502    0  0.78739856920E+02 -0.38630041246E+01  0.51107297782E+03  0.51711746879E+03  0.00000000000E+00 0. -1.
         22    1    3    3    0    0 -0.32248890809E+01  0.16174607689E+02 -0.31537202205E+01  0.16791777592E+02  0.00000000000E+00 0. -1.
         22    1    3    3    0    0 -0.10709537446E+03  0.33954642809E+02  0.42423517513E+03  0.43885968237E+03  0.00000000000E+00 0. -1.
</event>
<event>
 7    1  0.6273950E-006  0.5438282E+02  0.7818608E-02  0.1439716E+00
          2   -1    0    0  502    0  0.00000000000E+00  0.00000000000E+00  0.52534278299E+03  0.52534278299E+03  0.00000000000E+00 0. -1.
          1   -1    0    0  501    0 -0.00000000000E+00 -0.00000000000E+00 -0.18529798973E+03  0.18529798973E+03  0.00000000000E+00 0. -1.
         25    2    1    2    0    0 -0.21576566163E+02 -0.10402120499E+02 -0.10109597336E+03  0.16253306331E+03  0.12499139379E+03 0.  0.
          2    1    1    2  501    0  0.27522885382E+02  0.64458867301E+02 -0.28256677301E+02  0.75570461198E+02  0.00000000000E+00 0. -1.
          1    1    1    2  502    0 -0.59463192192E+01 -0.54056746802E+02  0.46939744392E+03  0.47253724821E+03  0.00000000000E+00 0. -1.
         22    1    3    3    0    0  0.36261756211E+01 -0.20237984122E+02  0.25683372774E+02  0.32899252088E+02  0.00000000000E+00 0. -1.
         22    1    3    3    0    0 -0.25202741784E+02  0.98358636223E+01 -0.12677934613E+03  0.12963381123E+03  0.00000000000E+00 0. -1.
</event>
<event>
 7    1  0.6273950E-006  0.8307508E+02  0.7818608E-02  0.1476520E+00
          2   -1    0    0  502    0  0.00000000000E+00  0.00000000000E+00  0.14379249759E+04  0.14379249759E+04  0.00000000000E+00 0. -1.
          1   -1    0    0  501    0 -0.00000000000E+00 -0.00000000000E+00 -0.35952777243E+03  0.35952777243E+03  0.00000000000E+00 0. -1.
         25    2    1    2    0    0 -0.66170253526E+02 -0.27198488402E+02 -0.67463985745E+01  0.14418890078E+03  0.12500665979E+03 0.  0.
          2    1    1    2  501    0  0.44374349007E+00 -0.23996911602E+02 -0.28228306852E+03  0.28330156980E+03  0.00000000000E+00 0. -1.
          1    1    1    2  502    0  0.65726510036E+02  0.51195400004E+02  0.13674266705E+04  0.13699622777E+04  0.00000000000E+00 0. -1.
         22    1    3    3    0    0 -0.10314835045E+03 -0.18227106943E+02  0.34239006238E+01  0.10480235075E+03  0.00000000000E+00 0.  1.
         22    1    3    3    0    0  0.36978096921E+02 -0.89713814586E+01 -0.10170299198E+02  0.39386550027E+02  0.00000000000E+00 0.  1.
</event>
<event>
 7    1  0.6273950E-006  0.5596445E+02  0.7818608E-02  0.1441725E+00
          2   -1    0    0  502    0  0.00000000000E+00  0.00000000000E+00  0.38863269371E+03  0.38863269371E+03  0.00000000000E+00 0. -1.
          1   -1    0    0  501    0 -0.00000000000E+00 -0.00000000000E+00 -0.10433110994E+03  0.10433110994E+03  0.00000000000E+00 0. -1.
         25    2    1    2    0    0  0.30991420371E+02  0.24940297934E+01  0.94485385807E+02  0.15974708476E+03  0.12499981855E+03 0.  0.
          2    1    1    2  501    0  0.43553191710E+01  0.45681435876E+02 -0.60462435064E+02  0.75904337443E+02  0.00000000000E+00 0. -1.
          1    1    1    2  502    0 -0.35346739542E+02 -0.48175465670E+02  0.25027863303E+03  0.25731238144E+03  0.00000000000E+00 0. -1.
         22    1    3    3    0    0 -0.19782871955E+02 -0.47671888524E+02  0.63774831433E+02  0.82043891318E+02  0.00000000000E+00 0. -1.
         22    1    3    3    0    0  0.50774292326E+02  0.50165918318E+02  0.30710554373E+02  0.77703193446E+02  0.00000000000E+00 0. -1.
</event>
<event>
 7    1  0.6273950E-006  0.1156268E+03  0.7818608E-02  0.1339015E+00
          2   -1    0    0  502    0  0.00000000000E+00  0.00000000000E+00  0.10676118173E+04  0.10676118173E+04  0.00000000000E+00 0. -1.
          1   -1    0    0  501    0 -0.00000000000E+00 -0.00000000000E+00 -0.62045998400E+02  0.62045998400E+02  0.00000000000E+00 0. -1.
         25    2    1    2    0    0  0.13767952101E+03  0.61963381731E+02  0.63756114318E+03  0.66701150170E+03  0.12500008366E+03 0.  0.
          2    1    1    2  501    0 -0.11069552631E+03 -0.19001696879E+02  0.23909593170E+02  0.11483132271E+03  0.00000000000E+00 0. -1.
          1    1    1    2  502    0 -0.26983994701E+02 -0.42961684852E+02  0.34409508256E+03  0.34781499130E+03  0.00000000000E+00 0. -1.
         22    1    3    3    0    0 -0.22461822723E+02  0.11636339724E+02  0.12918078852E+03  0.13163439522E+03  0.00000000000E+00 0.  1.
         22    1    3    3    0    0  0.16014134374E+03  0.50327042007E+02  0.50838035467E+03  0.53537710648E+03  0.00000000000E+00 0.  1.
</event>
<event>
 7    1  0.6273950E-006  0.8741663E+02  0.7818608E-02  0.1325537E+00
          2   -1    0    0  502    0  0.00000000000E+00  0.00000000000E+00  0.29350497760E+03  0.29350497760E+03  0.00000000000E+00 0. -1.
          1   -1    0    0  501    0 -0.00000000000E+00 -0.00000000000E+00 -0.39944958158E+03  0.39944958158E+03  0.00000000000E+00 0. -1.
         25    2    1    2    0    0 -0.74807068741E+01  0.63546992035E+02 -0.49002930579E+01  0.14051228848E+03  0.12500203666E+03 0.  0.
          2    1    1    2  501    0  0.75512448164E+02  0.11586624368E+01 -0.31227920737E+03  0.32128145867E+03  0.00000000000E+00 0. -1.
          1    1    1    2  502    0 -0.68031741290E+02 -0.64705654472E+02  0.21123489645E+03  0.23116081204E+03  0.00000000000E+00 0. -1.
         22    1    3    3    0    0  0.36826223988E+02  0.31463583430E+02 -0.50000600408E+02  0.69614566698E+02  0.00000000000E+00 0. -1.
         22    1    3    3    0    0 -0.44306930862E+02  0.32083408606E+02  0.45100307350E+02  0.70897721778E+02  0.00000000000E+00 0. -1.
</event>
<event>
 7    1  0.9721349E-006  0.5481465E+02  0.7818608E-02  0.1425596E+00
          2   -1    0    0  502    0  0.00000000000E+00  0.00000000000E+00  0.20915201438E+04  0.20915201438E+04  0.00000000000E+00 0. -1.
          1   -1    0    0  501    0 -0.00000000000E+00 -0.00000000000E+00 -0.76959528927E+03  0.76959528927E+03  0.00000000000E+00 0. -1.
         25    2    1    2    0    0 -0.20725825584E+02  0.44166410884E+02 -0.61259644029E+02  0.14751647449E+03  0.12501253762E+03 0.  0.
          2    1    1    2  501    0  0.55469754326E+02 -0.42614437202E+01 -0.66370156996E+03  0.66602914915E+03  0.00000000000E+00 0. -1.
          1    1    1    2  502    0 -0.34743928742E+02 -0.39904967163E+02  0.20468860686E+04  0.20475698095E+04  0.00000000000E+00 0. -1.
         22    1    3    3    0    0  0.51400020926E+02  0.38150072468E+01 -0.24303012972E+02  0.56983794811E+02  0.00000000000E+00 0. -1.
         22    1    3    3    0    0 -0.72125846511E+02  0.40351403637E+02 -0.36956631057E+02  0.90532679677E+02  0.00000000000E+00 0. -1.
</event>
<event>
 7    1  0.6273950E-006  0.5166028E+02  0.7818608E-02  0.1471709E+00
          2   -1    0    0  502    0  0.00000000000E+00  0.00000000000E+00  0.13031820565E+04  0.13031820565E+04  0.00000000000E+00 0. -1.
          1   -1    0    0  501    0 -0.00000000000E+00 -0.00000000000E+00 -0.66208728941E+03  0.66208728941E+03  0.00000000000E+00 0. -1.
         25    2    1    2    0    0  0.49548124655E+02 -0.79390073657E+01 -0.52347071256E+03  0.54052356316E+03  0.12500436365E+03 0.  0.
          2    1    1    2  501    0 -0.20091580297E+02 -0.34520285606E+02 -0.12649521827E+03  0.13265127953E+03  0.00000000000E+00 0. -1.
          1    1    1    2  502    0 -0.29456544358E+02  0.42459292972E+02  0.12910606979E+04  0.12920945032E+04  0.00000000000E+00 0. -1.
         22    1    3    3    0    0  0.73808092582E+02 -0.23505121505E+02 -0.49113361838E+03  0.49720454179E+03  0.00000000000E+00 0. -1.
         22    1    3    3    0    0 -0.24259967927E+02  0.15566114139E+02 -0.32337094177E+02  0.43319021376E+02  0.00000000000E+00 0. -1.
</event>
<event>
 7    1  0.6273950E-006  0.1401978E+03  0.7818608E-02  0.1229170E+00
          2   -1    0    0  502    0  0.00000000000E+00  0.00000000000E+00  0.22899879752E+04  0.22899879752E+04  0.00000000000E+00 0. -1.
          1   -1    0    0  501    0 -0.00000000000E+00 -0.00000000000E+00 -0.94940575994E+03  0.94940575994E+03  0.00000000000E+00 0. -1.
         25    2    1    2    0    0 -0.16769387980E+03 -0.19118576769E+03  0.23477545137E+03  0.36799139226E+03  0.12499966848E+03 0.  0.
          2    1    1    2  501    0  0.10324882017E+03  0.91833867622E+02 -0.87561190421E+03  0.88644795950E+03  0.00000000000E+00 0. -1.
          1    1    1    2  502    0  0.64445059634E+02  0.99351900071E+02  0.19814186681E+04  0.19849543834E+04  0.00000000000E+00 0. -1.
         22    1    3    3    0    0 -0.15939022658E+03 -0.15557348242E+03  0.24390658186E+03  0.33030103457E+03  0.00000000000E+00 0. -1.
         22    1    3    3    0    0 -0.83036532155E+01 -0.35612285268E+02 -0.91311304876E+01  0.37690357689E+02  0.00000000000E+00 0. -1.
</event>
<event>
 7    1  0.6273950E-006  0.5393153E+02  0.7818608E-02  0.1515765E+00
          2   -1    0    0  502    0  0.00000000000E+00  0.00000000000E+00  0.30021741964E+03  0.30021741964E+03  0.00000000000E+00 0. -1.
          1   -1    0    0  501    0 -0.00000000000E+00 -0.00000000000E+00 -0.30094975596E+04  0.30094975596E+04  0.00000000000E+00 0. -1.
         25    2    1    2    0    0  0.68490600265E+02  0.19155416865E+02 -0.66188608198E+03  0.67733028383E+03  0.12500094222E+03 0.  0.
          2    1    1    2  501    0 -0.43146836187E+02 -0.31500222414E+02 -0.23389044171E+04  0.23395144338E+04  0.00000000000E+00 0. -1.
          1    1    1    2  502    0 -0.25343764078E+02  0.12344805549E+02  0.29151035918E+03  0.29287026157E+03  0.00000000000E+00 0. -1.
         22    1    3    3    0    0  0.10701519104E+02  0.67516766688E+02 -0.32756572223E+03  0.33462268106E+03  0.00000000000E+00 0. -1.
         22    1    3    3    0    0  0.57789081161E+02 -0.48361349823E+02 -0.33432035975E+03  0.34270760278E+03  0.00000000000E+00 0. -1.
</event>
<event>
 7    1  0.6273950E-006  0.1285536E+03  0.7818608E-02  0.1319491E+00
          2   -1    0    0  502    0  0.00000000000E+00  0.00000000000E+00  0.29449968515E+04  0.29449968515E+04  0.00000000000E+00 0. -1.
          1   -1    0    0  501    0 -0.00000000000E+00 -0.00000000000E+00 -0.87466240640E+03  0.87466240640E+03  0.00000000000E+00 0. -1.
         25    2    1    2    0    0 -0.99846071993E+02 -0.11182926096E+03 -0.34789916106E+03  0.39891572791E+03  0.12499964003E+03 0.  0.
          2    1    1    2  501    0  0.10949957818E+03  0.58502650458E+02 -0.49331187132E+03  0.50869373902E+03  0.00000000000E+00 0. -1.
          1    1    1    2  502    0 -0.96535061855E+01  0.53326610499E+02  0.29115454775E+04  0.29120497910E+04  0.00000000000E+00 0. -1.
         22    1    3    3    0    0  0.17800861754E+02 -0.37541012162E+02 -0.15878915413E+03  0.16413468172E+03  0.00000000000E+00 0. -1.
         22    1    3    3    0    0 -0.11764693375E+03 -0.74288248795E+02 -0.18911000693E+03  0.23478104619E+03  0.00000000000E+00 0. -1.
</event>
<event>
 7    1  0.6273950E-006  0.6557221E+02  0.7818608E-02  0.1500645E+00
          2   -1    0    0  502    0  0.00000000000E+00  0.00000000000E+00  0.26599878535E+03  0.26599878535E+03  0.00000000000E+00 0. -1.
          1   -1    0    0  501    0 -0.00000000000E+00 -0.00000000000E+00 -0.12802447561E+04  0.12802447561E+04  0.00000000000E+00 0. -1.
         25    2    1    2    0    0 -0.25168914613E+02  0.42608351693E+02  0.17478511954E+03  0.22050789380E+03  0.12499978928E+03 0.  0.
          2    1    1    2  501    0  0.11844208693E+02 -0.64578069577E+02 -0.12540791595E+04  0.12557966199E+04  0.00000000000E+00 0. -1.
          1    1    1    2  502    0  0.13324705920E+02  0.21969717884E+02  0.65048069205E+02  0.69939027725E+02  0.00000000000E+00 0. -1.
         22    1    3    3    0    0  0.13594302638E+02 -0.26656224526E+02  0.15594727420E+01  0.29963166145E+02  0.00000000000E+00 0.  1.
         22    1    3    3    0    0 -0.38763217252E+02  0.69264576220E+02  0.17322564679E+03  0.19054472766E+03  0.00000000000E+00 0.  1.
</event>
<event>
 7    1  0.6273950E-006  0.4465076E+02  0.7818608E-02  0.1551576E+00
          2   -1    0    0  502    0  0.00000000000E+00  0.00000000000E+00  0.53320881855E+03  0.53320881855E+03  0.00000000000E+00 0. -1.
          1   -1    0    0  501    0 -0.00000000000E+00 -0.00000000000E+00 -0.64519193061E+03  0.64519193061E+03  0.00000000000E+00 0. -1.
         25    2    1    2    0    0  0.37950183580E+02 -0.10687600763E+02 -0.24451005024E+03  0.27742243499E+03  0.12499440598E+03 0.  0.
          2    1    1    2  501    0  0.38030063246E+01  0.26645863097E+02 -0.38278562254E+03  0.38373076199E+03  0.00000000000E+00 0. -1.
          1    1    1    2  502    0 -0.41753189905E+02 -0.15958262334E+02  0.51531256071E+03  0.51724755217E+03  0.00000000000E+00 0. -1.
         22    1    3    3    0    0 -0.29067474570E+02 -0.16668378256E+02 -0.12353387867E+02  0.35712170242E+02  0.00000000000E+00 0. -1.
         22    1    3    3    0    0  0.67017658151E+02  0.59807774924E+01 -0.23215666237E+03  0.24171026475E+03  0.00000000000E+00 0. -1.
</event>
<event>
 7    1  0.6273950E-006  0.2884374E+03  0.7818608E-02  0.1298400E+00
          2   -1    0    0  502    0  0.00000000000E+00  0.00000000000E+00  0.21501813850E+04  0.21501813850E+04  0.00000000000E+00 0. -1.
          1   -1    0    0  501    0 -0.00000000000E+00 -0.00000000000E+00 -0.22546754177E+03  0.22546754177E+03  0.00000000000E+00 0. -1.
         25    2    1    2    0    0 -0.99743693524E+02 -0.29426082034E+03  0.29521207419E+03  0.44644864361E+03  0.12501195085E+03 0.  0.
          2    1    1    2  501    0  0.21183600936E+02  0.20180757189E+02 -0.13687174682E+03  0.13996386314E+03  0.00000000000E+00 0. -1.
          1    1    1    2  502    0  0.78560092587E+02  0.27408006315E+03  0.17663735159E+04  0.17892364200E+04  0.00000000000E+00 0. -1.
         22    1    3    3    0    0 -0.73696774805E+02 -0.96401296163E+02  0.17667478266E+03  0.21433245985E+03  0.00000000000E+00 0.  1.
         22    1    3    3    0    0 -0.26046918719E+02 -0.19785952417E+03  0.11853729153E+03  0.23211618376E+03  0.00000000000E+00 0.  1.
</event>
<event>
 7    1  0.6273950E-006  0.6134452E+02  0.7818608E-02  0.1416949E+00
          2   -1    0    0  502    0  0.00000000000E+00  0.00000000000E+00  0.12821658044E+04  0.12821658044E+04  0.00000000000E+00 0. -1.
          1   -1    0    0  501    0 -0.00000000000E+00 -0.00000000000E+00 -0.16585222343E+03  0.16585222343E+03  0.00000000000E+00 0. -1.
         25    2    1    2    0    0 -0.51076462105E+02 -0.87296900339E+02 -0.25982683464E+02  0.16287967575E+03  0.12500054057E+03 0.  0.
          2    1    1    2  501    0  0.23466842069E+01  0.50468932514E+02 -0.61613761921E+02  0.79679832667E+02  0.00000000000E+00 0. -1.
          1    1    1    2  502    0  0.48729777898E+02  0.36827967825E+02  0.12039100263E+04  0.12054585194E+04  0.00000000000E+00 0. -1.
         22    1    3    3    0    0 -0.22001337890E+02 -0.32690209000E+02 -0.74486755525E+02  0.84267344696E+02  0.00000000000E+00 0.  1.
         22    1    3    3    0    0 -0.29075124215E+02 -0.54606691339E+02  0.48504072061E+02  0.78612331053E+02  0.00000000000E+00 0.  1.
</event>
<event>
 7    1  0.6273950E-006  0.7509541E+02  0.7818608E-02  0.1361349E+00
          2   -1    0    0  502    0  0.00000000000E+00  0.00000000000E+00  0.38405882237E+03  0.38405882237E+03  0.00000000000E+00 0. -1.
          1   -1    0    0  501    0 -0.00000000000E+00 -0.00000000000E+00 -0.20231543748E+03  0.20231543748E+03  0.00000000000E+00 0. -1.
         25    2    1    2    0    0 -0.25888519051E+02 -0.49350250959E+01  0.80872827013E+02  0.15119605045E+03  0.12500104652E+03 0.  0.
          2    1    1    2  501    0 -0.37284252403E+02 -0.52712645793E+02 -0.15365481606E+03  0.16666895633E+03  0.00000000000E+00 0. -1.
          1    1    1    2  502    0  0.63172771454E+02  0.57647670889E+02  0.25452537394E+03  0.26850925308E+03  0.00000000000E+00 0. -1.
         22    1    3    3    0    0 -0.80563667147E+01  0.54048593072E+02  0.69705505748E+02  0.88572077933E+02  0.00000000000E+00 0. -1.
         22    1    3    3    0    0 -0.17832152336E+02 -0.58983618168E+02  0.11167321265E+02  0.62623972514E+02  0.00000000000E+00 0. -1.
</event>
<event>
 7    1  0.6273950E-006  0.7937451E+02  0.7818608E-02  0.1418652E+00
          2   -1    0    0  502    0  0.00000000000E+00  0.00000000000E+00  0.23551056459E+04  0.23551056459E+04  0.00000000000E+00 0. -1.
          1   -1    0    0  501    0 -0.00000000000E+00 -0.00000000000E+00 -0.14107749489E+03  0.14107749489E+03  0.00000000000E+00 0. -1.
         25    2    1    2    0    0 -0.44809674363E+02 -0.12654308967E+02  0.41744125298E+03  0.43823535655E+03  0.12499995837E+03 0.  0.
          2    1    1    2  501    0 -0.37377239928E+02  0.93843816148E+01 -0.12694117595E+03  0.13266192684E+03  0.00000000000E+00 0. -1.
          1    1    1    2  502    0  0.82186914291E+02  0.32699273524E+01  0.19235280740E+04  0.19252858574E+04  0.00000000000E+00 0. -1.
         22    1    3    3    0    0 -0.16888849641E+02 -0.36032913079E+02  0.39151686680E+03  0.39353406594E+03  0.00000000000E+00 0. -1.
         22    1    3    3    0    0 -0.27920824722E+02  0.23378604112E+02  0.25924386172E+02  0.44701290605E+02  0.00000000000E+00 0. -1.
</event>
<event>
 7    1  0.6273950E-006  0.7293163E+02  0.7818608E-02  0.1479977E+00
          2   -1    0    0  502    0  0.00000000000E+00  0.00000000000E+00  0.18864477078E+03  0.18864477078E+03  0.00000000000E+00 0. -1.
          1   -1    0    0  501    0 -0.00000000000E+00 -0.00000000000E+00 -0.56428256728E+03  0.56428256728E+03  0.00000000000E+00 0. -1.
         25    2    1    2    0    0  0.69477435198E+01 -0.77722568788E+02 -0.10996097563E+03  0.18386150429E+03  0.12499827102E+03 0.  0.
          2    1    1    2  501    0 -0.30904885203E+02  0.65984817534E+02 -0.41298394690E+03  0.41936243093E+03  0.00000000000E+00 0. -1.
          1    1    1    2  502    0  0.23957141684E+02  0.11737751255E+02  0.14730712603E+03  0.14970340284E+03  0.00000000000E+00 0. -1.
         22    1    3    3    0    0  0.13573964350E+02 -0.41997475334E+02 -0.13347437581E+03  0.14058253604E+03  0.00000000000E+00 0.  1.
         22    1    3    3    0    0 -0.66262208297E+01 -0.35725093455E+02  0.23513400173E+02  0.43278968247E+02  0.00000000000E+00 0.  1.
</event>
<event>
 7    1  0.6273950E-006  0.9179783E+02  0.7818608E-02  0.1338789E+00
          2   -1    0    0  502    0  0.00000000000E+00  0.00000000000E+00  0.26681351198E+04  0.26681351198E+04  0.00000000000E+00 0. -1.
          1   -1    0    0  501    0 -0.00000000000E+00 -0.00000000000E+00 -0.25184060953E+02  0.25184060953E+02  0.00000000000E+00 0. -1.
         25    2    1    2    0    0  0.54384334530E+01  0.10993459633E+03  0.21520274920E+04  0.21584630168E+04  0.12500030508E+03 0.  0.
          2    1    1    2  501    0 -0.48527066733E+02 -0.41769488907E+02  0.37258293191E+02  0.74079327891E+02  0.00000000000E+00 0. -1.
          1    1    1    2  502    0  0.43088633280E+02 -0.68165107419E+02  0.45366527358E+03  0.46077683605E+03  0.00000000000E+00 0. -1.
         22    1    3    3    0    0  0.15757573613E+02 -0.24836931064E+02  0.52890140319E+03  0.52971866927E+03  0.00000000000E+00 0.  1.
         22    1    3    3    0    0 -0.10319140160E+02  0.13477152739E+03  0.16231260889E+04  0.16287443475E+04  0.00000000000E+00 0.  1.
</event>
<event>
 7    1  0.6273950E-006  0.1233037E+03  0.7818608E-02  0.1248709E+00
          2   -1    0    0  502    0  0.00000000000E+00  0.00000000000E+00  0.10992754922E+04  0.10992754922E+04  0.00000000000E+00 0. -1.
          1   -1    0    0  501    0 -0.00000000000E+00 -0.00000000000E+00 -0.54679012618E+03  0.54679012618E+03  0.00000000000E+00 0. -1.
         25    2    1    2    0    0  0.21006899141E+03 -0.36393589614E+02  0.13867209948E+02  0.24752867999E+03  0.12499869353E+03 0.  0.
          2    1    1    2  501    0 -0.10220477717E+03  0.59809995558E+02 -0.41857363312E+03  0.43500222803E+03  0.00000000000E+00 0. -1.
          1    1    1    2  502    0 -0.10786421424E+03 -0.23416405944E+02  0.95719178923E+03  0.96353471040E+03  0.00000000000E+00 0. -1.
         22    1    3    3    0    0  0.12902885294E+03 -0.62859218376E+02  0.53940988607E+02  0.15332761160E+03  0.00000000000E+00 0.  1.
         22    1    3    3    0    0  0.81040138470E+02  0.26465628762E+02 -0.40073778659E+02  0.94201068386E+02  0.00000000000E+00 0.  1.
</event>
<event>
 7    1  0.6273950E-006  0.1038237E+03  0.7818608E-02  0.1314061E+00
          2   -1    0    0  502    0  0.00000000000E+00  0.00000000000E+00  0.11789893325E+04  0.11789893325E+04  0.00000000000E+00 0. -1.
          1   -1    0    0  501    0 -0.00000000000E+00 -0.00000000000E+00 -0.17217345881E+03  0.17217345881E+03  0.00000000000E+00 0. -1.
         25    2    1    2    0    0  0.89861842382E+02 -0.98325030158E+02  0.25394624937E+03  0.31282000322E+03  0.12499877828E+03 0.  0.
          2    1    1    2  501    0 -0.19467779194E+02  0.10122853691E+03 -0.12252332544E+03  0.16011925677E+03  0.00000000000E+00 0. -1.
          1    1    1    2  502    0 -0.70394063188E+02 -0.29035067505E+01  0.87539294975E+03  0.87822353132E+03  0.00000000000E+00 0. -1.
         22    1    3    3    0    0  0.17753606247E+02  0.20802290785E+02  0.10673194891E+03  0.11018001068E+03  0.00000000000E+00 0.  1.
         22    1    3    3    0    0  0.72108236135E+02 -0.11912732094E+03  0.14721430046E+03  0.20263999254E+03  0.00000000000E+00 0.  1.
</event>
<event>
 7    1  0.6273950E-006  0.1741377E+03  0.7818608E-02  0.1265362E+00
          2   -1    0    0  502    0  0.00000000000E+00  0.00000000000E+00  0.46164123927E+03  0.46164123927E+03  0.00000000000E+00 0. -1.
          1   -1    0    0  501    0 -0.00000000000E+00 -0.00000000000E+00 -0.39571763659E+04  0.39571763659E+04  0.00000000000E+00 0. -1.
         25    2    1    2    0    0  0.23921371577E+02  0.13130807722E+03 -0.91159310804E+03  0.92975304653E+03  0.12499875892E+03 0.  0.
          2    1    1    2  501    0 -0.76227322278E+02 -0.17205456962E+03 -0.30311410367E+04  0.30369770108E+04  0.00000000000E+00 0. -1.
          1    1    1    2  502    0  0.52305950701E+02  0.40746492401E+02  0.44719901813E+03  0.45208754787E+03  0.00000000000E+00 0. -1.
         22    1    3    3    0    0  0.25140913456E+02  0.95615589840E+02 -0.27627420835E+03  0.29343115845E+03  0.00000000000E+00 0.  1.
         22    1    3    3    0    0 -0.12195418782E+01  0.35692487378E+02 -0.63531889969E+03  0.63632188807E+03  0.00000000000E+00 0.  1.
</event>
<event>
 7    1  0.6273950E-006  0.1382353E+03  0.7818608E-02  0.1351942E+00
          2   -1    0    0  502    0  0.00000000000E+00  0.00000000000E+00  0.18107845928E+03  0.18107845928E+03  0.00000000000E+00 0. -1.
          1   -1    0    0  501    0 -0.00000000000E+00 -0.00000000000E+00 -0.12211695761E+04  0.12211695761E+04  0.00000000000E+00 0. -1.
         25    2    1    2    0    0 -0.94760863204E+02  0.40341789422E+02 -0.55985330570E+03  0.58281030657E+03  0.12500019350E+03 0.  0.
          2    1    1    2  501    0 -0.37586007791E+02  0.54253651981E+01 -0.62025098114E+03  0.62141244127E+03  0.00000000000E+00 0. -1.
          1    1    1    2  502    0  0.13234687100E+03 -0.45767154620E+02  0.14001317004E+03  0.19802528750E+03  0.00000000000E+00 0. -1.
         22    1    3    3    0    0 -0.33009480727E+02 -0.42868454373E+02 -0.13353064527E+03  0.14407554762E+03  0.00000000000E+00 0.  1.
         22    1    3    3    0    0 -0.61751382477E+02  0.83210243794E+02 -0.42632266043E+03  0.43873475894E+03  0.00000000000E+00 0.  1.
</event>
<event>
 7    1  0.6273950E-006  0.8614309E+02  0.7818608E-02  0.1324705E+00
          2   -1    0    0  502    0  0.00000000000E+00  0.00000000000E+00  0.22001578909E+04  0.22001578909E+04  0.00000000000E+00 0. -1.
          1   -1    0    0  501    0 -0.00000000000E+00 -0.00000000000E+00 -0.15804783742E+03  0.15804783742E+03  0.00000000000E+00 0. -1.
         25    2    1    2    0    0 -0.19624851659E+02 -0.99357584013E+02  0.81309441634E+02  0.18025346312E+03  0.12499208520E+03 0.  0.
          2    1    1    2  501    0 -0.52154844761E+02  0.70928085000E+02 -0.89882432198E+02  0.12581642457E+03  0.00000000000E+00 0. -1.
          1    1    1    2  502    0  0.71779696420E+02  0.28429499013E+02  0.20506830440E+04  0.20521358406E+04  0.00000000000E+00 0. -1.
         22    1    3    3    0    0  0.46166156620E+02 -0.76190245878E+02  0.59669935369E+02  0.10722298621E+03  0.00000000000E+00 0.  1.
         22    1    3    3    0    0 -0.65791008279E+02 -0.23167338135E+02  0.21639506265E+02  0.73030476913E+02  0.00000000000E+00 0.  1.
</event>
<event>
 7    1  0.6273950E-006  0.1190861E+03  0.7818608E-02  0.1298986E+00
          2   -1    0    0  502    0  0.00000000000E+00  0.00000000000E+00  0.14599678530E+04  0.14599678530E+04  0.00000000000E+00 0. -1.
          1   -1    0    0  501    0 -0.00000000000E+00 -0.00000000000E+00 -0.63886670178E+02  0.63886670178E+02  0.00000000000E+00 0. -1.
         25    2    1    2    0    0 -0.76062439109E+02  0.27576236303E+01  0.46100205602E+03  0.48367505458E+03  0.12500225452E+03 0.  0.
          2    1    1    2  501    0 -0.58592800249E+02 -0.39173345316E+02 -0.21340024826E+02  0.73641454928E+02  0.00000000000E+00 0. -1.
          1    1    1    2  502    0  0.13465523936E+03  0.36415721686E+02  0.95641915164E+03  0.96653801368E+03  0.00000000000E+00 0. -1.
         22    1    3    3    0    0 -0.67479382635E+00  0.88232712194E+01  0.34550517583E+03  0.34561847749E+03  0.00000000000E+00 0. -1.
         22    1    3    3    0    0 -0.75387645282E+02 -0.60656475891E+01  0.11549688019E+03  0.13805657708E+03  0.00000000000E+00 0. -1.
</event>
<event>
 7    1  0.6273950E-006  0.7338777E+02  0.7818608E-02  0.1428512E+00
          2   -1    0    0  502    0  0.00000000000E+00  0.00000000000E+00  0.38847384592E+03  0.38847384592E+03  0.00000000000E+00 0. -1.
          1   -1    0    0  501    0 -0.00000000000E+00 -0.00000000000E+00 -0.27211681405E+03  0.27211681405E+03  0.00000000000E+00 0. -1.
         25    2    1    2    0    0  0.32091569012E+02 -0.54657409407E+02 -0.43268101298E+02  0.14667658580E+03  0.12499836410E+03 0.  0.
          2    1    1    2  501    0 -0.66553663369E+02  0.37153969406E+02 -0.16775532551E+03  0.18425975357E+03  0.00000000000E+00 0. -1.
          1    1    1    2  502    0  0.34462094357E+02  0.17503440001E+02  0.32738045868E+03  0.32965432059E+03  0.00000000000E+00 0. -1.
         22    1    3    3    0    0  0.29550217076E+02 -0.88033662852E+02 -0.58657458796E+02  0.10983550699E+03  0.00000000000E+00 0.  1.
         22    1    3    3    0    0  0.25413519363E+01  0.33376253445E+02  0.15389357498E+02  0.36841078810E+02  0.00000000000E+00 0.  1.
</event>
<event>
 7    1  0.6273950E-006  0.9517737E+02  0.7818608E-02  0.1346212E+00
          2   -1    0    0  502    0  0.00000000000E+00  0.00000000000E+00  0.12792271952E+04  0.12792271952E+04  0.00000000000E+00 0. -1.
          1   -1    0    0  501    0 -0.00000000000E+00 -0.00000000000E+00 -0.34988988229E+03  0.34988988229E+03  0.00000000000E+00 0. -1.
         25    2    1    2    0    0  0.18998515323E+02  0.58213727638E+02  0.38158403054E+02  0.14432799950E+03  0.12499890418E+03 0.  0.
          2    1    1    2  501    0 -0.46406928217E+02  0.34661768388E+02 -0.29198210621E+03  0.29767195286E+03  0.00000000000E+00 0. -1.
          1    1    1    2  502    0  0.27408412894E+02 -0.92875496026E+02  0.11831610160E+04  0.11871171251E+04  0.00000000000E+00 0. -1.
         22    1    3    3    0    0 -0.40615618132E+02  0.51363868148E+02  0.50955878014E+02  0.82972145275E+02  0.00000000000E+00 0.  1.
         22    1    3    3    0    0  0.59614133455E+02  0.68498594898E+01 -0.12797474960E+02  0.61355854227E+02  0.00000000000E+00 0.  1.
</event>
<event>
 7    1  0.6273950E-006  0.6265527E+02  0.7818608E-02  0.1410460E+00
          2   -1    0    0  502    0  0.00000000000E+00  0.00000000000E+00  0.14765556757E+04  0.14765556757E+04  0.00000000000E+00 0. -1.
          1   -1    0    0  501    0 -0.00000000000E+00 -0.00000000000E+00 -0.54495033311E+03  0.54495033311E+03  0.00000000000E+00 0. -1.
         25    2    1    2    0    0  0.34089868006E+01  0.21802409562E+02  0.85921900588E+03  0.86853631527E+03  0.12494424606E+03 0.  0.
          2    1    1    2  501    0  0.62651580436E+02 -0.67950020876E+00 -0.53649994681E+03  0.54014616094E+03  0.00000000000E+00 0. -1.
          1    1    1    2  502    0 -0.66060567237E+02 -0.21122909354E+02  0.60888628352E+03  0.61282353259E+03  0.00000000000E+00 0. -1.
         22    1    3    3    0    0 -0.19984589474E+00  0.73759377235E+02  0.55698393400E+03  0.56184658796E+03  0.00000000000E+00 0.  1.
         22    1    3    3    0    0  0.36088326953E+01 -0.51956967673E+02  0.30223507188E+03  0.30668972731E+03  0.00000000000E+00 0.  1.
</event>
<event>
 7    1  0.6273950E-006  0.3039238E+03  0.7818608E-02  0.1200256E+00
          2   -1    0    0  502    0  0.00000000000E+00  0.00000000000E+00  0.13751341259E+04  0.13751341259E+04  0.00000000000E+00 0. -1.
          1   -1    0    0  501    0 -0.00000000000E+00 -0.00000000000E+00 -0.23263327731E+03  0.23263327731E+03  0.00000000000E+00 0. -1.
         25    2    1    2    0    0 -0.33923713003E+03  0.79940392064E+02  0.60759295071E+03  0.71152425992E+03  0.12500112812E+03 0.  0.
          2    1    1    2  501    0  0.61312231484E+02 -0.41802188458E+02 -0.14381470861E+03  0.16183103257E+03  0.00000000000E+00 0. -1.
          1    1    1    2  502    0  0.27792489855E+03 -0.38138203605E+02  0.67872260652E+03  0.73441211074E+03  0.00000000000E+00 0. -1.
         22    1    3    3    0    0 -0.37070955156E+02  0.21282852520E+02  0.17787263325E+03  0.18293684480E+03  0.00000000000E+00 0.  1.
         22    1    3    3    0    0 -0.30216617488E+03  0.58657539544E+02  0.42972031746E+03  0.52858741512E+03  0.00000000000E+00 0.  1.
</event>
<event>
 7    1  0.6273950E-006  0.8712321E+02  0.7818608E-02  0.1333366E+00
          2   -1    0    0  502    0  0.00000000000E+00  0.00000000000E+00  0.29457828198E+03  0.29457828198E+03  0.00000000000E+00 0. -1.
          1   -1    0    0  501    0 -0.00000000000E+00 -0.00000000000E+00 -0.24260501124E+04  0.24260501124E+04  0.00000000000E+00 0. -1.
         25    2    1    2    0    0 -0.76776979452E+02  0.42492243062E+02 -0.11762263750E+04  0.11861015029E+04  0.12501197815E+03 0.  0.
          2    1    1    2  501    0  0.25140809918E+02 -0.90826874114E+02 -0.12387515892E+04  0.12423313089E+04  0.00000000000E+00 0. -1.
          1    1    1    2  502    0  0.51636169534E+02  0.48334631052E+02  0.28350613378E+03  0.29219558254E+03  0.00000000000E+00 0. -1.
         22    1    3    3    0    0 -0.27259310603E+02  0.21415891097E+02 -0.65811003083E+02  0.74382783847E+02  0.00000000000E+00 0. -1.
         22    1    3    3    0    0 -0.49517668849E+02  0.21076351965E+02 -0.11104153719E+04  0.11117187190E+04  0.00000000000E+00 0. -1.
</event>
<event>
 7    1  0.6273950E-006  0.1045726E+03  0.7818608E-02  0.1337808E+00
          2   -1    0    0  502    0  0.00000000000E+00  0.00000000000E+00  0.16981503806E+04  0.16981503806E+04  0.00000000000E+00 0. -1.
          1   -1    0    0  501    0 -0.00000000000E+00 -0.00000000000E+00 -0.28444921430E+03  0.28444921430E+03  0.00000000000E+00 0. -1.
         25    2    1    2    0    0  0.94877209242E+02  0.55831963436E+02  0.65232206848E+03  0.67325024120E+03  0.12499165283E+03 0.  0.
          2    1    1    2  501    0 -0.10471599723E+03 -0.52609305070E-02 -0.26316741737E+03  0.28323581989E+03  0.00000000000E+00 0. -1.
          1    1    1    2  502    0  0.98387879878E+01 -0.55826702505E+02  0.10245465151E+04  0.10261135338E+04  0.00000000000E+00 0. -1.
         22    1    3    3    0    0  0.41349217991E+02  0.90491882202E+02  0.45983094728E+03  0.47047108163E+03  0.00000000000E+00 0. -1.
         22    1    3    3    0    0  0.53527991252E+02 -0.34659918766E+02  0.19249112120E+03  0.20277915958E+03  0.00000000000E+00 0. -1.
</event>
<event>
 7    1  0.6273950E-006  0.1524501E+03  0.7818608E-02  0.1334977E+00
          2   -1    0    0  502    0  0.00000000000E+00  0.00000000000E+00  0.70992412235E+03  0.70992412235E+03  0.00000000000E+00 0. -1.
          1   -1    0    0  501    0 -0.00000000000E+00 -0.00000000000E+00 -0.15203626318E+04  0.15203626318E+04  0.00000000000E+00 0. -1.
         25    2    1    2    0    0 -0.16629415593E+03 -0.20814658804E+02  0.45544374710E+03  0.50114102822E+03  0.12500530818E+03 0.  0.
          2    1    1    2  501    0  0.26819529444E+02  0.29481172979E+02 -0.14761436600E+04  0.14766815945E+04  0.00000000000E+00 0. -1.
          1    1    1    2  502    0  0.13947462649E+03 -0.86665141757E+01  0.21026140340E+03  0.25246413144E+03  0.00000000000E+00 0. -1.
         22    1    3    3    0    0 -0.87259042739E+02  0.40667955112E+02  0.13787181400E+03  0.16815665377E+03  0.00000000000E+00 0.  1.
         22    1    3    3    0    0 -0.79035113191E+02 -0.61482613915E+02  0.31757193310E+03  0.33298437445E+03  0.00000000000E+00 0.  1.
</event>
<event>
 7    1  0.6273950E-006  0.7710785E+02  0.7818608E-02  0.1351122E+00
          2   -1    0    0  502    0  0.00000000000E+00  0.00000000000E+00  0.35313544666E+02  0.35313544666E+02  0.00000000000E+00 0. -1.
          1   -1    0    0  501    0 -0.00000000000E+00 -0.00000000000E+00 -0.80645989921E+03  0.80645989921E+03  0.00000000000E+00 0. -1.
         25    2    1    2    0    0 -0.22600287275E+02 -0.19764488617E+02 -0.28154899291E+03  0.30950917175E+03  0.12499873597E+03 0.  0.
          2    1    1    2  501    0 -0.58293238282E+02 -0.36083281566E+02 -0.37530152058E+03  0.38151190832E+03  0.00000000000E+00 0. -1.
          1    1    1    2  502    0  0.80893525558E+02  0.55847770183E+02 -0.11429584106E+03  0.15075236381E+03  0.00000000000E+00 0. -1.
         22    1    3    3    0    0  0.49022817595E+01 -0.17479856052E+02  0.71372195058E+01  0.19506861263E+02  0.00000000000E+00 0.  1.
         22    1    3    3    0    0 -0.27502569035E+02 -0.22846325652E+01 -0.28868621241E+03  0.29000231049E+03  0.00000000000E+00 0.  1.
</event>
<event>
 7    1  0.6273950E-006  0.1820672E+03  0.7818608E-02  0.1209469E+00
          2   -1    0    0  502    0  0.00000000000E+00  0.00000000000E+00  0.52730255024E+03  0.52730255024E+03  0.00000000000E+00 0. -1.
          1   -1    0    0  501    0 -0.00000000000E+00 -0.00000000000E+00 -0.21153775785E+04  0.21153775785E+04  0.00000000000E+00 0. -1.
         25    2    1    2    0    0  0.80534494373E+02 -0.13680341122E+03 -0.85262939795E+03  0.87624372840E+03  0.12500081276E+03 0.  0.
          2    1    1    2  501    0 -0.10276599820E+03 -0.44960066001E+02 -0.12320502705E+04  0.12371459602E+04  0.00000000000E+00 0. -1.
          1    1    1    2  502    0  0.22231503823E+02  0.18176347722E+03  0.49660464015E+03  0.52929044015E+03  0.00000000000E+00 0. -1.
         22    1    3    3    0    0  0.49551553307E+02 -0.14720967651E+03 -0.53953968795E+03  0.56145268738E+03  0.00000000000E+00 0. -1.
         22    1    3    3    0    0  0.30982941066E+02  0.10406265282E+02 -0.31308971000E+03  0.31479104101E+03  0.00000000000E+00 0. -1.
</event>
<event>
 7    1  0.6273950E-006  0.7720223E+02  0.7818608E-02  0.1490877E+00
          2   -1    0    0  502    0  0.00000000000E+00  0.00000000000E+00  0.12272832301E+02  0.12272832301E+02  0.00000000000E+00 0. -1.
          1   -1    0    0  501    0 -0.00000000000E+00 -0.00000000000E+00 -0.30053997878E+04  0.30053997878E+04  0.00000000000E+00 0. -1.
         25    2    1    2    0    0 -0.30117879954E+02 -0.52807636986E+02 -0.20471832180E+04  0.20518964444E+04  0.12499662812E+03 0.  0.
          2    1    1    2  501    0 -0.22728548354E+02 -0.53434213597E+01 -0.79729792926E+03  0.79763972260E+03  0.00000000000E+00 0. -1.
          1    1    1    2  502    0  0.52846428309E+02  0.58151058345E+02 -0.14864580819E+03  0.16813645311E+03  0.00000000000E+00 0. -1.
         22    1    3    3    0    0 -0.39159022025E+02 -0.83039165503E+02 -0.18433867357E+04  0.18456715822E+04  0.00000000000E+00 0.  1.
         22    1    3    3    0    0  0.90411420708E+01  0.30231528518E+02 -0.20379648238E+03  0.20622486222E+03  0.00000000000E+00 0.  1.
</event>
<event>
 7    1  0.6273950E-006  0.6892096E+02  0.7818608E-02  0.1422563E+00
          2   -1    0    0  502    0  0.00000000000E+00  0.00000000000E+00  0.44887167377E+04  0.44887167377E+04  0.00000000000E+00 0. -1.
          1   -1    0    0  501    0 -0.00000000000E+00 -0.00000000000E+00 -0.70417324357E+03  0.70417324357E+03  0.00000000000E+00 0. -1.
         25    2    1    2    0    0  0.28356822660E+02  0.24790786916E+02  0.62579424045E+03  0.63926644654E+03  0.12499786310E+03 0.  0.
          2    1    1    2  501    0  0.41233406829E+02 -0.12437898800E+02 -0.69644802298E+03  0.69777843466E+03  0.00000000000E+00 0. -1.
          1    1    1    2  502    0 -0.69590229489E+02 -0.12352888116E+02  0.38551972767E+04  0.38558451001E+04  0.00000000000E+00 0. -1.
         22    1    3    3    0    0  0.14205069554E+02 -0.20218968843E+02  0.20418205153E+02  0.32054544199E+02  0.00000000000E+00 0. -1.
         22    1    3    3    0    0  0.14151753105E+02  0.45009755759E+02  0.60537603530E+03  0.60721190234E+03  0.00000000000E+00 0. -1.
</event>
<event>
 7    1  0.6273950E-006  0.6005683E+02  0.7818608E-02  0.1401413E+00
          2   -1    0    0  502    0  0.00000000000E+00  0.00000000000E+00  0.15311643586E+04  0.15311643586E+04  0.00000000000E+00 0. -1.
          1   -1    0    0  501    0 -0.00000000000E+00 -0.00000000000E+00 -0.55548167052E+03  0.55548167052E+03  0.00000000000E+00 0. -1.
         25    2    1    2    0    0 -0.29743750617E+02 -0.48075947075E+02 -0.50805567829E+03  0.52625203471E+03  0.12499857761E+03 0.  0.
          2    1    1    2  501    0  0.83942346435E+02  0.22204446623E+02  0.12260187232E+02  0.87690747322E+02  0.00000000000E+00 0. -1.
          1    1    1    2  502    0 -0.54198595818E+02  0.25871500452E+02  0.14714781791E+04  0.14727032471E+04  0.00000000000E+00 0. -1.
         22    1    3    3    0    0  0.34347401772E+02  0.17826073038E+02 -0.86068864238E+02  0.94368227066E+02  0.00000000000E+00 0. -1.
         22    1    3    3    0    0 -0.64091152389E+02 -0.65902020113E+02 -0.42198681405E+03  0.43188380764E+03  0.00000000000E+00 0. -1.
</event>
<event>
 7    1  0.6273950E-006  0.6201387E+02  0.7818608E-02  0.1429173E+00
          2   -1    0    0  502    0  0.00000000000E+00  0.00000000000E+00  0.24331392714E+02  0.24331392714E+02  0.00000000000E+00 0. -1.
          1   -1    0    0  501    0 -0.00000000000E+00 -0.00000000000E+00 -0.22191117664E+04  0.22191117664E+04  0.00000000000E+00 0. -1.
         25    2    1    2    0    0  0.28957808655E+02  0.27015450689E+02 -0.79841900114E+03  0.80911509217E+03  0.12500376691E+03 0.  0.
          2    1    1    2  501    0 -0.26157056522E+02  0.37245191919E+02 -0.13593628353E+04  0.13601245215E+04  0.00000000000E+00 0. -1.
          1    1    1    2  502    0 -0.28007521335E+01 -0.64260642608E+02 -0.36998537239E+02  0.74203545459E+02  0.00000000000E+00 0. -1.
         22    1    3    3    0    0  0.24552322345E+02 -0.48691564110E+02 -0.37765976494E+03  0.38157644451E+03  0.00000000000E+00 0. -1.
         22    1    3    3    0    0  0.44054863109E+01  0.75707014799E+02 -0.42075923620E+03  0.42753864766E+03  0.00000000000E+00 0. -1.
</event>
<event>
 7    1  0.6273950E-006  0.7232915E+02  0.7818608E-02  0.1385404E+00
          2   -1    0    0  502    0  0.00000000000E+00  0.00000000000E+00  0.20394838801E+03  0.20394838801E+03  0.00000000000E+00 0. -1.
          1   -1    0    0  501    0 -0.00000000000E+00 -0.00000000000E+00 -0.79936671056E+03  0.79936671056E+03  0.00000000000E+00 0. -1.
         25    2    1    2    0    0  0.24143748685E+02 -0.12047386730E+03 -0.24091764069E+03  0.29793228486E+03  0.12500185384E+03 0.  0.
          2    1    1    2  501    0 -0.18955093184E+02  0.65732920846E+02 -0.52335178396E+03  0.52780413244E+03  0.00000000000E+00 0. -1.
          1    1    1    2  502    0 -0.51886555014E+01  0.54740946453E+02  0.16885110209E+03  0.17757868127E+03  0.00000000000E+00 0. -1.
         22    1    3    3    0    0  0.80221698601E+00 -0.12961936790E+03 -0.24009378669E+03  0.27284950155E+03  0.00000000000E+00 0. -1.
         22    1    3    3    0    0  0.23341531699E+02  0.91455005998E+01 -0.82385399565E+00  0.25082783312E+02  0.00000000000E+00 0. -1.
</event>
<event>
 7    1  0.6273950E-006  0.5574697E+02  0.7818608E-02  0.1459793E+00
          2   -1    0    0  502    0  0.00000000000E+00  0.00000000000E+00  0.14890927460E+03  0.14890927460E+03  0.00000000000E+00 0. -1.
          1   -1    0    0  501    0 -0.00000000000E+00 -0.00000000000E+00 -0.96989939567E+03  0.96989939567E+03  0.00000000000E+00 0. -1.
         25    2    1    2    0    0 -0.32169847452E+02 -0.46830716342E+02 -0.34316541374E+03  0.36961690118E+03  0.12500454940E+03 0.  0.
          2    1    1    2  501    0  0.55268050822E+02  0.13768248288E+02 -0.60915294586E+03  0.61180996523E+03  0.00000000000E+00 0. -1.
          1    1    1    2  502    0 -0.23098203370E+02  0.33062468054E+02  0.13132823854E+03  0.13738180385E+03  0.00000000000E+00 0. -1.
         22    1    3    3    0    0  0.19107081682E+02 -0.75478661506E+02 -0.17671612496E+03  0.19310799500E+03  0.00000000000E+00 0.  1.
         22    1    3    3    0    0 -0.51276929134E+02  0.28647945164E+02 -0.16644928879E+03  0.17650890618E+03  0.00000000000E+00 0.  1.
</event>
<event>
 7    1  0.6273950E-006  0.4190121E+02  0.7818608E-02  0.1573175E+00
          2   -1    0    0  502    0  0.00000000000E+00  0.00000000000E+00  0.11958334725E+03  0.11958334725E+03  0.00000000000E+00 0. -1.
          1   -1    0    0  501    0 -0.00000000000E+00 -0.00000000000E+00 -0.21628939866E+03  0.21628939866E+03  0.00000000000E+00 0. -1.
         25    2    1    2    0    0  0.11465573674E+02 -0.49784616204E+02 -0.11692205926E+03  0.17862178497E+03  0.12500002694E+03 0.  0.
          2    1    1    2  501    0  0.16552620162E+02  0.18765830502E+02 -0.60987225050E+02  0.65921068316E+02  0.00000000000E+00 0. -1.
          1    1    1    2  502    0 -0.28018193837E+02  0.31018785702E+02  0.81203232907E+02  0.91329892625E+02  0.00000000000E+00 0. -1.
         22    1    3    3    0    0 -0.21625403163E+02 -0.46434867002E+02  0.57272186205E+01  0.51542758644E+02  0.00000000000E+00 0. -1.
         22    1    3    3    0    0  0.33090976837E+02 -0.33497492016E+01 -0.12264927788E+03  0.12707902633E+03  0.00000000000E+00 0. -1.
</event>
<event>
 7    1  0.6273950E-006  0.9136734E+02  0.7818608E-02  0.1353017E+00
          2   -1    0    0  502    0  0.00000000000E+00  0.00000000000E+00  0.58159201857E+03  0.58159201857E+03  0.00000000000E+00 0. -1.
          1   -1    0    0  501    0 -0.00000000000E+00 -0.00000000000E+00 -0.66816493539E+03  0.66816493539E+03  0.00000000000E+00 0. -1.
         25    2    1    2    0    0 -0.11628705979E+03  0.36281414164E+02 -0.61090028316E+02  0.18492389109E+03  0.12500333054E+03 0.  0.
          2    1    1    2  501    0  0.26608385732E+02 -0.50332195215E+02 -0.53968531668E+03  0.54267999512E+03  0.00000000000E+00 0. -1.
          1    1    1    2  502    0  0.89678674061E+02  0.14050781051E+02  0.51420242817E+03  0.52215306776E+03  0.00000000000E+00 0. -1.
         22    1    3    3    0    0 -0.61251564471E+02  0.60279477445E+02 -0.84461546438E+02  0.12049532098E+03  0.00000000000E+00 0.  1.
         22    1    3    3    0    0 -0.55035495323E+02 -0.23998063280E+02  0.23371518122E+02  0.64428570107E+02  0.00000000000E+00 0.  1.
</event>
<event>
 7    1  0.6273950E-006  0.7611335E+02  0.7818608E-02  0.1503788E+00
          2   -1    0    0  502    0  0.00000000000E+00  0.00000000000E+00  0.59331242803E+03  0.59331242803E+03  0.00000000000E+00 0. -1.
          1   -1    0    0  501    0 -0.00000000000E+00 -0.00000000000E+00 -0.47936892327E+03  0.47936892327E+03  0.00000000000E+00 0. -1.
         25    2    1    2    0    0  0.23996487300E+02 -0.51570365868E+02  0.11111842087E+03  0.17665557070E+03  0.12499821265E+03 0.  0.
          2    1    1    2  501    0  0.43499593367E+01 -0.21223444292E+02 -0.44293900549E+03  0.44346850995E+03  0.00000000000E+00 0. -1.
          1    1    1    2  502    0 -0.28346446637E+02  0.72793810160E+02  0.44576408938E+03  0.45255727064E+03  0.00000000000E+00 0. -1.
         22    1    3    3    0    0  0.24337430702E+02 -0.91978190147E+02  0.64420874096E+02  0.11490146655E+03  0.00000000000E+00 0.  1.
         22    1    3    3    0    0 -0.34094340254E+00  0.40407824279E+02  0.46697546774E+02  0.61754104155E+02  0.00000000000E+00 0.  1.
</event>
<event>
 7    1  0.6273950E-006  0.5072833E+02  0.7818608E-02  0.1554031E+00
          2   -1    0    0  502    0  0.00000000000E+00  0.00000000000E+00  0.22048445398E+03  0.22048445398E+03  0.00000000000E+00 0. -1.
          1   -1    0    0  501    0 -0.00000000000E+00 -0.00000000000E+00 -0.49020890870E+03  0.49020890870E+03  0.00000000000E+00 0. -1.
         25    2    1    2    0    0  0.35301046309E+02  0.12297827554E+01  0.10059426047E+03  0.16429225776E+03  0.12500025793E+03 0.  0.
          2    1    1    2  501    0 -0.47352513585E+02  0.18737025934E+02 -0.45537079754E+03  0.45820944986E+03  0.00000000000E+00 0. -1.
          1    1    1    2  502    0  0.12051467276E+02 -0.19966808689E+02  0.85052082350E+02  0.88191655075E+02  0.00000000000E+00 0. -1.
         22    1    3    3    0    0 -0.13704029720E+02  0.36044682222E+02 -0.87238712130E+01  0.39536381676E+02  0.00000000000E+00 0.  1.
         22    1    3    3    0    0  0.49005076029E+02 -0.34814899467E+02  0.10931813168E+03  0.12475587608E+03  0.00000000000E+00 0.  1.
</event>
<event>
 7    1  0.6273950E-006  0.4446858E+02  0.7818608E-02  0.1503904E+00
          2   -1    0    0  502    0  0.00000000000E+00  0.00000000000E+00  0.33310536593E+02  0.33310536593E+02  0.00000000000E+00 0. -1.
          1   -1    0    0  501    0 -0.00000000000E+00 -0.00000000000E+00 -0.73346821593E+03  0.73346821593E+03  0.00000000000E+00 0. -1.
         25    2    1    2    0    0  0.71569677214E+02  0.27910973029E+02 -0.24581806343E+03  0.28627309270E+03  0.12499808871E+03 0.  0.
          2    1    1    2  501    0 -0.42651166063E+02 -0.47465809463E+01 -0.43785301699E+03  0.43995103874E+03  0.00000000000E+00 0. -1.
          1    1    1    2  502    0 -0.28918511151E+02 -0.23164392082E+02 -0.16486598911E+02  0.40554621085E+02  0.00000000000E+00 0. -1.
         22    1    3    3    0    0 -0.33045612016E+02  0.42093291589E+01 -0.98928431005E+02  0.10438661498E+03  0.00000000000E+00 0.  1.
         22    1    3    3    0    0  0.10461528923E+03  0.23701643870E+02 -0.14688963243E+03  0.18188647772E+03  0.00000000000E+00 0.  1.
</event>
<event>
 7    1  0.6273950E-006  0.8297076E+02  0.7818608E-02  0.1347258E+00
          2   -1    0    0  502    0  0.00000000000E+00  0.00000000000E+00  0.73058595810E+03  0.73058595810E+03  0.00000000000E+00 0. -1.
          1   -1    0    0  501    0 -0.00000000000E+00 -0.00000000000E+00 -0.77417871091E+03  0.77417871091E+03  0.00000000000E+00 0. -1.
         25    2    1    2    0    0  0.98981166245E+01 -0.10303678971E+03  0.57170717111E+02  0.17207120962E+03  0.12500183014E+03 0.  0.
          2    1    1    2  501    0  0.48773538590E+02  0.44243640762E+02 -0.71240296823E+03  0.71543996740E+03  0.00000000000E+00 0. -1.
          1    1    1    2  502    0 -0.58671655215E+02  0.58793148949E+02  0.61163949831E+03  0.61725349199E+03  0.00000000000E+00 0. -1.
         22    1    3    3    0    0  0.60195752209E+02 -0.46251197780E+02  0.59073385959E+02  0.96189223974E+02  0.00000000000E+00 0. -1.
         22    1    3    3    0    0 -0.50297635584E+02 -0.56785591931E+02 -0.19026688476E+01  0.75881985643E+02  0.00000000000E+00 0. -1.
</event>
<event>
 7    1  0.6273950E-006  0.2407789E+03  0.7818608E-02  0.1167899E+00
          2   -1    0    0  502    0  0.00000000000E+00  0.00000000000E+00  0.15747269053E+04  0.15747269053E+04  0.00000000000E+00 0. -1.
          1   -1    0    0  501    0 -0.00000000000E+00 -0.00000000000E+00 -0.15890135119E+03  0.15890135119E+03  0.00000000000E+00 0. -1.
         25    2    1    2    0    0 -0.11057472999E+03  0.10792435387E+02  0.38367676429E+02  0.17158111727E+03  0.12499901453E+03 0.  0.
          2    1    1    2  501    0  0.12513476286E+03  0.22954583538E+03  0.13076801790E+03  0.29231878818E+03  0.00000000000E+00 0. -1.
          1    1    1    2  502    0 -0.14560032866E+02 -0.24033827077E+03  0.12466898597E+04  0.12697283510E+04  0.00000000000E+00 0. -1.
         22    1    3    3    0    0 -0.77830737916E+01 -0.28072781127E+02  0.53236637332E+02  0.60686051381E+02  0.00000000000E+00 0.  1.
         22    1    3    3    0    0 -0.10279165620E+03  0.38865216514E+02 -0.14868960902E+02  0.11089506589E+03  0.00000000000E+00 0.  1.
</event>
<event>
 7    1  0.6273950E-006  0.1218135E+03  0.7818608E-02  0.1310856E+00
          2   -1    0    0  502    0  0.00000000000E+00  0.00000000000E+00  0.12478708131E+04  0.12478708131E+04  0.00000000000E+00 0. -1.
          1   -1    0    0  501    0 -0.00000000000E+00 -0.00000000000E+00 -0.43701560027E+03  0.43701560027E+03  0.00000000000E+00 0. -1.
         25    2    1    2    0    0 -0.10186615771E+03  0.39958425709E+02  0.93829501114E+01  0.16637717528E+03  0.12497973768E+03 0.  0.
          2    1    1    2  501    0  0.12368053351E+03  0.17878977386E+02 -0.34677222278E+03  0.36860209806E+03  0.00000000000E+00 0. -1.
          1    1    1    2  502    0 -0.21814375793E+02 -0.57837403095E+02  0.11482444855E+04  0.11499071400E+04  0.00000000000E+00 0. -1.
         22    1    3    3    0    0 -0.97784200454E+02  0.12494422359E+02 -0.42641913127E+02  0.10740667206E+03  0.00000000000E+00 0.  1.
         22    1    3    3    0    0 -0.40819572598E+01  0.27464003350E+02  0.52024863238E+02  0.58970503220E+02  0.00000000000E+00 0.  1.
</event>
<event>
 7    1  0.6273950E-006  0.7894640E+02  0.7818608E-02  0.1499107E+00
          2   -1    0    0  502    0  0.00000000000E+00  0.00000000000E+00  0.79056319053E+03  0.79056319053E+03  0.00000000000E+00 0. -1.
          1   -1    0    0  501    0 -0.00000000000E+00 -0.00000000000E+00 -0.23416084828E+03  0.23416084828E+03  0.00000000000E+00 0. -1.
         25    2    1    2    0    0  0.72894533395E+02 -0.62435515455E+02  0.33277471393E+03  0.36820578307E+03  0.12499872747E+03 0.  0.
          2    1    1    2  501    0 -0.11028049941E+02  0.18536098621E+02 -0.21262655280E+03  0.21371770117E+03  0.00000000000E+00 0. -1.
          1    1    1    2  502    0 -0.61866483454E+02  0.43899416834E+02  0.43625418113E+03  0.44280055457E+03  0.00000000000E+00 0. -1.
         22    1    3    3    0    0 -0.49851604250E+01 -0.60419794331E+02  0.63103519343E+02  0.87506899870E+02  0.00000000000E+00 0. -1.
         22    1    3    3    0    0  0.77879693820E+02 -0.20157211244E+01  0.26967119459E+03  0.28069888320E+03  0.00000000000E+00 0. -1.
</event>
<event>
 7    1  0.6273950E-006  0.5156654E+02  0.7818608E-02  0.1472833E+00
          2   -1    0    0  502    0  0.00000000000E+00  0.00000000000E+00  0.10338490469E+04  0.10338490469E+04  0.00000000000E+00 0. -1.
          1   -1    0    0  501    0 -0.00000000000E+00 -0.00000000000E+00 -0.12875749911E+03  0.12875749911E+03  0.00000000000E+00 0. -1.
         25    2    1    2    0    0  0.81815870137E+02 -0.14266231795E+02  0.55978217476E+02  0.16017454655E+03  0.12499985023E+03 0.  0.
          2    1    1    2  501    0 -0.37843279681E+02 -0.11979375645E+02 -0.70760610810E+02  0.81133737126E+02  0.00000000000E+00 0. -1.
          1    1    1    2  502    0 -0.43972590456E+02  0.26245607439E+02  0.91987394112E+03  0.92129826233E+03  0.00000000000E+00 0. -1.
         22    1    3    3    0    0  0.47289282196E+02 -0.40929191951E+02 -0.25668747667E+02  0.67604434552E+02  0.00000000000E+00 0.  1.
         22    1    3    3    0    0  0.34526587941E+02  0.26662960156E+02  0.81646965143E+02  0.92570112003E+02  0.00000000000E+00 0.  1.
</event>
<event>
 7    1  0.6273950E-006  0.2765826E+03  0.7818608E-02  0.1213662E+00
          2   -1    0    0  502    0  0.00000000000E+00  0.00000000000E+00  0.20369523971E+04  0.20369523971E+04  0.00000000000E+00 0. -1.
          1   -1    0    0  501    0 -0.00000000000E+00 -0.00000000000E+00 -0.33169066305E+04  0.33169066305E+04  0.00000000000E+00 0. -1.
         25    2    1    2    0    0  0.22996698228E+03  0.42487394286E+02 -0.70944666688E+03  0.75738307425E+03  0.12499822555E+03 0.  0.
          2    1    1    2  501    0 -0.27570967371E+03 -0.96283433928E+02 -0.25746149333E+04  0.25911249253E+04  0.00000000000E+00 0. -1.
          1    1    1    2  502    0  0.45742691430E+02  0.53796039642E+02  0.20041073668E+04  0.20053510280E+04  0.00000000000E+00 0. -1.
         22    1    3    3    0    0  0.72481908742E+02  0.83396433088E+00 -0.83440376344E+02  0.11052881523E+03  0.00000000000E+00 0. -1.
         22    1    3    3    0    0  0.15748507354E+03  0.41653429955E+02 -0.62600629054E+03  0.64685425902E+03  0.00000000000E+00 0. -1.
</event>
<event>
 7    1  0.6273950E-006  0.1055559E+03  0.7818608E-02  0.1421903E+00
          2   -1    0    0  502    0  0.00000000000E+00  0.00000000000E+00  0.20985092287E+04  0.20985092287E+04  0.00000000000E+00 0. -1.
          1   -1    0    0  501    0 -0.00000000000E+00 -0.00000000000E+00 -0.25519282006E+03  0.25519282006E+03  0.00000000000E+00 0. -1.
         25    2    1    2    0    0  0.24241964528E+02 -0.74166528546E+02 -0.58434060882E+02  0.15852307650E+03  0.12500671787E+03 0.  0.
          2    1    1    2  501    0  0.13774841452E+02 -0.24679553723E+02 -0.14397050131E+03  0.14671854646E+03  0.00000000000E+00 0. -1.
          1    1    1    2  502    0 -0.38016805981E+02  0.98846082269E+02  0.20457209709E+04  0.20484604258E+04  0.00000000000E+00 0. -1.
         22    1    3    3    0    0 -0.31329739540E+02 -0.85128578986E+02 -0.36719837970E+02  0.97860993457E+02  0.00000000000E+00 0. -1.
         22    1    3    3    0    0  0.55571704068E+02  0.10962050440E+02 -0.21714222912E+02  0.60662083046E+02  0.00000000000E+00 0. -1.
</event>
<event>
 7    1  0.6273950E-006  0.5263923E+02  0.7818608E-02  0.1460416E+00
          2   -1    0    0  502    0  0.00000000000E+00  0.00000000000E+00  0.88928912636E+03  0.88928912636E+03  0.00000000000E+00 0. -1.
          1   -1    0    0  501    0 -0.00000000000E+00 -0.00000000000E+00 -0.33202200346E+03  0.33202200346E+03  0.00000000000E+00 0. -1.
         25    2    1    2    0    0 -0.14743950451E+02 -0.43856947628E+02  0.55438812908E+03  0.57018581730E+03  0.12499941061E+03 0.  0.
          2    1    1    2  501    0 -0.27765256931E+02  0.44825116397E+02 -0.32057811806E+03  0.32488541108E+03  0.00000000000E+00 0. -1.
          1    1    1    2  502    0  0.42509207382E+02 -0.96816876916E+00  0.32345711189E+03  0.32623990144E+03  0.00000000000E+00 0. -1.
         22    1    3    3    0    0  0.37584083261E+02  0.24219615145E+02  0.24777431909E+03  0.25177622261E+03  0.00000000000E+00 0. -1.
         22    1    3    3    0    0 -0.52328033712E+02 -0.68076562772E+02  0.30661380999E+03  0.31840959468E+03  0.00000000000E+00 0. -1.
</event>
<event>
 7    1  0.6273950E-006  0.8868388E+02  0.7818608E-02  0.1369142E+00
          2   -1    0    0  502    0  0.00000000000E+00  0.00000000000E+00  0.14140315181E+04  0.14140315181E+04  0.00000000000E+00 0. -1.
          1   -1    0    0  501    0 -0.00000000000E+00 -0.00000000000E+00 -0.18672411711E+04  0.18672411711E+04  0.00000000000E+00 0. -1.
         25    2    1    2    0    0  0.41999721822E+02 -0.50464649443E+02  0.86528849842E+03  0.87673223478E+03  0.12499827408E+03 0.  0.
          2    1    1    2  501    0 -0.85559273586E+02  0.23493444460E+02 -0.18592505490E+04  0.18613664162E+04  0.00000000000E+00 0. -1.
          1    1    1    2  502    0  0.43559551764E+02  0.26971204983E+02  0.54075239756E+03  0.54317403833E+03  0.00000000000E+00 0. -1.
         22    1    3    3    0    0 -0.44857701474E+02 -0.17026344430E+02  0.27610362522E+03  0.28024154162E+03  0.00000000000E+00 0.  1.
         22    1    3    3    0    0  0.86857423296E+02 -0.33438305013E+02  0.58918487320E+03  0.59649069316E+03  0.00000000000E+00 0.  1.
</event>
<event>
 7    1  0.6273950E-006  0.1769393E+03  0.7818608E-02  0.1341354E+00
          2   -1    0    0  502    0  0.00000000000E+00  0.00000000000E+00  0.84120674944E+03  0.84120674944E+03  0.00000000000E+00 0. -1.
          1   -1    0    0  501    0 -0.00000000000E+00 -0.00000000000E+00 -0.80766241697E+03  0.80766241697E+03  0.00000000000E+00 0. -1.
         25    2    1    2    0    0  0.17183180508E+03  0.86541781821E+02 -0.17949410685E+03  0.29130518730E+03  0.12499971407E+03 0.  0.
          2    1    1    2  501    0 -0.28296006580E+02  0.15963449006E+02 -0.56188382219E+03  0.56282228574E+03  0.00000000000E+00 0. -1.
          1    1    1    2  502    0 -0.14353579850E+03 -0.10250523083E+03  0.77492226151E+03  0.79474169337E+03  0.00000000000E+00 0. -1.
         22    1    3    3    0    0 -0.29377306222E+00  0.17956345751E+02 -0.78002132809E+02  0.80042797166E+02  0.00000000000E+00 0. -1.
         22    1    3    3    0    0  0.17212557814E+03  0.68585436071E+02 -0.10149197404E+03  0.21126239013E+03  0.00000000000E+00 0. -1.
</event>
<event>
 7    1  0.6273950E-006  0.5163295E+02  0.7818608E-02  0.1574288E+00
          2   -1    0    0  502    0  0.00000000000E+00  0.00000000000E+00  0.12638683731E+04  0.12638683731E+04  0.00000000000E+00 0. -1.
          1   -1    0    0  501    0 -0.00000000000E+00 -0.00000000000E+00 -0.51800341687E+03  0.51800341687E+03  0.00000000000E+00 0. -1.
         25    2    1    2    0    0  0.23206671654E+01  0.70032689433E+02 -0.82824320532E+02  0.16551489813E+03  0.12500140137E+03 0.  0.
          2    1    1    2  501    0 -0.74625961470E+01 -0.18734833255E+02 -0.39303164890E+03  0.39354867724E+03  0.00000000000E+00 0. -1.
          1    1    1    2  502    0  0.51419289816E+01 -0.51297856178E+02  0.12217209256E+04  0.12228082146E+04  0.00000000000E+00 0. -1.
         22    1    3    3    0    0  0.55357759526E+02  0.85101300977E+01 -0.10981763023E+02  0.57074538746E+02  0.00000000000E+00 0. -1.
         22    1    3    3    0    0 -0.53037092360E+02  0.61522559336E+02 -0.71842557509E+02  0.10844035938E+03  0.00000000000E+00 0. -1.
</event>
<event>
 7    1  0.6273950E-006  0.1083529E+03  0.7818608E-02  0.1442143E+00
          2   -1    0    0  502    0  0.00000000000E+00  0.00000000000E+00  0.77874557037E+03  0.77874557037E+03  0.00000000000E+00 0. -1.
          1   -1    0    0  501    0 -0.00000000000E+00 -0.00000000000E+00 -0.78991485985E+03  0.78991485985E+03  0.00000000000E+00 0. -1.
         25    2    1    2    0    0 -0.92386088155E+02  0.28990851887E+01  0.18279716185E+02  0.15653883787E+03  0.12500666285E+03 0.  0.
          2    1    1    2  501    0  0.10817218560E+03  0.14681388035E+02 -0.71644777980E+03  0.72471662467E+03  0.00000000000E+00 0. -1.
          1    1    1    2  502    0 -0.15786097443E+02 -0.17580473223E+02  0.68699877414E+03  0.68740496767E+03  0.00000000000E+00 0. -1.
         22    1    3    3    0    0 -0.23426782862E+02 -0.48525858458E+02 -0.25954123823E+02  0.59809611583E+02  0.00000000000E+00 0.  1.
         22    1    3    3    0    0 -0.68959305294E+02  0.51424943646E+02  0.44233840008E+02  0.96729226284E+02  0.00000000000E+00 0.  1.
</event>
<event>
 7    1  0.6273950E-006  0.4512693E+02  0.7818608E-02  0.1479502E+00
          2   -1    0    0  502    0  0.00000000000E+00  0.00000000000E+00  0.93837705916E+03  0.93837705916E+03  0.00000000000E+00 0. -1.
          1   -1    0    0  501    0 -0.00000000000E+00 -0.00000000000E+00 -0.28371384063E+02  0.28371384063E+02  0.00000000000E+00 0. -1.
         25    2    1    2    0    0 -0.15912959662E+02 -0.28966661302E+02  0.27613748347E+03  0.30490852919E+03  0.12500004657E+03 0.  0.
          2    1    1    2  501    0  0.49409276439E+02  0.15901487698E+01  0.33047474510E+02  0.59463776729E+02  0.00000000000E+00 0. -1.
          1    1    1    2  502    0 -0.33496316777E+02  0.27376512532E+02  0.60082071712E+03  0.60237613730E+03  0.00000000000E+00 0. -1.
         22    1    3    3    0    0 -0.22255903040E+02  0.91876234128E+01 -0.19384072276E+01  0.24155642544E+02  0.00000000000E+00 0. -1.
         22    1    3    3    0    0  0.63429433783E+01 -0.38154284715E+02  0.27807589070E+03  0.28075288664E+03  0.00000000000E+00 0. -1.
</event>
<event>
 7    1  0.6273950E-006  0.1131891E+03  0.7818608E-02  0.1305561E+00
          2   -1    0    0  502    0  0.00000000000E+00  0.00000000000E+00  0.56092256793E+03  0.56092256793E+03  0.00000000000E+00 0. -1.
          1   -1    0    0  501    0 -0.00000000000E+00 -0.00000000000E+00 -0.48932754953E+03  0.48932754953E+03  0.00000000000E+00 0. -1.
         25    2    1    2    0    0 -0.15128971231E+03  0.86022479053E+02  0.22615362610E+03  0.31154331919E+03  0.12500133271E+03 0.  0.
          2    1    1    2  501    0  0.10700533729E+03 -0.32058798275E+02 -0.43530638809E+03  0.44941023605E+03  0.00000000000E+00 0. -1.
          1    1    1    2  502    0  0.44284375015E+02 -0.53963680779E+02  0.28074778039E+03  0.28929656222E+03  0.00000000000E+00 0. -1.
         22    1    3    3    0    0 -0.12122016330E+03  0.20079708538E+02  0.75106628284E+02  0.14400877854E+03  0.00000000000E+00 0. -1.
         22    1    3    3    0    0 -0.30069549014E+02  0.65942770515E+02  0.15104699781E+03  0.16753454065E+03  0.00000000000E+00 0. -1.
</event>
<event>
 7    1  0.6273950E-006  0.9111841E+02  0.7818608E-02  0.1317130E+00
          2   -1    0    0  502    0  0.00000000000E+00  0.00000000000E+00  0.14269268102E+04  0.14269268102E+04  0.00000000000E+00 0. -1.
          1   -1    0    0  501    0 -0.00000000000E+00 -0.00000000000E+00 -0.21113158269E+03  0.21113158269E+03  0.00000000000E+00 0. -1.
         25    2    1    2    0    0 -0.19541534132E+02 -0.12689015464E+03  0.35015598406E+02  0.18258289044E+03  0.12500974702E+03 0.  0.
          2    1    1    2  501    0  0.62495641865E+02  0.46826339352E+02 -0.12453935644E+03  0.14699817214E+03  0.00000000000E+00 0. -1.
          1    1    1    2  502    0 -0.42954107733E+02  0.80063815287E+02  0.13053189856E+04  0.13084773303E+04  0.00000000000E+00 0. -1.
         22    1    3    3    0    0 -0.21634634004E+02  0.13788287591E+02 -0.18949361367E+02  0.31894396991E+02  0.00000000000E+00 0.  1.
         22    1    3    3    0    0  0.20930998717E+01 -0.14067844223E+03  0.53964959773E+02  0.15068849345E+03  0.00000000000E+00 0.  1.
</event>
<event>
 7    1  0.6273950E-006  0.4404079E+02  0.7818608E-02  0.1567734E+00
          2   -1    0    0  502    0  0.00000000000E+00  0.00000000000E+00  0.42676836672E+03  0.42676836672E+03  0.00000000000E+00 0. -1.
          1   -1    0    0  501    0 -0.00000000000E+00 -0.00000000000E+00 -0.75781378039E+03  0.75781378039E+03  0.00000000000E+00 0. -1.
         25    2    1    2    0    0  0.21084854036E+02 -0.38197107294E+02 -0.20777733795E+03  0.24637723527E+03  0.12500691907E+03 0.  0.
          2    1    1    2  501    0  0.17657124148E+02  0.17173070994E+02 -0.52925714795E+03  0.52982998882E+03  0.00000000000E+00 0. -1.
          1    1    1    2  502    0 -0.38741978184E+02  0.21024036300E+02  0.40598907224E+03  0.40837492302E+03  0.00000000000E+00 0. -1.
         22    1    3    3    0    0  0.67242675410E+02  0.10659061130E+01 -0.76942892586E+02  0.10219061734E+03  0.00000000000E+00 0.  1.
         22    1    3    3    0    0 -0.46157821375E+02 -0.39263013407E+02 -0.13083444537E+03  0.14418661793E+03  0.00000000000E+00 0.  1.
</event>
<event>
 7    1  0.6273950E-006  0.8864098E+02  0.7818608E-02  0.1458480E+00
          2   -1    0    0  502    0  0.00000000000E+00  0.00000000000E+00  0.11788040860E+03  0.11788040860E+03  0.00000000000E+00 0. -1.
          1   -1    0    0  501    0 -0.00000000000E+00 -0.00000000000E+00 -0.14335513174E+04  0.14335513174E+04  0.00000000000E+00 0. -1.
         25    2    1    2    0    0  0.29335064180E+02  0.56722691377E+02 -0.53577376341E+02  0.15024738086E+03  0.12500292193E+03 0.  0.
          2    1    1    2  501    0 -0.42829494825E+02 -0.78486979471E+02 -0.13277258394E+04  0.13307330597E+04  0.00000000000E+00 0. -1.
          1    1    1    2  502    0  0.13494430644E+02  0.21764288094E+02  0.65632306977E+02  0.70451285395E+02  0.00000000000E+00 0. -1.
         22    1    3    3    0    0 -0.46679601641E+02  0.39133013581E+02 -0.34187086920E+02  0.69850804386E+02  0.00000000000E+00 0. -1.
         22    1    3    3    0    0  0.76014665821E+02  0.17589677796E+02 -0.19390289421E+02  0.80396576474E+02  0.00000000000E+00 0. -1.
</event>
<event>
 7    1  0.6273950E-006  0.7024051E+02  0.7818608E-02  0.1387241E+00
          2   -1    0    0  502    0  0.00000000000E+00  0.00000000000E+00  0.25051272719E+03  0.25051272719E+03  0.00000000000E+00 0. -1.
          1   -1    0    0  501    0 -0.00000000000E+00 -0.00000000000E+00 -0.95005359250E+03  0.95005359250E+03  0.00000000000E+00 0. -1.
         25    2    1    2    0    0 -0.14950080440E+02 -0.97151843085E+02  0.43884246916E+02  0.16496666327E+03  0.12500474929E+03 0.  0.
          2    1    1    2  501    0 -0.30884063181E+02  0.46458287401E+02 -0.88058829161E+03  0.88235363497E+03  0.00000000000E+00 0. -1.
          1    1    1    2  502    0  0.45834143621E+02  0.50693555684E+02  0.13716317938E+03  0.15324602144E+03  0.00000000000E+00 0. -1.
         22    1    3    3    0    0 -0.27251187840E+02 -0.74263606639E+02 -0.31563130936E+02  0.85170075403E+02  0.00000000000E+00 0. -1.
         22    1    3    3    0    0  0.12301107400E+02 -0.22888236446E+02  0.75447377852E+02  0.79796587869E+02  0.00000000000E+00 0. -1.
</event>
<event>
 7    1  0.6273950E-006  0.6732724E+02  0.7818608E-02  0.1376900E+00
          2   -1    0    0  502    0  0.00000000000E+00  0.00000000000E+00  0.19913525423E+04  0.19913525423E+04  0.00000000000E+00 0. -1.
          1   -1    0    0  501    0 -0.00000000000E+00 -0.00000000000E+00 -0.21151522777E+04  0.21151522777E+04  0.00000000000E+00 0. -1.
         25    2    1    2    0    0  0.61002057179E+02 -0.10824063268E+03  0.40063183638E+03  0.43768578643E+03  0.12500277511E+03 0.  0.
          2    1    1    2  501    0 -0.48993410848E+02  0.46083806471E+02 -0.20954481980E+04  0.20965274199E+04  0.00000000000E+00 0. -1.
          1    1    1    2  502    0 -0.12008646331E+02  0.62156826207E+02  0.15710166263E+04  0.15722916137E+04  0.00000000000E+00 0. -1.
         22    1    3    3    0    0  0.94884385396E+02 -0.10056532305E+03  0.34963399844E+03  0.37597920642E+03  0.00000000000E+00 0. -1.
         22    1    3    3    0    0 -0.33882328217E+02 -0.76753096251E+01  0.50997837933E+02  0.61706580015E+02  0.00000000000E+00 0. -1.
</event>
<event>
 7    1  0.6273950E-006  0.7727338E+02  0.7818608E-02  0.1415809E+00
          2   -1    0    0  502    0  0.00000000000E+00  0.00000000000E+00  0.18499433737E+04  0.18499433737E+04  0.00000000000E+00 0. -1.
          1   -1    0    0  501    0 -0.00000000000E+00 -0.00000000000E+00 -0.39564343776E+03  0.39564343776E+03  0.00000000000E+00 0. -1.
         25    2    1    2    0    0  0.38957721923E+02  0.32533852138E+02  0.62160101950E+02  0.14854657273E+03  0.12500420138E+03 0.  0.
          2    1    1    2  501    0 -0.76589464981E+02 -0.17662455914E+02 -0.34782994397E+03  0.35660002582E+03  0.00000000000E+00 0. -1.
          1    1    1    2  502    0  0.37631743058E+02 -0.14871396224E+02  0.17399697779E+04  0.17404402129E+04  0.00000000000E+00 0. -1.
         22    1    3    3    0    0 -0.98353123868E+01 -0.14838245693E+02  0.76923148293E+02  0.78956175492E+02  0.00000000000E+00 0. -1.
         22    1    3    3    0    0  0.48793034310E+02  0.47372097831E+02 -0.14763046343E+02  0.69590397235E+02  0.00000000000E+00 0. -1.
</event>
<event>
 7    1  0.6273950E-006  0.2351096E+03  0.7818608E-02  0.1219894E+00
          2   -1    0    0  502    0  0.00000000000E+00  0.00000000000E+00  0.17230237931E+04  0.17230237931E+04  0.00000000000E+00 0. -1.
          1   -1    0    0  501    0 -0.00000000000E+00 -0.00000000000E+00 -0.17171692349E+03  0.17171692349E+03  0.00000000000E+00 0. -1.
         25    2    1    2    0    0 -0.42279671208E+02 -0.19566799920E+03  0.26236662744E+03  0.35289252420E+03  0.12499339955E+03 0.  0.
          2    1    1    2  501    0  0.60694414338E+02 -0.48644741141E+02 -0.10268557513E+03  0.12881944772E+03  0.00000000000E+00 0. -1.
          1    1    1    2  502    0 -0.18414743130E+02  0.24431274034E+03  0.13916258174E+04  0.14130287447E+04  0.00000000000E+00 0. -1.
         22    1    3    3    0    0 -0.15597555320E+01 -0.28112620260E+02 -0.10549471801E+02  0.30067317980E+02  0.00000000000E+00 0.  1.
         22    1    3    3    0    0 -0.40719915676E+02 -0.16755537894E+03  0.27291609924E+03  0.32282520622E+03  0.00000000000E+00 0.  1.
</event>
<event>
 7    1  0.6273950E-006  0.7588334E+02  0.7818608E-02  0.1428657E+00
          2   -1    0    0  502    0  0.00000000000E+00  0.00000000000E+00  0.14127967318E+04  0.14127967318E+04  0.00000000000E+00 0. -1.
          1   -1    0    0  501    0 -0.00000000000E+00 -0.00000000000E+00 -0.23438592812E+03  0.23438592812E+03  0.00000000000E+00 0. -1.
         25    2    1    2    0    0  0.44488612897E+01  0.57185359205E+02 -0.18027277006E+01  0.13754509308E+03  0.12500178050E+03 0.  0.
          2    1    1    2  501    0  0.29031582906E+02 -0.73718125879E+02 -0.15490834010E+03  0.17399364564E+03  0.00000000000E+00 0. -1.
          1    1    1    2  502    0 -0.33480444196E+02  0.16532766674E+02  0.13351218715E+04  0.13356439212E+04  0.00000000000E+00 0. -1.
         22    1    3    3    0    0  0.29903610969E+02 -0.27053432846E+02 -0.23816059747E+02  0.46832882461E+02  0.00000000000E+00 0. -1.
         22    1    3    3    0    0 -0.25454749679E+02  0.84238792051E+02  0.22013332047E+02  0.90712210618E+02  0.00000000000E+00 0. -1.
</event>
<event>
 7    1  0.6273950E-006  0.1000624E+03  0.7818608E-02  0.1458597E+00
          2   -1    0    0  502    0  0.00000000000E+00  0.00000000000E+00  0.89904293359E+03  0.89904293359E+03  0.00000000000E+00 0. -1.
          1   -1    0    0  501    0 -0.00000000000E+00 -0.00000000000E+00 -0.11960702381E+04  0.11960702381E+04  0.00000000000E+00 0. -1.
         25    2    1    2    0    0 -0.47193029323E+02 -0.67330112414E+02 -0.12463873098E+03  0.19473083050E+03  0.12499902812E+03 0.  0.
          2    1    1    2  501    0 -0.22009022523E+02 -0.54173383824E+01 -0.10333437609E+04  0.10335923146E+04  0.00000000000E+00 0. -1.
          1    1    1    2  502    0  0.69202051846E+02  0.72747450797E+02  0.86095518736E+03  0.86679002660E+03  0.00000000000E+00 0. -1.
         22    1    3    3    0    0  0.32489704615E+02 -0.60297155091E+02 -0.45650187052E+02  0.82312012464E+02  0.00000000000E+00 0. -1.
         22    1    3    3    0    0 -0.79682733938E+02 -0.70329573234E+01 -0.78988543925E+02  0.11241881803E+03  0.00000000000E+00 0. -1.
</event>
<event>
 7    1  0.6273950E-006  0.5920868E+02  0.7818608E-02  0.1432157E+00
          2   -1    0    0  502    0  0.00000000000E+00  0.00000000000E+00  0.33144696781E+03  0.33144696781E+03  0.00000000000E+00 0. -1.
          1   -1    0    0  501    0 -0.00000000000E+00 -0.00000000000E+00 -0.11690857084E+03  0.11690857084E+03  0.00000000000E+00 0. -1.
         25    2    1    2    0    0 -0.71918354363E+02  0.16677546212E+02  0.42926128651E+02  0.15138827422E+03  0.12500146723E+03 0.  0.
          2    1    1    2  501    0  0.53130913395E+02  0.25971450799E+02 -0.45684325011E+02  0.74729296575E+02  0.00000000000E+00 0. -1.
          1    1    1    2  502    0  0.18787440968E+02 -0.42648997011E+02  0.21729659333E+03  0.22223796785E+03  0.00000000000E+00 0. -1.
         22    1    3    3    0    0 -0.78713302515E+01  0.28391939890E+02  0.73701092459E+02  0.79371979441E+02  0.00000000000E+00 0.  1.
         22    1    3    3    0    0 -0.64047024112E+02 -0.11714393678E+02 -0.30774963808E+02  0.72016294783E+02  0.00000000000E+00 0.  1.
</event>
<event>
 7    1  0.6273950E-006  0.6771277E+02  0.7818608E-02  0.1500157E+00
          2   -1    0    0  502    0  0.00000000000E+00  0.00000000000E+00  0.61385849373E+03  0.61385849373E+03  0.00000000000E+00 0. -1.
          1   -1    0    0  501    0 -0.00000000000E+00 -0.00000000000E+00 -0.92068523986E+03  0.92068523986E+03  0.00000000000E+00 0. -1.
         25    2    1    2    0    0 -0.64823279556E+02 -0.28428532902E+02 -0.61239024599E+02  0.15615936255E+03  0.12500115729E+03 0.  0.
          2    1    1    2  501    0  0.16339140327E+02 -0.18876717739E+02 -0.80976767608E+03  0.81015244689E+03  0.00000000000E+00 0. -1.
          1    1    1    2  502    0  0.48484139229E+02  0.47305250641E+02  0.56417995456E+03  0.56823192415E+03  0.00000000000E+00 0. -1.
         22    1    3    3    0    0 -0.15117080381E+01 -0.38767228839E+02  0.26854087584E+02  0.47183951859E+02  0.00000000000E+00 0. -1.
         22    1    3    3    0    0 -0.63311571518E+02  0.10338695937E+02 -0.88093112182E+02  0.10897541069E+03  0.00000000000E+00 0. -1.
</event>
<event>
 7    1  0.6273950E-006  0.2256155E+03  0.7818608E-02  0.1136866E+00
          2   -1    0    0  502    0  0.00000000000E+00  0.00000000000E+00  0.22607394835E+03  0.22607394835E+03  0.00000000000E+00 0. -1.
          1   -1    0    0  501    0 -0.00000000000E+00 -0.00000000000E+00 -0.15328532927E+04  0.15328532927E+04  0.00000000000E+00 0. -1.
         25    2    1    2    0    0 -0.21497215221E+03 -0.17672434225E+03 -0.68565593030E+02  0.31268397653E+03  0.12500203703E+03 0.  0.
          2    1    1    2  501    0 -0.67521500626E+01  0.20677104842E+03 -0.12018874096E+04  0.12195627099E+04  0.00000000000E+00 0. -1.
          1    1    1    2  502    0  0.22172430227E+03 -0.30046706174E+02 -0.36326341786E+02  0.22668055470E+03  0.00000000000E+00 0. -1.
         22    1    3    3    0    0 -0.81277827402E+02 -0.14493730488E+03 -0.22178507697E+02  0.16764484417E+03  0.00000000000E+00 0. -1.
         22    1    3    3    0    0 -0.13369432481E+03 -0.31787037372E+02 -0.46387085333E+02  0.14503913236E+03  0.00000000000E+00 0. -1.
</event>
<event>
 7    1  0.6273950E-006  0.8716647E+02  0.7818608E-02  0.1383064E+00
          2   -1    0    0  502    0  0.00000000000E+00  0.00000000000E+00  0.18613227711E+04  0.18613227711E+04  0.00000000000E+00 0. -1.
          1   -1    0    0  501    0 -0.00000000000E+00 -0.00000000000E+00 -0.23376618360E+03  0.23376618360E+03  0.00000000000E+00 0. -1.
         25    2    1    2    0    0  0.97709366702E+01 -0.92751504580E+02  0.39671841941E+03  0.42627293489E+03  0.12499919167E+03 0.  0.
          2    1    1    2  501    0  0.34943939992E+02  0.79990319605E+02 -0.20990036335E+03  0.22732728104E+03  0.00000000000E+00 0. -1.
          1    1    1    2  502    0 -0.44714876662E+02  0.12761184975E+02  0.14407385314E+04  0.14414887388E+04  0.00000000000E+00 0. -1.
         22    1    3    3    0    0  0.22807406041E+02  0.18991726855E+02  0.28108276771E+02  0.40877116854E+02  0.00000000000E+00 0.  1.
         22    1    3    3    0    0 -0.13036469371E+02 -0.11174323143E+03  0.36861014264E+03  0.38539581804E+03  0.00000000000E+00 0.  1.
</event>
<event>
 7    1  0.8356788E-006  0.1150413E+03  0.7818608E-02  0.1315515E+00
          2   -1    0    0  502    0  0.00000000000E+00  0.00000000000E+00  0.13696968562E+04  0.13696968562E+04  0.00000000000E+00 0. -1.
          1   -1    0    0  501    0 -0.00000000000E+00 -0.00000000000E+00 -0.10905613413E+04  0.10905613413E+04  0.00000000000E+00 0. -1.
         25    2    1    2    0    0 -0.52696696516E+02  0.90323627315E+02 -0.24728971871E+03  0.29615971843E+03  0.12499229722E+03 0.  0.
          2    1    1    2  501    0 -0.49996629571E+02 -0.37930808995E+02 -0.81515837297E+03  0.81757053656E+03  0.00000000000E+00 0. -1.
          1    1    1    2  502    0  0.10269332609E+03 -0.52392818320E+02  0.13415836065E+04  0.13465279425E+04  0.00000000000E+00 0. -1.
         22    1    3    3    0    0 -0.53753646031E+02  0.18059592730E+02 -0.24197724384E+02  0.61653330944E+02  0.00000000000E+00 0. -1.
         22    1    3    3    0    0  0.10569495147E+01  0.72264034585E+02 -0.22309199433E+03  0.23450638748E+03  0.00000000000E+00 0. -1.
</event>
<event>
 7    1  0.6273950E-006  0.6669279E+02  0.7818608E-02  0.1388479E+00
          2   -1    0    0  502    0  0.00000000000E+00  0.00000000000E+00  0.54568142278E+03  0.54568142278E+03  0.00000000000E+00 0. -1.
          1   -1    0    0  501    0 -0.00000000000E+00 -0.00000000000E+00 -0.13637305566E+04  0.13637305566E+04  0.00000000000E+00 0. -1.
         25    2    1    2    0    0  0.55931036635E+02 -0.11920578410E+02 -0.11803114500E+03  0.18118168011E+03  0.12500027588E+03 0.  0.
          2    1    1    2  501    0 -0.26683574495E+02  0.62204837794E+02 -0.12115309300E+04  0.12134202278E+04  0.00000000000E+00 0. -1.
          1    1    1    2  502    0 -0.29247462140E+02 -0.50284259384E+02  0.51151294112E+03  0.51481007150E+03  0.00000000000E+00 0. -1.
         22    1    3    3    0    0  0.69903373498E+02  0.42030449064E+02 -0.74433772119E+02  0.11042385026E+03  0.00000000000E+00 0. -1.
         22    1    3    3    0    0 -0.13972336863E+02 -0.53951027475E+02 -0.43597372881E+02  0.70757829850E+02  0.00000000000E+00 0. -1.
</event>
<event>
 7    1  0.6273950E-006  0.1505565E+03  0.7818608E-02  0.1395218E+00
          2   -1    0    0  502    0  0.00000000000E+00  0.00000000000E+00  0.19562594699E+04  0.19562594699E+04  0.00000000000E+00 0. -1.
          1   -1    0    0  501    0 -0.00000000000E+00 -0.00000000000E+00 -0.85358956033E+03  0.85358956033E+03  0.00000000000E+00 0. -1.
         25    2    1    2    0    0 -0.14846872821E+03 -0.67960908516E+02  0.14070624521E+03  0.24917079843E+03  0.12500476394E+03 0.  0.
          2    1    1    2  501    0  0.12714828937E+03  0.79855452950E+02 -0.79222105954E+03  0.80632362487E+03  0.00000000000E+00 0. -1.
          1    1    1    2  502    0  0.21320438835E+02 -0.11894544434E+02  0.17541847239E+04  0.17543546069E+04  0.00000000000E+00 0. -1.
         22    1    3    3    0    0 -0.73393567654E+02 -0.96857987706E+02  0.61191452305E+02  0.13606057251E+03  0.00000000000E+00 0.  1.
         22    1    3    3    0    0 -0.75075160555E+02  0.28897079190E+02  0.79514792903E+02  0.11311022592E+03  0.00000000000E+00 0.  1.
</event>
<event>
 7    1  0.6273950E-006  0.9610877E+02  0.7818608E-02  0.1358042E+00
          2   -1    0    0  502    0  0.00000000000E+00  0.00000000000E+00  0.75487457063E+03  0.75487457063E+03  0.00000000000E+00 0. -1.
          1   -1    0    0  501    0 -0.00000000000E+00 -0.00000000000E+00 -0.11044378994E+03  0.11044378994E+03  0.00000000000E+00 0. -1.
         25    2    1    2    0    0 -0.36171816047E+02  0.94626350527E+02  0.20858249273E+03  0.26342731830E+03  0.12499899705E+03 0.  0.
          2    1    1    2  501    0 -0.39515710147E+02 -0.33603203047E+02 -0.69809479941E+02  0.86971432626E+02  0.00000000000E+00 0. -1.
          1    1    1    2  502    0  0.75687526194E+02 -0.61023147480E+02  0.50565776791E+03  0.51491960965E+03  0.00000000000E+00 0. -1.
         22    1    3    3    0    0 -0.12362382404E+02 -0.25572821488E+02  0.84045735172E+02  0.88715744364E+02  0.00000000000E+00 0. -1.
         22    1    3    3    0    0 -0.23809433644E+02  0.12019917201E+03  0.12453675756E+03  0.17471157393E+03  0.00000000000E+00 0. -1.
</event>
<event>
 7    1  0.6273950E-006  0.6406595E+02  0.7818608E-02  0.1453793E+00
          2   -1    0    0  502    0  0.00000000000E+00  0.00000000000E+00  0.68727386426E+03  0.68727386426E+03  0.00000000000E+00 0. -1.
          1   -1    0    0  501    0 -0.00000000000E+00 -0.00000000000E+00 -0.34953486100E+03  0.34953486100E+03  0.00000000000E+00 0. -1.
         25    2    1    2    0    0 -0.99514627711E+02 -0.86851693110E+01  0.45348899299E+03  0.48089148607E+03  0.12500304524E+03 0.  0.
          2    1    1    2  501    0  0.62911359949E+02  0.10816752805E+02 -0.33123766088E+03  0.33733252042E+03  0.00000000000E+00 0. -1.
          1    1    1    2  502    0  0.36603267762E+02 -0.21315834943E+01  0.21548767115E+03  0.21858471877E+03  0.00000000000E+00 0. -1.
         22    1    3    3    0    0 -0.51617556565E+01 -0.53936224041E+02  0.12801733234E+03  0.13901150084E+03  0.00000000000E+00 0.  1.
         22    1    3    3    0    0 -0.94352872054E+02  0.45251054730E+02  0.32547166064E+03  0.34187998523E+03  0.00000000000E+00 0.  1.
</event>
<event>
 7    1  0.6273950E-006  0.5094283E+02  0.7818608E-02  0.1455435E+00
          2   -1    0    0  502    0  0.00000000000E+00  0.00000000000E+00  0.14154403092E+03  0.14154403092E+03  0.00000000000E+00 0. -1.
          1   -1    0    0  501    0 -0.00000000000E+00 -0.00000000000E+00 -0.50043487733E+03  0.50043487733E+03  0.00000000000E+00 0. -1.
         25    2    1    2    0    0  0.27353189520E+02  0.58608844151E+02 -0.13149885266E+03  0.19261483575E+03  0.12500133244E+03 0.  0.
          2    1    1    2  501    0  0.17015387144E+02 -0.48258885705E+02 -0.33165615901E+03  0.33558046913E+03  0.00000000000E+00 0. -1.
          1    1    1    2  502    0 -0.44368576664E+02 -0.10349958445E+02  0.10426416527E+03  0.11378360336E+03  0.00000000000E+00 0. -1.
         22    1    3    3    0    0  0.66338506962E+02  0.40792768516E+02 -0.12771342832E+03  0.14958464909E+03  0.00000000000E+00 0.  1.
         22    1    3    3    0    0 -0.38985317442E+02  0.17816075635E+02 -0.37854243402E+01  0.43030186666E+02  0.00000000000E+00 0.  1.
</event>
<event>
 7    1  0.6273950E-006  0.9151908E+02  0.7818608E-02  0.1299321E+00
          2   -1    0    0  502    0  0.00000000000E+00  0.00000000000E+00  0.24791117696E+02  0.24791117696E+02  0.00000000000E+00 0. -1.
          1   -1    0    0  501    0 -0.00000000000E+00 -0.00000000000E+00 -0.21369682494E+04  0.21369682494E+04  0.00000000000E+00 0. -1.
         25    2    1    2    0    0  0.60756872190E+02  0.85302738695E+02 -0.43636076109E+03  0.46583613848E+03  0.12499855738E+03 0.  0.
          2    1    1    2  501    0 -0.94231185025E+02 -0.12519999713E+00 -0.14383212242E+04  0.14414046884E+04  0.00000000000E+00 0. -1.
          1    1    1    2  502    0  0.33474312836E+02 -0.85177538698E+02 -0.23749514644E+03  0.25451854019E+03  0.00000000000E+00 0. -1.
         22    1    3    3    0    0  0.25788152645E+02 -0.22383555342E+02 -0.20978870700E+03  0.21254965055E+03  0.00000000000E+00 0.  1.
         22    1    3    3    0    0  0.34968719544E+02  0.10768629404E+03 -0.22657205409E+03  0.25328648793E+03  0.00000000000E+00 0.  1.
</event>
<event>
 7    1  0.6273950E-006  0.1268632E+03  0.7818608E-02  0.1240324E+00
          2   -1    0    0  502    0  0.00000000000E+00  0.00000000000E+00  0.17122603573E+04  0.17122603573E+04  0.00000000000E+00 0. -1.
          1   -1    0    0  501    0 -0.00000000000E+00 -0.00000000000E+00 -0.79824241534E+02  0.79824241534E+02  0.00000000000E+00 0. -1.
         25    2    1    2    0    0 -0.64590861892E+02 -0.24299932546E+02  0.49427476817E+02  0.15111059566E+03  0.12501548102E+03 0.  0.
          2    1    1    2  501    0  0.47078065851E+02 -0.10682739683E+03  0.10487007218E+03  0.15692727308E+03  0.00000000000E+00 0. -1.
          1    1    1    2  502    0  0.17512796041E+02  0.13112732937E+03  0.14781385667E+04  0.14840467301E+04  0.00000000000E+00 0. -1.
         22    1    3    3    0    0 -0.30096097300E+02  0.17608347071E+02  0.81092000085E+02  0.88270841375E+02  0.00000000000E+00 0.  1.
         22    1    3    3    0    0 -0.34494764592E+02 -0.41908279617E+02 -0.31664523268E+02  0.62839754284E+02  0.00000000000E+00 0.  1.
</event>
<event>
 7    1  0.6273950E-006  0.7932578E+02  0.7818608E-02  0.1335207E+00
          2   -1    0    0  502    0  0.00000000000E+00  0.00000000000E+00  0.13559233631E+04  0.13559233631E+04  0.00000000000E+00 0. -1.
          1   -1    0    0  501    0 -0.00000000000E+00 -0.00000000000E+00 -0.48518243224E+03  0.48518243224E+03  0.00000000000E+00 0. -1.
         25    2    1    2    0    0 -0.49565181284E+02 -0.87085177412E+01  0.69735886208E+02  0.15172379276E+03  0.12499787993E+03 0.  0.
          2    1    1    2  501    0  0.45157446009E+02 -0.67605148875E+02 -0.43928185048E+03  0.44674175453E+03  0.00000000000E+00 0. -1.
          1    1    1    2  502    0  0.44077352749E+01  0.76313666616E+02  0.12402868951E+04  0.12426402480E+04  0.00000000000E+00 0. -1.
         22    1    3    3    0    0 -0.41168272595E+01  0.55327577512E+02  0.36773207623E+02  0.66560933729E+02  0.00000000000E+00 0.  1.
         22    1    3    3    0    0 -0.45448354024E+02 -0.64036095253E+02  0.32962678585E+02  0.85162859031E+02  0.00000000000E+00 0.  1.
</event>
<event>
 7    1  0.7260949E-006  0.8950058E+02  0.7818608E-02  0.1324355E+00
          2   -1    0    0  502    0  0.00000000000E+00  0.00000000000E+00  0.33562348646E+04  0.33562348646E+04  0.00000000000E+00 0. -1.
          1   -1    0    0  501    0 -0.00000000000E+00 -0.00000000000E+00 -0.66056648602E+03  0.66056648602E+03  0.00000000000E+00 0. -1.
         25    2    1    2    0    0  0.43323336304E+02  0.25093326003E+02 -0.16460286603E+03  0.21266356103E+03  0.12500040083E+03 0.  0.
          2    1    1    2  501    0 -0.26887094694E+02 -0.97798509404E+02 -0.46606126830E+03  0.47697019835E+03  0.00000000000E+00 0. -1.
          1    1    1    2  502    0 -0.16436241609E+02  0.72705183402E+02  0.33263325129E+04  0.33271675912E+04  0.00000000000E+00 0. -1.
         22    1    3    3    0    0  0.20162515167E+02 -0.36575890002E+02 -0.13337562821E+03  0.13976187230E+03  0.00000000000E+00 0.  1.
         22    1    3    3    0    0  0.23160821136E+02  0.61669216005E+02 -0.31227237818E+02  0.72901688733E+02  0.00000000000E+00 0.  1.
</event>
<event>
 7    1  0.6273950E-006  0.6646848E+02  0.7818608E-02  0.1394204E+00
          2   -1    0    0  502    0  0.00000000000E+00  0.00000000000E+00  0.16175158941E+04  0.16175158941E+04  0.00000000000E+00 0. -1.
          1   -1    0    0  501    0 -0.00000000000E+00 -0.00000000000E+00 -0.25306183298E+02  0.25306183298E+02  0.00000000000E+00 0. -1.
         25    2    1    2    0    0  0.86529977149E+01 -0.29017563274E+02  0.10719887707E+04  0.10796748018E+04  0.12498343798E+03 0.  0.
          2    1    1    2  501    0 -0.41493063630E+02 -0.51926718017E+02  0.45724029730E+02  0.80676795104E+02  0.00000000000E+00 0. -1.
          1    1    1    2  502    0  0.32840065916E+02  0.80944281291E+02  0.47449691037E+03  0.48247048050E+03  0.00000000000E+00 0. -1.
         22    1    3    3    0    0 -0.12258722245E+02  0.28002800828E+02  0.77170420050E+02  0.83004258059E+02  0.00000000000E+00 0. -1.
         22    1    3    3    0    0  0.20911719960E+02 -0.57020364102E+02  0.99481835069E+03  0.99667054377E+03  0.00000000000E+00 0. -1.
</event>
<event>
 7    1  0.6273950E-006  0.1133910E+03  0.7818608E-02  0.1303257E+00
          2   -1    0    0  502    0  0.00000000000E+00  0.00000000000E+00  0.12536660340E+03  0.12536660340E+03  0.00000000000E+00 0. -1.
          1   -1    0    0  501    0 -0.00000000000E+00 -0.00000000000E+00 -0.13127973087E+04  0.13127973087E+04  0.00000000000E+00 0. -1.
         25    2    1    2    0    0 -0.66952902627E+01 -0.17270914004E+03 -0.48985569818E+03  0.53428088578E+03  0.12499674359E+03 0.  0.
          2    1    1    2  501    0 -0.24193856958E+02  0.66930543110E+02 -0.76918011449E+03  0.77246559072E+03  0.00000000000E+00 0. -1.
          1    1    1    2  502    0  0.30889147221E+02  0.10577859693E+03  0.71605107349E+02  0.13141743562E+03  0.00000000000E+00 0. -1.
         22    1    3    3    0    0  0.38710177234E+02 -0.61916807384E+02 -0.84842014276E+02  0.11193898447E+03  0.00000000000E+00 0. -1.
         22    1    3    3    0    0 -0.45405467497E+02 -0.11079233266E+03 -0.40501368390E+03  0.42234190131E+03  0.00000000000E+00 0. -1.
</event>
<event>
 7    1  0.6273950E-006  0.1497025E+03  0.7818608E-02  0.1410080E+00
          2   -1    0    0  502    0  0.00000000000E+00  0.00000000000E+00  0.11706491060E+03  0.11706491060E+03  0.00000000000E+00 0. -1.
          1   -1    0    0  501    0 -0.00000000000E+00 -0.00000000000E+00 -0.91612821338E+03  0.91612821338E+03  0.00000000000E+00 0. -1.
         25    2    1    2    0    0 -0.12112810798E+03 -0.10544317582E+03 -0.48605863684E+03  0.52694238376E+03  0.12499998192E+03 0.  0.
          2    1    1    2  501    0  0.11582579100E+03  0.84259348973E+02 -0.39564527354E+03  0.42077361398E+03  0.00000000000E+00 0. -1.
          1    1    1    2  502    0  0.53023169853E+01  0.21183826850E+02  0.82640607601E+02  0.85477126239E+02  0.00000000000E+00 0. -1.
         22    1    3    3    0    0 -0.99023018316E+02 -0.56815523511E+02 -0.44543862934E+03  0.45983598639E+03  0.00000000000E+00 0. -1.
         22    1    3    3    0    0 -0.22105089665E+02 -0.48627652311E+02 -0.40620007501E+02  0.67106397369E+02  0.00000000000E+00 0. -1.
</event>
<event>
 7    1  0.6273950E-006  0.6608774E+02  0.7818608E-02  0.1516408E+00
          2   -1    0    0  502    0  0.00000000000E+00  0.00000000000E+00  0.79337134811E+02  0.79337134811E+02  0.00000000000E+00 0. -1.
          1   -1    0    0  501    0 -0.00000000000E+00 -0.00000000000E+00 -0.20946023124E+03  0.20946023124E+03  0.00000000000E+00 0. -1.
         25    2    1    2    0    0  0.99003402854E+01 -0.73583356190E+02 -0.49309267285E+02  0.15351979235E+03  0.12499758300E+03 0.  0.
          2    1    1    2  501    0 -0.27480171683E+02  0.58898989176E+02 -0.89646012854E+02  0.11072785730E+03  0.00000000000E+00 0. -1.
          1    1    1    2  502    0  0.17579831397E+02  0.14684367013E+02  0.88321837075E+01  0.24549716405E+02  0.00000000000E+00 0. -1.
         22    1    3    3    0    0  0.13412168561E+02 -0.77605934487E+02 -0.85901338246E+02  0.11654015293E+03  0.00000000000E+00 0. -1.
         22    1    3    3    0    0 -0.35118282754E+01  0.40225782976E+01  0.36592070961E+02  0.36979639414E+02  0.00000000000E+00 0. -1.
</event>
<event>
 7    1  0.6273950E-006  0.8978677E+02  0.7818608E-02  0.1332223E+00
          2   -1    0    0  502    0  0.00000000000E+00  0.00000000000E+00  0.17747650840E+04  0.17747650840E+04  0.00000000000E+00 0. -1.
          1   -1    0    0  501    0 -0.00000000000E+00 -0.00000000000E+00 -0.93427488438E+03  0.93427488438E+03  0.00000000000E+00 0. -1.
         25    2    1    2    0    0  0.11538958948E+03 -0.99414292057E+02  0.12041075425E+03  0.23091549077E+03  0.12500102125E+03 0.  0.
          2    1    1    2  501    0 -0.51429069262E+02  0.72685686502E+02 -0.87601344048E+03  0.88052694796E+03  0.00000000000E+00 0. -1.
          1    1    1    2  502    0 -0.63960520223E+02  0.26728605555E+02  0.15960928859E+04  0.15975975297E+04  0.00000000000E+00 0. -1.
         22    1    3    3    0    0  0.70160828771E+02  0.13314244548E+02  0.22410239339E+02  0.74846708872E+02  0.00000000000E+00 0.  1.
         22    1    3    3    0    0  0.45228760713E+02 -0.11272853661E+03  0.98000514914E+02  0.15606878190E+03  0.00000000000E+00 0.  1.
</event>
<event>
 7    1  0.6273950E-006  0.4433575E+02  0.7818608E-02  0.1532540E+00
          2   -1    0    0  502    0  0.00000000000E+00  0.00000000000E+00  0.16195086507E+04  0.16195086507E+04  0.00000000000E+00 0. -1.
          1   -1    0    0  501    0 -0.00000000000E+00 -0.00000000000E+00 -0.48625834803E+03  0.48625834803E+03  0.00000000000E+00 0. -1.
         25    2    1    2    0    0  0.13857924324E+02 -0.17886460576E+02 -0.82615501180E+02  0.15153775844E+03  0.12500561451E+03 0.  0.
          2    1    1    2  501    0  0.29513680881E+02  0.83512738509E+01 -0.36823293604E+03  0.36950818167E+03  0.00000000000E+00 0. -1.
          1    1    1    2  502    0 -0.43371605204E+02  0.95351867252E+01  0.15840987399E+04  0.15847210586E+04  0.00000000000E+00 0. -1.
         22    1    3    3    0    0 -0.24822464342E+02 -0.36434325606E+02  0.13646370369E+02  0.46150170559E+02  0.00000000000E+00 0.  1.
         22    1    3    3    0    0  0.38680388666E+02  0.18547865030E+02 -0.96261871549E+02  0.10538758788E+03  0.00000000000E+00 0.  1.
</event>
<event>
 7    1  0.6273950E-006  0.1090932E+03  0.7818608E-02  0.1397063E+00
          2   -1    0    0  502    0  0.00000000000E+00  0.00000000000E+00  0.54523206799E+03  0.54523206799E+03  0.00000000000E+00 0. -1.
          1   -1    0    0  501    0 -0.00000000000E+00 -0.00000000000E+00 -0.43915056445E+03  0.43915056445E+03  0.00000000000E+00 0. -1.
         25    2    1    2    0    0  0.58171557628E+02  0.88154335822E+02 -0.13724895314E+03  0.21358165449E+03  0.12499892382E+03 0.  0.
          2    1    1    2  501    0 -0.28456680918E+02  0.17104497461E+02 -0.25675605846E+03  0.25889383939E+03  0.00000000000E+00 0. -1.
          1    1    1    2  502    0 -0.29714876710E+02 -0.10525883328E+03  0.50008651514E+03  0.51190713856E+03  0.00000000000E+00 0. -1.
         22    1    3    3    0    0 -0.12573794796E+02 -0.15863240268E+02  0.77005872974E+01  0.21657371772E+02  0.00000000000E+00 0. -1.
         22    1    3    3    0    0  0.70745352424E+02  0.10401757609E+03 -0.14494954044E+03  0.19192428272E+03  0.00000000000E+00 0. -1.
</event>
<event>
 7    1  0.7811854E-006  0.9754094E+02  0.7818608E-02  0.1340171E+00
          2   -1    0    0  502    0  0.00000000000E+00  0.00000000000E+00  0.12671987372E+04  0.12671987372E+04  0.00000000000E+00 0. -1.
          1   -1    0    0  501    0 -0.00000000000E+00 -0.00000000000E+00 -0.13857765837E+04  0.13857765837E+04  0.00000000000E+00 0. -1.
         25    2    1    2    0    0  0.58815903436E+02  0.10031068495E+03 -0.19519780967E+03  0.25934533500E+03  0.12504508738E+03 0.  0.
          2    1    1    2  501    0  0.64908113564E+00 -0.97317978668E+02 -0.11557411624E+04  0.11598313863E+04  0.00000000000E+00 0. -1.
          1    1    1    2  502    0 -0.59464984572E+02 -0.29927062818E+01  0.12323611255E+04  0.12337985996E+04  0.00000000000E+00 0. -1.
         22    1    3    3    0    0  0.59537248061E+02  0.10407607548E+03 -0.21121535296E+03  0.24287535635E+03  0.00000000000E+00 0. -1.
         22    1    3    3    0    0 -0.72134462498E+00 -0.37653905344E+01  0.16017543291E+02  0.16469978659E+02  0.00000000000E+00 0. -1.
</event>
<event>
 7    1  0.6273950E-006  0.9097432E+02  0.7818608E-02  0.1398664E+00
          2   -1    0    0  502    0  0.00000000000E+00  0.00000000000E+00  0.94219459094E+03  0.94219459094E+03  0.00000000000E+00 0. -1.
          1   -1    0    0  501    0 -0.00000000000E+00 -0.00000000000E+00 -0.16752498559E+04  0.16752498559E+04  0.00000000000E+00 0. -1.
         25    2    1    2    0    0 -0.50898722224E+02 -0.24099567393E+02  0.15665312703E+03  0.20816724600E+03  0.12498772351E+03 0.  0.
          2    1    1    2  501    0 -0.30685119933E+02 -0.24571954512E+02 -0.16462876996E+04  0.16467569788E+04  0.00000000000E+00 0. -1.
          1    1    1    2  502    0  0.81583842157E+02  0.48671521905E+02  0.75657930757E+03  0.76252022202E+03  0.00000000000E+00 0. -1.
         22    1    3    3    0    0 -0.79520836897E+02 -0.45904050519E+02  0.14246305220E+03  0.16948883916E+03  0.00000000000E+00 0.  1.
         22    1    3    3    0    0  0.28622114673E+02  0.21804483126E+02  0.14190074827E+02  0.38678406848E+02  0.00000000000E+00 0.  1.
</event>
<event>
 7    1  0.6273950E-006  0.6366847E+02  0.7818608E-02  0.1417621E+00
          2   -1    0    0  502    0  0.00000000000E+00  0.00000000000E+00  0.14292567198E+03  0.14292567198E+03  0.00000000000E+00 0. -1.
          1   -1    0    0  501    0 -0.00000000000E+00 -0.00000000000E+00 -0.66918392864E+03  0.66918392864E+03  0.00000000000E+00 0. -1.
         25    2    1    2    0    0  0.34671809272E+02 -0.19924843467E+02  0.37925781017E+02  0.13660495056E+03  0.12499365546E+03 0.  0.
          2    1    1    2  501    0  0.75649895999E+01 -0.47832879453E+02 -0.58969811996E+03  0.59168326502E+03  0.00000000000E+00 0. -1.
          1    1    1    2  502    0 -0.42236798872E+02  0.67757722920E+02  0.25514082289E+02  0.83821385036E+02  0.00000000000E+00 0. -1.
         22    1    3    3    0    0  0.23387093537E+02 -0.70640842178E+02  0.39307405466E+01  0.74515337005E+02  0.00000000000E+00 0.  1.
         22    1    3    3    0    0  0.11284715735E+02  0.50715998711E+02  0.33995040470E+02  0.62089613552E+02  0.00000000000E+00 0.  1.
</event>
<event>
 7    1  0.6273950E-006  0.3861389E+02  0.7818608E-02  0.1524427E+00
          2   -1    0    0  502    0  0.00000000000E+00  0.00000000000E+00  0.51080138283E+03  0.51080138283E+03  0.00000000000E+00 0. -1.
          1   -1    0    0  501    0 -0.00000000000E+00 -0.00000000000E+00 -0.76992514297E+02  0.76992514297E+02  0.00000000000E+00 0. -1.
         25    2    1    2    0    0 -0.36070067633E+02 -0.34939318607E+02  0.21875420420E+03  0.25690413149E+03  0.12499810062E+03 0.  0.
          2    1    1    2  501    0  0.36951896544E+02 -0.39082837125E+01 -0.50394009688E+02  0.62612087908E+02  0.00000000000E+00 0. -1.
          1    1    1    2  502    0 -0.88182891088E+00  0.38847602319E+02  0.26544867402E+03  0.26827767773E+03  0.00000000000E+00 0. -1.
         22    1    3    3    0    0  0.14642724796E+02  0.29022438405E+02  0.12053488007E+02  0.34669841268E+02  0.00000000000E+00 0. -1.
         22    1    3    3    0    0 -0.50712792429E+02 -0.63961757012E+02  0.20670071620E+03  0.22223429023E+03  0.00000000000E+00 0. -1.
</event>
<event>
 7    1  0.6273950E-006  0.2415827E+03  0.7818608E-02  0.1269574E+00
          2   -1    0    0  502    0  0.00000000000E+00  0.00000000000E+00  0.16551895639E+04  0.16551895639E+04  0.00000000000E+00 0. -1.
          1   -1    0    0  501    0 -0.00000000000E+00 -0.00000000000E+00 -0.12237989937E+03  0.12237989937E+03  0.00000000000E+00 0. -1.
         25    2    1    2    0    0  0.10723350731E+03  0.25052062501E+03  0.59573662652E+03  0.66692373728E+03  0.12500213810E+03 0.  0.
          2    1    1    2  501    0 -0.13608994013E+01 -0.45857673251E+02 -0.66593975758E+02  0.80867396709E+02  0.00000000000E+00 0. -1.
          1    1    1    2  502    0 -0.10587260791E+03 -0.20466295176E+03  0.10036670138E+04  0.10297783293E+04  0.00000000000E+00 0. -1.
         22    1    3    3    0    0  0.44928953691E+02  0.22932736449E+03  0.47706670792E+03  0.53122715931E+03  0.00000000000E+00 0. -1.
         22    1    3    3    0    0  0.62304553621E+02  0.21193260527E+02  0.11866991859E+03  0.13569657797E+03  0.00000000000E+00 0. -1.
</event>
<event>
 7    1  0.6273950E-006  0.1253969E+03  0.7818608E-02  0.1249411E+00
          2   -1    0    0  502    0  0.00000000000E+00  0.00000000000E+00  0.26593024092E+04  0.26593024092E+04  0.00000000000E+00 0. -1.
          1   -1    0    0  501    0 -0.00000000000E+00 -0.00000000000E+00 -0.10060078132E+04  0.10060078132E+04  0.00000000000E+00 0. -1.
         25    2    1    2    0    0 -0.87739543039E+02 -0.87624770857E+01 -0.10733532593E+03  0.18687124025E+03  0.12499991930E+03 0.  0.
          2    1    1    2  501    0  0.70025022302E+02  0.11507058802E+03 -0.85250556720E+03  0.86308196951E+03  0.00000000000E+00 0. -1.
          1    1    1    2  502    0  0.17714520737E+02 -0.10630811093E+03  0.26131354892E+04  0.26153570127E+04  0.00000000000E+00 0. -1.
         22    1    3    3    0    0 -0.10072296990E+03 -0.19702048414E+02 -0.12542396280E+03  0.16206312912E+03  0.00000000000E+00 0.  1.
         22    1    3    3    0    0  0.12983426858E+02  0.10939571328E+02  0.18088636874E+02  0.24808111129E+02  0.00000000000E+00 0.  1.
</event>
<event>
 7    1  0.6273950E-006  0.1711758E+03  0.7818608E-02  0.1268627E+00
          2   -1    0    0  502    0  0.00000000000E+00  0.00000000000E+00  0.28794449878E+04  0.28794449878E+04  0.00000000000E+00 0. -1.
          1   -1    0    0  501    0 -0.00000000000E+00 -0.00000000000E+00 -0.53258714404E+02  0.53258714404E+02  0.00000000000E+00 0. -1.
         25    2    1    2    0    0 -0.90378157255E+02 -0.12081661313E+03  0.10432334464E+04  0.10614731379E+04  0.12499733393E+03 0.  0.
          2    1    1    2  501    0 -0.62936008202E+02  0.17579265460E+02 -0.12296086594E+02  0.66491844974E+02  0.00000000000E+00 0. -1.
          1    1    1    2  502    0  0.15331416546E+03  0.10323734767E+03  0.17952489136E+04  0.18047387194E+04  0.00000000000E+00 0. -1.
         22    1    3    3    0    0  0.22921486020E+02 -0.24971159395E+02  0.80146300003E+02  0.87019438789E+02  0.00000000000E+00 0. -1.
         22    1    3    3    0    0 -0.11329964327E+03 -0.95845453739E+02  0.96308714636E+03  0.97445369908E+03  0.00000000000E+00 0. -1.
</event>
<event>
 7    1  0.6273950E-006  0.6658990E+02  0.7818608E-02  0.1426140E+00
          2   -1    0    0  502    0  0.00000000000E+00  0.00000000000E+00  0.27347632269E+04  0.27347632269E+04  0.00000000000E+00 0. -1.
          1   -1    0    0  501    0 -0.00000000000E+00 -0.00000000000E+00 -0.13541175272E+03  0.13541175272E+03  0.00000000000E+00 0. -1.
         25    2    1    2    0    0 -0.18234170417E+01 -0.56058736206E+02  0.32271995169E+03  0.35059790277E+03  0.12499926180E+03 0.  0.
          2    1    1    2  501    0 -0.41438869941E+02  0.52946828340E+02 -0.11195716246E+03  0.13059461244E+03  0.00000000000E+00 0. -1.
          1    1    1    2  502    0  0.43262286983E+02  0.31119078659E+01  0.23885886849E+04  0.23889824644E+04  0.00000000000E+00 0. -1.
         22    1    3    3    0    0 -0.45163141734E+02 -0.75386157617E+02  0.18229499650E+03  0.20237155897E+03  0.00000000000E+00 0.  1.
         22    1    3    3    0    0  0.43339724693E+02  0.19327421411E+02  0.14042495520E+03  0.14822634380E+03  0.00000000000E+00 0.  1.
</event>
<event>
 7    1  0.6273950E-006  0.6367490E+02  0.7818608E-02  0.1409578E+00
          2   -1    0    0  502    0  0.00000000000E+00  0.00000000000E+00  0.35110715070E+03  0.35110715070E+03  0.00000000000E+00 0. -1.
          1   -1    0    0  501    0 -0.00000000000E+00 -0.00000000000E+00 -0.17783732800E+03  0.17783732800E+03  0.00000000000E+00 0. -1.
         25    2    1    2    0    0 -0.54879778598E+01 -0.96428288119E+02  0.17678563706E+03  0.23708106735E+03  0.12500295346E+03 0.  0.
          2    1    1    2  501    0 -0.23798265648E+02  0.45718683024E+02 -0.13685125642E+03  0.14623550119E+03  0.00000000000E+00 0. -1.
          1    1    1    2  502    0  0.29286243508E+02  0.50709605095E+02  0.13333544206E+03  0.14562791016E+03  0.00000000000E+00 0. -1.
         22    1    3    3    0    0  0.43339382741E+02 -0.89138592119E+02  0.76160137142E+02  0.12499742874E+03  0.00000000000E+00 0.  1.
         22    1    3    3    0    0 -0.48827360601E+02 -0.72896960000E+01  0.10062549992E+03  0.11208363861E+03  0.00000000000E+00 0.  1.
</event>
<event>
 7    1  0.6273950E-006  0.1540045E+03  0.7818608E-02  0.1344354E+00
          2   -1    0    0  502    0  0.00000000000E+00  0.00000000000E+00  0.45717974696E+03  0.45717974696E+03  0.00000000000E+00 0. -1.
          1   -1    0    0  501    0 -0.00000000000E+00 -0.00000000000E+00 -0.19263112564E+04  0.19263112564E+04  0.00000000000E+00 0. -1.
         25    2    1    2    0    0 -0.11991477718E+03  0.13672136354E+03 -0.53735283060E+03  0.58090107189E+03  0.12500282291E+03 0.  0.
          2    1    1    2  501    0  0.87263453704E+02 -0.12069268908E+03 -0.13623591496E+04  0.13704758619E+04  0.00000000000E+00 0. -1.
          1    1    1    2  502    0  0.32651323471E+02 -0.16028674457E+02  0.43058047075E+03  0.43211406957E+03  0.00000000000E+00 0. -1.
         22    1    3    3    0    0 -0.11383085791E+03  0.13699783355E+03 -0.34333596866E+03  0.38678864769E+03  0.00000000000E+00 0.  1.
         22    1    3    3    0    0 -0.60839192632E+01 -0.27647001171E+00 -0.19401686194E+03  0.19411242420E+03  0.00000000000E+00 0.  1.
</event>
<event>
 7    1  0.6273950E-006  0.9987045E+02  0.7818608E-02  0.1406188E+00
          2   -1    0    0  502    0  0.00000000000E+00  0.00000000000E+00  0.52465961042E+03  0.52465961042E+03  0.00000000000E+00 0. -1.
          1   -1    0    0  501    0 -0.00000000000E+00 -0.00000000000E+00 -0.10507148051E+04  0.10507148051E+04  0.00000000000E+00 0. -1.
         25    2    1    2    0    0  0.82440394709E+02  0.16756598635E+01 -0.56802303109E+03  0.58743015476E+03  0.12499918545E+03 0.  0.
          2    1    1    2  501    0  0.13200152485E+02 -0.31056628757E+02 -0.46751450374E+03  0.46873080699E+03  0.00000000000E+00 0. -1.
          1    1    1    2  502    0 -0.95640547194E+02  0.29380968894E+02  0.50948234017E+03  0.51921345374E+03  0.00000000000E+00 0. -1.
         22    1    3    3    0    0  0.77140701893E+02  0.44208029660E+02 -0.22809953743E+03  0.24481510728E+03  0.00000000000E+00 0.  1.
         22    1    3    3    0    0  0.52996928164E+01 -0.42532369796E+02 -0.33992349366E+03  0.34261504749E+03  0.00000000000E+00 0.  1.
</event>
<event>
 7    1  0.6273950E-006  0.4678046E+02  0.7818608E-02  0.1562899E+00
          2   -1    0    0  502    0  0.00000000000E+00  0.00000000000E+00  0.15014406108E+04  0.15014406108E+04  0.00000000000E+00 0. -1.
          1   -1    0    0  501    0 -0.00000000000E+00 -0.00000000000E+00 -0.12357352120E+04  0.12357352120E+04  0.00000000000E+00 0. -1.
         25    2    1    2    0    0 -0.35561203085E+02 -0.23373692547E+02  0.20499383230E+03  0.24383897610E+03  0.12499618521E+03 0.  0.
          2    1    1    2  501    0 -0.11382722860E+02  0.21021088237E+02 -0.12157625996E+04  0.12159975951E+04  0.00000000000E+00 0. -1.
          1    1    1    2  502    0  0.46943925945E+02  0.23526043104E+01  0.12764741661E+04  0.12773392516E+04  0.00000000000E+00 0. -1.
         22    1    3    3    0    0 -0.31272520780E+02  0.48562651964E+02  0.11369600094E+03  0.12752679072E+03  0.00000000000E+00 0. -1.
         22    1    3    3    0    0 -0.42886823056E+01 -0.71936344511E+02  0.91297831360E+02  0.11631218538E+03  0.00000000000E+00 0. -1.
</event>
<event>
 7    1  0.6273950E-006  0.6896389E+02  0.7818608E-02  0.1371637E+00
          2   -1    0    0  502    0  0.00000000000E+00  0.00000000000E+00  0.10682603355E+03  0.10682603355E+03  0.00000000000E+00 0. -1.
          1   -1    0    0  501    0 -0.00000000000E+00 -0.00000000000E+00 -0.83085565106E+03  0.83085565106E+03  0.00000000000E+00 0. -1.
         25    2    1    2    0    0 -0.11359284732E+03 -0.51356175139E+02 -0.60999444542E+02  0.18677612973E+03  0.12499439475E+03 0.  0.
          2    1    1    2  501    0  0.67353717746E+02  0.63329200551E+01 -0.68065148616E+03  0.68400517161E+03  0.00000000000E+00 0. -1.
          1    1    1    2  502    0  0.46239129569E+02  0.45023255084E+02  0.17621313197E+02  0.66900383261E+02  0.00000000000E+00 0. -1.
         22    1    3    3    0    0 -0.67213209584E+02 -0.89295473884E+02 -0.59990927723E+02  0.12684718605E+03  0.00000000000E+00 0. -1.
         22    1    3    3    0    0 -0.46379637731E+02  0.37939298745E+02 -0.10085168196E+01  0.59928943688E+02  0.00000000000E+00 0. -1.
</event>
<event>
 7    1  0.6273950E-006  0.1391156E+03  0.7818608E-02  0.1301670E+00
          2   -1    0    0  502    0  0.00000000000E+00  0.00000000000E+00  0.13624591633E+04  0.13624591633E+04  0.00000000000E+00 0. -1.
          1   -1    0    0  501    0 -0.00000000000E+00 -0.00000000000E+00 -0.23546500167E+04  0.23546500167E+04  0.00000000000E+00 0. -1.
         25    2    1    2    0    0  0.14358930031E+03  0.26215863499E+02 -0.94504719384E+03  0.96438805375E+03  0.12499984390E+03 0.  0.
          2    1    1    2  501    0 -0.82000191371E+01 -0.58286231611E+02 -0.13957329044E+04  0.13969734663E+04  0.00000000000E+00 0. -1.
          1    1    1    2  502    0 -0.13538928117E+03  0.32070368111E+02  0.13485892449E+04  0.13557476600E+04  0.00000000000E+00 0. -1.
         22    1    3    3    0    0  0.58401862659E+02  0.72566064111E+02 -0.53331381525E+03  0.54138732600E+03  0.00000000000E+00 0. -1.
         22    1    3    3    0    0  0.85187437648E+02 -0.46350200611E+02 -0.41173337859E+03  0.42300072775E+03  0.00000000000E+00 0. -1.
</event>
<event>
 7    1  0.6273950E-006  0.1024135E+03  0.7818608E-02  0.1387345E+00
          2   -1    0    0  502    0  0.00000000000E+00  0.00000000000E+00  0.50734661229E+03  0.50734661229E+03  0.00000000000E+00 0. -1.
          1   -1    0    0  501    0 -0.00000000000E+00 -0.00000000000E+00 -0.80275738830E+03  0.80275738830E+03  0.00000000000E+00 0. -1.
         25    2    1    2    0    0  0.12834151038E+03  0.29737055538E+02  0.36858946099E+02  0.18530943706E+03  0.12500067919E+03 0.  0.
          2    1    1    2  501    0 -0.28335202477E+02 -0.25663955144E+02 -0.72169792570E+03  0.72270977456E+03  0.00000000000E+00 0. -1.
          1    1    1    2  502    0 -0.10000630790E+03 -0.40731003942E+01  0.38942820359E+03  0.40208478896E+03  0.00000000000E+00 0. -1.
         22    1    3    3    0    0  0.12459726441E+03  0.57950943176E+02 -0.16497271190E+01  0.13742456736E+03  0.00000000000E+00 0. -1.
         22    1    3    3    0    0  0.37442459633E+01 -0.28213887638E+02  0.38508673218E+02  0.47884869703E+02  0.00000000000E+00 0. -1.
</event>
<event>
 7    1  0.6273950E-006  0.4534259E+02  0.7818608E-02  0.1512529E+00
          2   -1    0    0  502    0  0.00000000000E+00  0.00000000000E+00  0.21327622799E+03  0.21327622799E+03  0.00000000000E+00 0. -1.
          1   -1    0    0  501    0 -0.00000000000E+00 -0.00000000000E+00 -0.24465525538E+03  0.24465525538E+03  0.00000000000E+00 0. -1.
         25    2    1    2    0    0  0.64922928493E+01 -0.38021408122E+02 -0.54213684089E+02  0.14160510601E+03  0.12500042065E+03 0.  0.
          2    1    1    2  501    0  0.27776655416E+02  0.37782261871E+02 -0.14118279323E+03  0.14876700912E+03  0.00000000000E+00 0. -1.
          1    1    1    2  502    0 -0.34268948265E+02  0.23914625147E+00  0.16401744993E+03  0.16755936825E+03  0.00000000000E+00 0. -1.
         22    1    3    3    0    0  0.34069488904E+02 -0.75871422721E+02 -0.27006176606E+02  0.87444476297E+02  0.00000000000E+00 0.  1.
         22    1    3    3    0    0 -0.27577196055E+02  0.37850014599E+02 -0.27207507483E+02  0.54160629713E+02  0.00000000000E+00 0.  1.
</event>
<event>
 7    1  0.6273950E-006  0.6987636E+02  0.7818608E-02  0.1365846E+00
          2   -1    0    0  502    0  0.00000000000E+00  0.00000000000E+00  0.18244579474E+04  0.18244579474E+04  0.00000000000E+00 0. -1.
          1   -1    0    0  501    0 -0.00000000000E+00 -0.00000000000E+00 -0.14035610842E+03  0.14035610842E+03  0.00000000000E+00 0. -1.
         25    2    1    2    0    0  0.69942777234E+01 -0.88139666264E+02  0.53766589755E+03  0.55904062890E+03  0.12499714673E+03 0.  0.
          2    1    1    2  501    0 -0.55676484044E+02  0.36962762289E+02 -0.12000818220E+03  0.13736113157E+03  0.00000000000E+00 0. -1.
          1    1    1    2  502    0  0.48682206321E+02  0.51176903975E+02  0.12664441236E+04  0.12684122954E+04  0.00000000000E+00 0. -1.
         22    1    3    3    0    0  0.28057995058E+02  0.25231479120E+02  0.12584155060E+03  0.13137722209E+03  0.00000000000E+00 0. -1.
         22    1    3    3    0    0 -0.21063717335E+02 -0.11337114538E+03  0.41182434695E+03  0.42766340682E+03  0.00000000000E+00 0. -1.
</event>
<event>
 7    1  0.6273950E-006  0.1108791E+03  0.7818608E-02  0.1327430E+00
          2   -1    0    0  502    0  0.00000000000E+00  0.00000000000E+00  0.58350630025E+03  0.58350630025E+03  0.00000000000E+00 0. -1.
          1   -1    0    0  501    0 -0.00000000000E+00 -0.00000000000E+00 -0.58856706255E+03  0.58856706255E+03  0.00000000000E+00 0. -1.
         25    2    1    2    0    0 -0.65982081126E+02 -0.26580571257E+02  0.90796393582E+02  0.17007683075E+03  0.12498792531E+03 0.  0.
          2    1    1    2  501    0 -0.22319887302E+02 -0.54130701476E+02 -0.53941790323E+03  0.54258638440E+03  0.00000000000E+00 0. -1.
          1    1    1    2  502    0  0.88301968428E+02  0.80711272733E+02  0.44356074735E+03  0.45941014765E+03  0.00000000000E+00 0. -1.
         22    1    3    3    0    0  0.26950584708E+02 -0.17857249611E+02 -0.88721044559E+01  0.33525059541E+02  0.00000000000E+00 0.  1.
         22    1    3    3    0    0 -0.92932665834E+02 -0.87233216457E+01  0.99668498038E+02  0.13655177121E+03  0.00000000000E+00 0.  1.
</event>
<event>
 7    1  0.6273950E-006  0.2617671E+03  0.7818608E-02  0.1287290E+00
          2   -1    0    0  502    0  0.00000000000E+00  0.00000000000E+00  0.15790785314E+04  0.15790785314E+04  0.00000000000E+00 0. -1.
          1   -1    0    0  501    0 -0.00000000000E+00 -0.00000000000E+00 -0.16666536626E+03  0.16666536626E+03  0.00000000000E+00 0. -1.
         25    2    1    2    0    0 -0.25580389104E+03  0.35457878110E+01  0.76890906574E+03  0.81993556969E+03  0.12499993511E+03 0.  0.
          2    1    1    2  501    0  0.26106780295E+03  0.31821107067E+02 -0.17740552303E+02  0.26359762477E+03  0.00000000000E+00 0. -1.
          1    1    1    2  502    0 -0.52639119033E+01 -0.35366894878E+02  0.66124465171E+03  0.66221070321E+03  0.00000000000E+00 0. -1.
         22    1    3    3    0    0 -0.25761256081E+03  0.28227668527E+02  0.68226433757E+03  0.72982577310E+03  0.00000000000E+00 0. -1.
         22    1    3    3    0    0  0.18086697646E+01 -0.24681880716E+02  0.86644728173E+02  0.90109796594E+02  0.00000000000E+00 0. -1.
</event>
<event>
 7    1  0.6273950E-006  0.4989150E+02  0.7818608E-02  0.1523561E+00
          2   -1    0    0  502    0  0.00000000000E+00  0.00000000000E+00  0.72827378206E+03  0.72827378206E+03  0.00000000000E+00 0. -1.
          1   -1    0    0  501    0 -0.00000000000E+00 -0.00000000000E+00 -0.10289490188E+03  0.10289490188E+03  0.00000000000E+00 0. -1.
         25    2    1    2    0    0  0.29362869317E+02 -0.23905249453E+02  0.23535458569E+03  0.26916587909E+03  0.12499940167E+03 0.  0.
          2    1    1    2  501    0  0.21785026146E+02  0.19027632822E+02 -0.82123089421E+02  0.87068019336E+02  0.00000000000E+00 0. -1.
          1    1    1    2  502    0 -0.51147895463E+02  0.48776166313E+01  0.47214738391E+03  0.47493478551E+03  0.00000000000E+00 0. -1.
         22    1    3    3    0    0  0.47098305345E+02 -0.54466620572E+02  0.71244207511E+02  0.10129462092E+03  0.00000000000E+00 0. -1.
         22    1    3    3    0    0 -0.17735436028E+02  0.30561371119E+02  0.16411037818E+03  0.16787125817E+03  0.00000000000E+00 0. -1.
</event>
<event>
 7    1  0.6273950E-006  0.8680098E+02  0.7818608E-02  0.1352450E+00
          2   -1    0    0  502    0  0.00000000000E+00  0.00000000000E+00  0.23354173130E+04  0.23354173130E+04  0.00000000000E+00 0. -1.
          1   -1    0    0  501    0 -0.00000000000E+00 -0.00000000000E+00 -0.43756198733E+02  0.43756198733E+02  0.00000000000E+00 0. -1.
         25    2    1    2    0    0  0.36953570091E+02  0.35172202261E+02  0.10588618794E+04  0.10674326518E+04  0.12498534436E+03 0.  0.
          2    1    1    2  501    0 -0.88969326358E+02 -0.48322054148E+01  0.12518887766E+02  0.89975628882E+02  0.00000000000E+00 0. -1.
          1    1    1    2  502    0  0.52015756267E+02 -0.30339996846E+02  0.12202803471E+04  0.12217652310E+04  0.00000000000E+00 0. -1.
         22    1    3    3    0    0  0.47121688316E+02  0.24700058149E+02  0.10477193870E+04  0.10490693305E+04  0.00000000000E+00 0.  1.
         22    1    3    3    0    0 -0.10168118225E+02  0.10472144112E+02  0.11142492406E+02  0.18363321256E+02  0.00000000000E+00 0.  1.
</event>
<event>
 7    1  0.6273950E-006  0.8403867E+02  0.7818608E-02  0.1365755E+00
          2   -1    0    0  502    0  0.00000000000E+00  0.00000000000E+00  0.34320353242E+03  0.34320353242E+03  0.00000000000E+00 0. -1.
          1   -1    0    0  501    0 -0.00000000000E+00 -0.00000000000E+00 -0.13197686249E+03  0.13197686249E+03  0.00000000000E+00 0. -1.
         25    2    1    2    0    0  0.98377930239E+02 -0.41673866570E+02  0.11712458465E+03  0.20188665419E+03  0.12500049798E+03 0.  0.
          2    1    1    2  501    0 -0.48819657312E+02  0.66899057227E+02 -0.64662685798E+02  0.10507190744E+03  0.00000000000E+00 0. -1.
          1    1    1    2  502    0 -0.49558272927E+02 -0.25225190656E+02  0.15876477107E+03  0.16822183328E+03  0.00000000000E+00 0. -1.
         22    1    3    3    0    0  0.11748019599E+03 -0.10790875505E+02  0.55543077575E+02  0.13039583164E+03  0.00000000000E+00 0. -1.
         22    1    3    3    0    0 -0.19102265749E+02 -0.30882991066E+02  0.61581507078E+02  0.71490822543E+02  0.00000000000E+00 0. -1.
</event>
<event>
 7    1  0.6273950E-006  0.1687086E+03  0.7818608E-02  0.1220603E+00
          2   -1    0    0  502    0  0.00000000000E+00  0.00000000000E+00  0.69968196850E+03  0.69968196850E+03  0.00000000000E+00 0. -1.
          1   -1    0    0  501    0 -0.00000000000E+00 -0.00000000000E+00 -0.94631261440E+03  0.94631261440E+03  0.00000000000E+00 0. -1.
         25    2    1    2    0    0 -0.21832665080E+03 -0.18711758702E+02 -0.20043057381E+03  0.32220269113E+03  0.12500201155E+03 0.  0.
          2    1    1    2  501    0  0.64748326749E+02  0.85929892319E+02 -0.66962812381E+03  0.67821686532E+03  0.00000000000E+00 0. -1.
          1    1    1    2  502    0  0.15357832405E+03 -0.67218133617E+02  0.62342805172E+03  0.64557502645E+03  0.00000000000E+00 0. -1.
         22    1    3    3    0    0 -0.14815512558E+03 -0.43068055001E+02 -0.64349855648E+02  0.16716968182E+03  0.00000000000E+00 0. -1.
         22    1    3    3    0    0 -0.70171525218E+02  0.24356296299E+02 -0.13608071816E+03  0.15503300931E+03  0.00000000000E+00 0. -1.
</event>
<event>
 7    1  0.6273950E-006  0.1147403E+03  0.7818608E-02  0.1258594E+00
          2   -1    0    0  502    0  0.00000000000E+00  0.00000000000E+00  0.11217533123E+03  0.11217533123E+03  0.00000000000E+00 0. -1.
          1   -1    0    0  501    0 -0.00000000000E+00 -0.00000000000E+00 -0.22388195812E+04  0.22388195812E+04  0.00000000000E+00 0. -1.
         25    2    1    2    0    0 -0.35337595445E+02  0.21184701309E+03 -0.59094265982E+03  0.64106684989E+03  0.12500230489E+03 0.  0.
          2    1    1    2  501    0  0.31704091330E+02 -0.10274394556E+03 -0.15860658928E+04  0.15897064144E+04  0.00000000000E+00 0. -1.
          1    1    1    2  502    0  0.36335041148E+01 -0.10910306753E+03  0.50364302644E+02  0.12022164812E+03  0.00000000000E+00 0. -1.
         22    1    3    3    0    0  0.43711884853E+02  0.11696976022E+03 -0.30782586667E+03  0.33218882864E+03  0.00000000000E+00 0. -1.
         22    1    3    3    0    0 -0.79049480298E+02  0.94877252869E+02 -0.28311679315E+03  0.30887802125E+03  0.00000000000E+00 0. -1.
</event>
<event>
 7    1  0.6273950E-006  0.7897203E+02  0.7818608E-02  0.1352790E+00
          2   -1    0    0  502    0  0.00000000000E+00  0.00000000000E+00  0.28853307788E+03  0.28853307788E+03  0.00000000000E+00 0. -1.
          1   -1    0    0  501    0 -0.00000000000E+00 -0.00000000000E+00 -0.23593652878E+03  0.23593652878E+03  0.00000000000E+00 0. -1.
         25    2    1    2    0    0 -0.13395490224E+03 -0.22179631195E+02  0.19513392364E+03  0.26858597740E+03  0.12500130890E+03 0.  0.
          2    1    1    2  501    0  0.76437444966E+02 -0.10181564488E+02 -0.16823104474E+03  0.18506223726E+03  0.00000000000E+00 0. -1.
          1    1    1    2  502    0  0.57517457272E+02  0.32361195683E+02  0.25693670194E+02  0.70821392003E+02  0.00000000000E+00 0. -1.
         22    1    3    3    0    0 -0.73808578524E+02  0.24110137051E+02  0.23829035222E+02  0.81220858724E+02  0.00000000000E+00 0.  1.
         22    1    3    3    0    0 -0.60146323714E+02 -0.46289768246E+02  0.17130488842E+03  0.18736511868E+03  0.00000000000E+00 0.  1.
</event>
<event>
 7    1  0.6273950E-006  0.3042042E+03  0.7818608E-02  0.1242280E+00
          2   -1    0    0  502    0  0.00000000000E+00  0.00000000000E+00  0.31185621690E+04  0.31185621690E+04  0.00000000000E+00 0. -1.
          1   -1    0    0  501    0 -0.00000000000E+00 -0.00000000000E+00 -0.38508743178E+03  0.38508743178E+03  0.00000000000E+00 0. -1.
         25    2    1    2    0    0  0.24105998428E+03  0.13254945453E+03  0.17604576369E+04  0.17862001497E+04  0.12498243694E+03 0.  0.
          2    1    1    2  501    0 -0.28407624908E+03 -0.11186892190E+03 -0.30908992699E+03  0.43445431744E+03  0.00000000000E+00 0. -1.
          1    1    1    2  502    0  0.43016264798E+02 -0.20680532631E+02  0.12821070273E+04  0.12829951336E+04  0.00000000000E+00 0. -1.
         22    1    3    3    0    0  0.67699867412E+02 -0.17590452989E+02  0.52470722221E+03  0.52934900125E+03  0.00000000000E+00 0. -1.
         22    1    3    3    0    0  0.17336011687E+03  0.15013990752E+03  0.12357504147E+04  0.12568511485E+04  0.00000000000E+00 0. -1.
</event>
<event>
 7    1  0.6273950E-006  0.6356851E+02  0.7818608E-02  0.1455860E+00
          2   -1    0    0  502    0  0.00000000000E+00  0.00000000000E+00  0.89223470210E+03  0.89223470210E+03  0.00000000000E+00 0. -1.
          1   -1    0    0  501    0 -0.00000000000E+00 -0.00000000000E+00 -0.32821160327E+04  0.32821160327E+04  0.00000000000E+00 0. -1.
         25    2    1    2    0    0  0.26733657277E+02  0.13086074951E+02 -0.43565660674E+02  0.13567906506E+03  0.12499963247E+03 0.  0.
          2    1    1    2  501    0 -0.63008128926E+02 -0.10093887932E+02 -0.31917832130E+04  0.31924210232E+04  0.00000000000E+00 0. -1.
          1    1    1    2  502    0  0.36274471649E+02 -0.29921870195E+01  0.84546754302E+03  0.84625064655E+03  0.00000000000E+00 0. -1.
         22    1    3    3    0    0  0.49519626029E+02 -0.44474031240E+02 -0.21126975480E+02  0.69831811588E+02  0.00000000000E+00 0.  1.
         22    1    3    3    0    0 -0.22785968752E+02  0.57560106191E+02 -0.22438685194E+02  0.65847253473E+02  0.00000000000E+00 0.  1.
</event>
<event>
 7    1  0.6273950E-006  0.1038930E+03  0.7818608E-02  0.1365251E+00
          2   -1    0    0  502    0  0.00000000000E+00  0.00000000000E+00  0.71050070059E+03  0.71050070059E+03  0.00000000000E+00 0. -1.
          1   -1    0    0  501    0 -0.00000000000E+00 -0.00000000000E+00 -0.11039218873E+04  0.11039218873E+04  0.00000000000E+00 0. -1.
         25    2    1    2    0    0 -0.75125381399E+02 -0.59974516424E+02  0.28171041147E+03  0.32284290716E+03  0.12500408484E+03 0.  0.
          2    1    1    2  501    0  0.25693213918E+02 -0.37152487702E+02 -0.10755994352E+04  0.10765475343E+04  0.00000000000E+00 0. -1.
          1    1    1    2  502    0  0.49432167481E+02  0.97127004126E+02  0.40046783700E+03  0.41503214645E+03  0.00000000000E+00 0. -1.
         22    1    3    3    0    0 -0.36732472274E+02 -0.96305523228E+02  0.20801366697E+03  0.23215019700E+03  0.00000000000E+00 0.  1.
         22    1    3    3    0    0 -0.38392909126E+02  0.36331006804E+02  0.73696744501E+02  0.90692710162E+02  0.00000000000E+00 0.  1.
</event>
<event>
 7    1  0.6273950E-006  0.4922309E+02  0.7818608E-02  0.1510986E+00
          2   -1    0    0  502    0  0.00000000000E+00  0.00000000000E+00  0.64562610075E+03  0.64562610075E+03  0.00000000000E+00 0. -1.
          1   -1    0    0  501    0 -0.00000000000E+00 -0.00000000000E+00 -0.11301123966E+04  0.11301123966E+04  0.00000000000E+00 0. -1.
         25    2    1    2    0    0 -0.68413630448E+02 -0.42355201827E+02  0.54057476959E+02  0.15815305164E+03  0.12496315047E+03 0.  0.
          2    1    1    2  501    0  0.27281855826E+02  0.16530567552E+02 -0.10767349453E+04  0.10772073625E+04  0.00000000000E+00 0. -1.
          1    1    1    2  502    0  0.41131774623E+02  0.25824634275E+02  0.53819117253E+03  0.54037808320E+03  0.00000000000E+00 0. -1.
         22    1    3    3    0    0 -0.70878666997E+02 -0.71917510967E+02  0.71512886117E+02  0.12373361184E+03  0.00000000000E+00 0.  1.
         22    1    3    3    0    0  0.24650365485E+01  0.29562309140E+02 -0.17455409158E+02  0.34419439795E+02  0.00000000000E+00 0.  1.
</event>
<event>
 7    1  0.6273950E-006  0.7399209E+02  0.7818608E-02  0.1519073E+00
          2   -1    0    0  502    0  0.00000000000E+00  0.00000000000E+00  0.18357640766E+04  0.18357640766E+04  0.00000000000E+00 0. -1.
          1   -1    0    0  501    0 -0.00000000000E+00 -0.00000000000E+00 -0.37766785082E+03  0.37766785082E+03  0.00000000000E+00 0. -1.
         25    2    1    2    0    0 -0.32398577753E+02 -0.77269065999E+02  0.11763716528E+04  0.11859602742E+04  0.12502531721E+03 0.  0.
          2    1    1    2  501    0  0.18378056971E+02  0.81311267117E+01 -0.37069993758E+03  0.37124427527E+03  0.00000000000E+00 0. -1.
          1    1    1    2  502    0  0.14020520782E+02  0.69137939287E+02  0.65242451055E+03  0.65622737798E+03  0.00000000000E+00 0. -1.
         22    1    3    3    0    0 -0.58288248717E+02 -0.40799956487E+02  0.10402334507E+04  0.10426637945E+04  0.00000000000E+00 0.  1.
         22    1    3    3    0    0  0.25889670964E+02 -0.36469109512E+02  0.13613820213E+03  0.14329647969E+03  0.00000000000E+00 0.  1.
</event>
<event>
 7    1  0.6273950E-006  0.1161579E+03  0.7818608E-02  0.1416561E+00
          2   -1    0    0  502    0  0.00000000000E+00  0.00000000000E+00  0.97539588184E+03  0.97539588184E+03  0.00000000000E+00 0. -1.
          1   -1    0    0  501    0 -0.00000000000E+00 -0.00000000000E+00 -0.23321872545E+03  0.23321872545E+03  0.00000000000E+00 0. -1.
         25    2    1    2    0    0  0.37697826316E+02  0.10318060452E+03  0.27246535240E+03  0.31926272428E+03  0.12499582232E+03 0.  0.
          2    1    1    2  501    0 -0.14097178056E+02 -0.11579888966E+03 -0.19331517910E+03  0.22578501222E+03  0.00000000000E+00 0. -1.
          1    1    1    2  502    0 -0.23600648260E+02  0.12618285145E+02  0.66302698308E+03  0.66356687079E+03  0.00000000000E+00 0. -1.
         22    1    3    3    0    0  0.21473722833E+02  0.54294509496E+02  0.25971906465E+03  0.26620106513E+03  0.00000000000E+00 0.  1.
         22    1    3    3    0    0  0.16224103483E+02  0.48886095023E+02  0.12746287752E+02  0.53061659151E+02  0.00000000000E+00 0.  1.
</event>
<event>
 7    1  0.6273950E-006  0.9398603E+02  0.7818608E-02  0.1437559E+00
          2   -1    0    0  502    0  0.00000000000E+00  0.00000000000E+00  0.27053476804E+04  0.27053476804E+04  0.00000000000E+00 0. -1.
          1   -1    0    0  501    0 -0.00000000000E+00 -0.00000000000E+00 -0.14717633362E+02  0.14717633362E+02  0.00000000000E+00 0. -1.
         25    2    1    2    0    0 -0.11350968060E+03  0.98095350407E+00  0.13592465835E+04  0.13696939672E+04  0.12499951740E+03 0.  0.
          2    1    1    2  501    0  0.89613657994E+02 -0.15934306854E+02  0.21299486444E+03  0.23162755042E+03  0.00000000000E+00 0. -1.
          1    1    1    2  502    0  0.23896022603E+02  0.14953353350E+02  0.11183885991E+04  0.11187437961E+04  0.00000000000E+00 0. -1.
         22    1    3    3    0    0 -0.97981393900E+02  0.54041539110E+02  0.81478557268E+03  0.82243320152E+03  0.00000000000E+00 0.  1.
         22    1    3    3    0    0 -0.15528286697E+02 -0.53060585606E+02  0.54446101078E+03  0.54726076572E+03  0.00000000000E+00 0.  1.
</event>
<event>
 7    1  0.6273950E-006  0.1380502E+03  0.7818608E-02  0.1329482E+00
          2   -1    0    0  502    0  0.00000000000E+00  0.00000000000E+00  0.76215004812E+03  0.76215004812E+03  0.00000000000E+00 0. -1.
          1   -1    0    0  501    0 -0.00000000000E+00 -0.00000000000E+00 -0.24195538420E+03  0.24195538420E+03  0.00000000000E+00 0. -1.
         25    2    1    2    0    0  0.10632775832E+03  0.83866228265E+01 -0.34093904909E+02  0.16782006094E+03  0.12500100348E+03 0.  0.
          2    1    1    2  501    0  0.31941557689E+02 -0.33357893787E+02 -0.12987530707E+03  0.13784269140E+03  0.00000000000E+00 0. -1.
          1    1    1    2  502    0 -0.13826931601E+03  0.24971270961E+02  0.68416387590E+03  0.69844267998E+03  0.00000000000E+00 0. -1.
         22    1    3    3    0    0  0.75384425600E+02  0.83244555660E+01 -0.81422807105E+02  0.11127345461E+03  0.00000000000E+00 0. -1.
         22    1    3    3    0    0  0.30943332717E+02  0.62167260540E-01  0.47328902195E+02  0.56546606330E+02  0.00000000000E+00 0. -1.
</event>
<event>
 7    1  0.6273950E-006  0.4712636E+02  0.7818608E-02  0.1482145E+00
          2   -1    0    0  502    0  0.00000000000E+00  0.00000000000E+00  0.19231459026E+04  0.19231459026E+04  0.00000000000E+00 0. -1.
          1   -1    0    0  501    0 -0.00000000000E+00 -0.00000000000E+00 -0.16498752561E+03  0.16498752561E+03  0.00000000000E+00 0. -1.
         25    2    1    2    0    0 -0.29487645582E+02 -0.34707717847E+02  0.12946417468E+03  0.18563568717E+03  0.12500195561E+03 0.  0.
          2    1    1    2  501    0 -0.17816347525E+02  0.36548481827E+02 -0.13355789762E+03  0.13960990574E+03  0.00000000000E+00 0. -1.
          1    1    1    2  502    0  0.47303993108E+02 -0.18407639809E+01  0.17622520999E+04  0.17628878353E+04  0.00000000000E+00 0. -1.
         22    1    3    3    0    0  0.35130995969E+02 -0.54780096943E+02  0.57264538301E+02  0.86684907831E+02  0.00000000000E+00 0. -1.
         22    1    3    3    0    0 -0.64618641551E+02  0.20072379096E+02  0.72199636380E+02  0.98950779339E+02  0.00000000000E+00 0. -1.
</event>
<event>
 7    1  0.6273950E-006  0.6627620E+02  0.7818608E-02  0.1441233E+00
          2   -1    0    0  502    0  0.00000000000E+00  0.00000000000E+00  0.56011140901E+03  0.56011140901E+03  0.00000000000E+00 0. -1.
          1   -1    0    0  501    0 -0.00000000000E+00 -0.00000000000E+00 -0.50752913508E+03  0.50752913508E+03  0.00000000000E+00 0. -1.
         25    2    1    2    0    0 -0.64294971133E+02 -0.62197559637E+02 -0.17317064900E+03  0.23154981592E+03  0.12499945535E+03 0.  0.
          2    1    1    2  501    0  0.38873807016E+02  0.11667393875E+01 -0.30185831426E+03  0.30435337363E+03  0.00000000000E+00 0. -1.
          1    1    1    2  502    0  0.25421164118E+02  0.61030820250E+02  0.52761123719E+03  0.53173735454E+03  0.00000000000E+00 0. -1.
         22    1    3    3    0    0 -0.50458395016E+02 -0.64440889969E+02 -0.19162717126E+03  0.20837382439E+03  0.00000000000E+00 0.  1.
         22    1    3    3    0    0 -0.13836576117E+02  0.22433303314E+01  0.18456522254E+02  0.23175991529E+02  0.00000000000E+00 0.  1.
</event>
<event>
 7    1  0.6273950E-006  0.3963047E+02  0.7818608E-02  0.1613697E+00
          2   -1    0    0  502    0  0.00000000000E+00  0.00000000000E+00  0.16921784285E+04  0.16921784285E+04  0.00000000000E+00 0. -1.
          1   -1    0    0  501    0 -0.00000000000E+00 -0.00000000000E+00 -0.78693527409E+02  0.78693527409E+02  0.00000000000E+00 0. -1.
         25    2    1    2    0    0  0.45348855294E+02  0.34739187345E+02  0.19836970838E+03  0.24132634235E+03  0.12499812997E+03 0.  0.
          2    1    1    2  501    0 -0.20227764922E+02 -0.43438860449E+01 -0.55071892557E+02  0.58829798313E+02  0.00000000000E+00 0. -1.
          1    1    1    2  502    0 -0.25121090372E+02 -0.30395301300E+02  0.14701870853E+04  0.14707158152E+04  0.00000000000E+00 0. -1.
         22    1    3    3    0    0  0.57703311694E+02 -0.19094262934E+01  0.19399587150E+03  0.20240483257E+03  0.00000000000E+00 0. -1.
         22    1    3    3    0    0 -0.12354456400E+02  0.36648613638E+02  0.43738368813E+01  0.38921509781E+02  0.00000000000E+00 0. -1.
</event>
<event>
 7    1  0.6273950E-006  0.5687286E+02  0.7818608E-02  0.1416090E+00
          2   -1    0    0  502    0  0.00000000000E+00  0.00000000000E+00  0.89479387374E+02  0.89479387374E+02  0.00000000000E+00 0. -1.
          1   -1    0    0  501    0 -0.00000000000E+00 -0.00000000000E+00 -0.63772745781E+03  0.63772745781E+03  0.00000000000E+00 0. -1.
         25    2    1    2    0    0  0.18536211475E+02 -0.30043371965E+02 -0.96862699013E+02  0.16202965447E+03  0.12500012454E+03 0.  0.
          2    1    1    2  501    0  0.36673116348E+02  0.43698106212E+02 -0.49199666803E+03  0.49529300753E+03  0.00000000000E+00 0. -1.
          1    1    1    2  502    0 -0.55209327823E+02 -0.13654734247E+02  0.40611296614E+02  0.69884183180E+02  0.00000000000E+00 0. -1.
         22    1    3    3    0    0 -0.38451568147E+02  0.17884852200E+02 -0.34182482772E+01  0.42544981519E+02  0.00000000000E+00 0.  1.
         22    1    3    3    0    0  0.56987779622E+02 -0.47928224165E+02 -0.93444450736E+02  0.11948467296E+03  0.00000000000E+00 0.  1.
</event>
<event>
 7    1  0.6273950E-006  0.1323005E+03  0.7818608E-02  0.1248530E+00
          2   -1    0    0  502    0  0.00000000000E+00  0.00000000000E+00  0.26888969911E+03  0.26888969911E+03  0.00000000000E+00 0. -1.
          1   -1    0    0  501    0 -0.00000000000E+00 -0.00000000000E+00 -0.31284896733E+04  0.31284896733E+04  0.00000000000E+00 0. -1.
         25    2    1    2    0    0 -0.45432555757E+02  0.41141456535E+02  0.26465027212E+02  0.14171273932E+03  0.12500146500E+03 0.  0.
          2    1    1    2  501    0 -0.75692026104E+02 -0.10850875687E+03 -0.30432381276E+04  0.30461125611E+04  0.00000000000E+00 0. -1.
          1    1    1    2  502    0  0.12112458186E+03  0.67367300332E+02  0.15717312624E+03  0.20955407202E+03  0.00000000000E+00 0. -1.
         22    1    3    3    0    0 -0.25368211691E+02 -0.39490206863E+02  0.34474967454E+02  0.58236981236E+02  0.00000000000E+00 0. -1.
         22    1    3    3    0    0 -0.20064344066E+02  0.80631663398E+02 -0.80099402417E+01  0.83475758085E+02  0.00000000000E+00 0. -1.
</event>
<event>
 7    1  0.6273950E-006  0.5195038E+02  0.7818608E-02  0.1500218E+00
          2   -1    0    0  502    0  0.00000000000E+00  0.00000000000E+00  0.23118445998E+04  0.23118445998E+04  0.00000000000E+00 0. -1.
          1   -1    0    0  501    0 -0.00000000000E+00 -0.00000000000E+00 -0.25728165473E+03  0.25728165473E+03  0.00000000000E+00 0. -1.
         25    2    1    2    0    0 -0.10460504560E+02  0.63844172999E+02  0.76898330328E+03  0.78175814702E+03  0.12499991650E+03 0.  0.
          2    1    1    2  501    0 -0.22148475782E+02 -0.23821632362E+02 -0.24940420681E+03  0.25151636830E+03  0.00000000000E+00 0. -1.
          1    1    1    2  502    0  0.32608980342E+02 -0.40022540637E+02  0.15349838486E+04  0.15358517393E+04  0.00000000000E+00 0. -1.
         22    1    3    3    0    0 -0.29371090222E+02 -0.15904674245E+02  0.65579468757E+02  0.73595423269E+02  0.00000000000E+00 0. -1.
         22    1    3    3    0    0  0.18910585662E+02  0.79748847244E+02  0.70340383453E+03  0.70816272375E+03  0.00000000000E+00 0. -1.
</event>
<event>
 7    1  0.6273950E-006  0.3353395E+03  0.7818608E-02  0.1185554E+00
          2   -1    0    0  502    0  0.00000000000E+00  0.00000000000E+00  0.45028305371E+03  0.45028305371E+03  0.00000000000E+00 0. -1.
          1   -1    0    0  501    0 -0.00000000000E+00 -0.00000000000E+00 -0.27942956484E+04  0.27942956484E+04  0.00000000000E+00 0. -1.
         25    2    1    2    0    0 -0.25412383806E+03 -0.11533719973E+03 -0.50327566854E+03  0.58889030077E+03  0.12499517224E+03 0.  0.
          2    1    1    2  501    0  0.33305320760E+03  0.11971998130E+03 -0.22302895347E+04  0.22581958997E+04  0.00000000000E+00 0. -1.
          1    1    1    2  502    0 -0.78929369538E+02 -0.43827815624E+01  0.38955260846E+03  0.39749250170E+03  0.00000000000E+00 0. -1.
         22    1    3    3    0    0 -0.62494953676E+02 -0.70727413991E+02 -0.25628588401E+03  0.27311250551E+03  0.00000000000E+00 0.  1.
         22    1    3    3    0    0 -0.19162888439E+03 -0.44609785743E+02 -0.24698978453E+03  0.31577779526E+03  0.00000000000E+00 0.  1.
</event>
<event>
 7    1  0.6273950E-006  0.1173742E+03  0.7818608E-02  0.1342912E+00
          2   -1    0    0  502    0  0.00000000000E+00  0.00000000000E+00  0.13745603717E+04  0.13745603717E+04  0.00000000000E+00 0. -1.
          1   -1    0    0  501    0 -0.00000000000E+00 -0.00000000000E+00 -0.12516137060E+03  0.12516137060E+03  0.00000000000E+00 0. -1.
         25    2    1    2    0    0 -0.82894472650E+02  0.11059362057E+03  0.55585844811E+02  0.19446355066E+03  0.12499537546E+03 0.  0.
          2    1    1    2  501    0  0.48310399116E+02  0.10235261169E+01 -0.41945418586E+02  0.63987189412E+02  0.00000000000E+00 0. -1.
          1    1    1    2  502    0  0.34584073534E+02 -0.11161714668E+03  0.12357585748E+04  0.12412710022E+04  0.00000000000E+00 0. -1.
         22    1    3    3    0    0 -0.11080950059E+03  0.99165101006E+02  0.65809566602E+02  0.16261414986E+03  0.00000000000E+00 0.  1.
         22    1    3    3    0    0  0.27915027939E+02  0.11428519561E+02 -0.10223721791E+02  0.31849400803E+02  0.00000000000E+00 0.  1.
</event>
<event>
 7    1  0.6273950E-006  0.3889258E+02  0.7818608E-02  0.1538151E+00
          2   -1    0    0  502    0  0.00000000000E+00  0.00000000000E+00  0.62984089321E+03  0.62984089321E+03  0.00000000000E+00 0. -1.
          1   -1    0    0  501    0 -0.00000000000E+00 -0.00000000000E+00 -0.70055798863E+03  0.70055798863E+03  0.00000000000E+00 0. -1.
         25    2    1    2    0    0 -0.46561092094E+01 -0.26667550255E+01 -0.11554935711E+03  0.17030857706E+03  0.12499826621E+03 0.  0.
          2    1    1    2  501    0 -0.30909840270E+02 -0.13435317648E+02 -0.55648614668E+03  0.55750583623E+03  0.00000000000E+00 0. -1.
          1    1    1    2  502    0  0.35565949480E+02  0.16102072673E+02  0.60131840837E+03  0.60258446856E+03  0.00000000000E+00 0. -1.
         22    1    3    3    0    0  0.24371870068E+02 -0.55717455398E+02 -0.78823952093E+02  0.99557211242E+02  0.00000000000E+00 0.  1.
         22    1    3    3    0    0 -0.29027979278E+02  0.53050700373E+02 -0.36725405018E+02  0.70751365815E+02  0.00000000000E+00 0.  1.
</event>
<event>
 7    1  0.6273950E-006  0.1768601E+03  0.7818608E-02  0.1207710E+00
          2   -1    0    0  502    0  0.00000000000E+00  0.00000000000E+00  0.10165879547E+04  0.10165879547E+04  0.00000000000E+00 0. -1.
          1   -1    0    0  501    0 -0.00000000000E+00 -0.00000000000E+00 -0.19970321425E+04  0.19970321425E+04  0.00000000000E+00 0. -1.
         25    2    1    2    0    0  0.24737203195E+03  0.55081565648E+02 -0.84487495567E+03  0.89087827325E+03  0.12499402367E+03 0.  0.
          2    1    1    2  501    0 -0.10620985753E+03  0.50648268605E+02 -0.11182175686E+04  0.11243915295E+04  0.00000000000E+00 0. -1.
          1    1    1    2  502    0 -0.14116217442E+03 -0.10572983425E+03  0.98264833649E+03  0.99835029451E+03  0.00000000000E+00 0. -1.
         22    1    3    3    0    0  0.13860066066E+03 -0.13073700203E+02 -0.58090657778E+03  0.59735543597E+03  0.00000000000E+00 0.  1.
         22    1    3    3    0    0  0.10877137130E+03  0.68155265851E+02 -0.26396837789E+03  0.29352283728E+03  0.00000000000E+00 0.  1.
</event>
<event>
 7    1  0.6273950E-006  0.7678533E+02  0.7818608E-02  0.1385190E+00
          2   -1    0    0  502    0  0.00000000000E+00  0.00000000000E+00  0.26073594691E+04  0.26073594691E+04  0.00000000000E+00 0. -1.
          1   -1    0    0  501    0 -0.00000000000E+00 -0.00000000000E+00 -0.25099456384E+04  0.25099456384E+04  0.00000000000E+00 0. -1.
         25    2    1    2    0    0 -0.11361997393E+03  0.56815480796E+02  0.14738506820E+03  0.23126027013E+03  0.12498582672E+03 0.  0.
          2    1    1    2  501    0  0.49290201634E+02 -0.16202731532E+02 -0.24671368190E+04  0.24676823410E+04  0.00000000000E+00 0. -1.
          1    1    1    2  502    0  0.64329772295E+02 -0.40612749264E+02  0.24171655815E+04  0.24183624963E+04  0.00000000000E+00 0. -1.
         22    1    3    3    0    0  0.19378085501E+02  0.38677787680E+02  0.27294884423E+02  0.51151658558E+02  0.00000000000E+00 0.  1.
         22    1    3    3    0    0 -0.13299805943E+03  0.18137693116E+02  0.12009018378E+03  0.18010861158E+03  0.00000000000E+00 0.  1.
</event>
<event>
 7    1  0.6273950E-006  0.1461823E+03  0.7818608E-02  0.1289261E+00
          2   -1    0    0  502    0  0.00000000000E+00  0.00000000000E+00  0.11655623697E+04  0.11655623697E+04  0.00000000000E+00 0. -1.
          1   -1    0    0  501    0 -0.00000000000E+00 -0.00000000000E+00 -0.16135583727E+04  0.16135583727E+04  0.00000000000E+00 0. -1.
         25    2    1    2    0    0 -0.18614461415E+03  0.54774880771E+02  0.24765160452E+03  0.33853513603E+03  0.12499846466E+03 0.  0.
          2    1    1    2  501    0  0.12602240779E+03 -0.73106906753E+02 -0.15635936448E+04  0.15703666302E+04  0.00000000000E+00 0. -1.
          1    1    1    2  502    0  0.60122206365E+02  0.18332025983E+02  0.86794603725E+03  0.87021897615E+03  0.00000000000E+00 0. -1.
         22    1    3    3    0    0 -0.11735762340E+03 -0.24891031718E+02  0.94572352481E+02  0.15276225019E+03  0.00000000000E+00 0. -1.
         22    1    3    3    0    0 -0.68786990755E+02  0.79665912488E+02  0.15307925203E+03  0.18577288584E+03  0.00000000000E+00 0. -1.
</event>
<event>
 7    1  0.6273950E-006  0.2211970E+03  0.7818608E-02  0.1364301E+00
          2   -1    0    0  502    0  0.00000000000E+00  0.00000000000E+00  0.27367685629E+03  0.27367685629E+03  0.00000000000E+00 0. -1.
          1   -1    0    0  501    0 -0.00000000000E+00 -0.00000000000E+00 -0.11333440525E+04  0.11333440525E+04  0.00000000000E+00 0. -1.
         25    2    1    2    0    0  0.19925079261E+03  0.53079034120E+02 -0.17427618461E+03  0.29751576621E+03  0.12500072161E+03 0.  0.
          2    1    1    2  501    0 -0.21393198063E+03 -0.68628431529E+02 -0.88280036896E+03  0.91094085724E+03  0.00000000000E+00 0. -1.
          1    1    1    2  502    0  0.14681188022E+02  0.15549397409E+02  0.19740935736E+03  0.19856428534E+03  0.00000000000E+00 0. -1.
         22    1    3    3    0    0  0.11149829117E+03  0.71261982927E+02 -0.15857581067E+03  0.20653432372E+03  0.00000000000E+00 0. -1.
         22    1    3    3    0    0  0.87752501438E+02 -0.18182948807E+02 -0.15700373938E+02  0.90981442491E+02  0.00000000000E+00 0. -1.
</event>
<event>
 7    1  0.6273950E-006  0.9860755E+02  0.7818608E-02  0.1320523E+00
          2   -1    0    0  502    0  0.00000000000E+00  0.00000000000E+00  0.61518435485E+03  0.61518435485E+03  0.00000000000E+00 0. -1.
          1   -1    0    0  501    0 -0.00000000000E+00 -0.00000000000E+00 -0.71474361760E+02  0.71474361760E+02  0.00000000000E+00 0. -1.
         25    2    1    2    0    0  0.75057949019E+02 -0.35469352243E+02  0.28139119892E+03  0.31890075864E+03  0.12499966551E+03 0.  0.
          2    1    1    2  501    0 -0.41203555089E+02  0.96741123538E+02  0.96739525850E+01  0.10559433363E+03  0.00000000000E+00 0. -1.
          1    1    1    2  502    0 -0.33854393929E+02 -0.61271771295E+02  0.25264484159E+03  0.26216362434E+03  0.00000000000E+00 0. -1.
         22    1    3    3    0    0  0.82978205767E+02  0.25647293000E+02  0.18682189417E+03  0.20602326668E+03  0.00000000000E+00 0. -1.
         22    1    3    3    0    0 -0.79202567480E+01 -0.61116645243E+02  0.94569304746E+02  0.11287749197E+03  0.00000000000E+00 0. -1.
</event>
<event>
 7    1  0.6273950E-006  0.9042846E+02  0.7818608E-02  0.1357684E+00
          2   -1    0    0  502    0  0.00000000000E+00  0.00000000000E+00  0.32833606684E+03  0.32833606684E+03  0.00000000000E+00 0. -1.
          1   -1    0    0  501    0 -0.00000000000E+00 -0.00000000000E+00 -0.19571208918E+04  0.19571208918E+04  0.00000000000E+00 0. -1.
         25    2    1    2    0    0  0.91311611628E+02 -0.40181943861E+02 -0.15266950618E+04  0.15350490257E+04  0.12500120203E+03 0.  0.
          2    1    1    2  501    0 -0.47853731044E+02  0.74374399051E+02 -0.41924330361E+03  0.42846992710E+03  0.00000000000E+00 0. -1.
          1    1    1    2  502    0 -0.43457880584E+02 -0.34192455191E+02  0.31715354046E+03  0.32193800584E+03  0.00000000000E+00 0. -1.
         22    1    3    3    0    0  0.51106687867E+02 -0.49939453402E+02 -0.13989042661E+04  0.14007280208E+04  0.00000000000E+00 0. -1.
         22    1    3    3    0    0  0.40204923761E+02  0.97575095414E+01 -0.12779079567E+03  0.13432100485E+03  0.00000000000E+00 0. -1.
</event>
<event>
 7    1  0.6273950E-006  0.1147800E+03  0.7818608E-02  0.1310301E+00
          2   -1    0    0  502    0  0.00000000000E+00  0.00000000000E+00  0.63480285039E+02  0.63480285039E+02  0.00000000000E+00 0. -1.
          1   -1    0    0  501    0 -0.00000000000E+00 -0.00000000000E+00 -0.19024715198E+04  0.19024715198E+04  0.00000000000E+00 0. -1.
         25    2    1    2    0    0 -0.13553179444E+03  0.39076011871E+02 -0.92573105631E+03  0.94472889760E+03  0.12505558500E+03 0.  0.
          2    1    1    2  501    0  0.10765236481E+03  0.20672726496E+02 -0.94267410987E+03  0.94902627502E+03  0.00000000000E+00 0. -1.
          1    1    1    2  502    0  0.27879429637E+02 -0.59748738367E+02  0.29413931458E+02  0.72196632173E+02  0.00000000000E+00 0. -1.
         22    1    3    3    0    0 -0.74711787665E+02 -0.22339983762E+02 -0.67558375834E+03  0.68006936457E+03  0.00000000000E+00 0. -1.
         22    1    3    3    0    0 -0.60820006779E+02  0.61415995633E+02 -0.25014729797E+03  0.26465953303E+03  0.00000000000E+00 0. -1.
</event>
<event>
 7    1  0.6273950E-006  0.4834019E+02  0.7818608E-02  0.1513505E+00
          2   -1    0    0  502    0  0.00000000000E+00  0.00000000000E+00  0.19165502125E+04  0.19165502125E+04  0.00000000000E+00 0. -1.
          1   -1    0    0  501    0 -0.00000000000E+00 -0.00000000000E+00 -0.10143921567E+03  0.10143921567E+03  0.00000000000E+00 0. -1.
         25    2    1    2    0    0 -0.38938065642E+01  0.79863430436E+02 -0.30546172587E+01  0.14841839632E+03  0.12500144170E+03 0.  0.
          2    1    1    2  501    0 -0.11027195966E+01 -0.31914637033E+02 -0.15343285844E+02  0.35428469737E+02  0.00000000000E+00 0. -1.
          1    1    1    2  502    0  0.49965261608E+01 -0.47948793404E+02  0.18335088999E+04  0.18341425621E+04  0.00000000000E+00 0. -1.
         22    1    3    3    0    0  0.41968105366E+02  0.23415493522E+02 -0.43825009647E+02  0.65040285020E+02  0.00000000000E+00 0.  1.
         22    1    3    3    0    0 -0.45861911930E+02  0.56447936914E+02  0.40770392388E+02  0.83378111296E+02  0.00000000000E+00 0.  1.
</event>
<event>
 7    1  0.6273950E-006  0.3386214E+02  0.7818608E-02  0.1578471E+00
          2   -1    0    0  502    0  0.00000000000E+00  0.00000000000E+00  0.65926053200E+02  0.65926053200E+02  0.00000000000E+00 0. -1.
          1   -1    0    0  501    0 -0.00000000000E+00 -0.00000000000E+00 -0.74771643349E+03  0.74771643349E+03  0.00000000000E+00 0. -1.
         25    2    1    2    0    0  0.12499643268E+02  0.26230011509E+02 -0.10564355186E+03  0.16622393047E+03  0.12500232168E+03 0.  0.
          2    1    1    2  501    0  0.17290321540E+02 -0.29436967723E+02 -0.60491726397E+03  0.60587984497E+03  0.00000000000E+00 0. -1.
          1    1    1    2  502    0 -0.29789964807E+02  0.32069562141E+01  0.28770435540E+02  0.41538711253E+02  0.00000000000E+00 0. -1.
         22    1    3    3    0    0  0.81047421995E+01  0.48473311167E+02  0.84777870158E+01  0.49872052437E+02  0.00000000000E+00 0. -1.
         22    1    3    3    0    0  0.43949010680E+01 -0.22243299658E+02 -0.11412133887E+03  0.11635187803E+03  0.00000000000E+00 0. -1.
</event>
<event>
 7    1  0.6273950E-006  0.3792703E+02  0.7818608E-02  0.1575082E+00
          2   -1    0    0  502    0  0.00000000000E+00  0.00000000000E+00  0.32148826902E+03  0.32148826902E+03  0.00000000000E+00 0. -1.
          1   -1    0    0  501    0 -0.00000000000E+00 -0.00000000000E+00 -0.11039356712E+03  0.11039356712E+03  0.00000000000E+00 0. -1.
         25    2    1    2    0    0  0.60555151865E+02 -0.17841393134E+02  0.76284268366E+02  0.15946521821E+03  0.12499849796E+03 0.  0.
          2    1    1    2  501    0 -0.33309316718E+02  0.15845974082E+02 -0.62851347061E+02  0.72875903440E+02  0.00000000000E+00 0. -1.
          1    1    1    2  502    0 -0.27245835147E+02  0.19954190517E+01  0.19766178059E+03  0.19954071448E+03  0.00000000000E+00 0. -1.
         22    1    3    3    0    0  0.45225983119E+02 -0.19999448852E+02 -0.26101000125E+02  0.55916274116E+02  0.00000000000E+00 0. -1.
         22    1    3    3    0    0  0.15329168745E+02  0.21580557183E+01  0.10238526849E+03  0.10354894409E+03  0.00000000000E+00 0. -1.
</event>
<event>
 7    1  0.6273950E-006  0.1344564E+03  0.7818608E-02  0.1362541E+00
          2   -1    0    0  502    0  0.00000000000E+00  0.00000000000E+00  0.23185820307E+04  0.23185820307E+04  0.00000000000E+00 0. -1.
          1   -1    0    0  501    0 -0.00000000000E+00 -0.00000000000E+00 -0.48315580209E+03  0.48315580209E+03  0.00000000000E+00 0. -1.
         25    2    1    2    0    0 -0.12567069775E+03 -0.97772353131E+02  0.29753590668E+03  0.35986714949E+03  0.12499676880E+03 0.  0.
          2    1    1    2  501    0  0.11807583255E+03  0.62886912234E+02 -0.44192689545E+03  0.46173157449E+03  0.00000000000E+00 0. -1.
          1    1    1    2  502    0  0.75948652030E+01  0.34885440898E+02  0.19798172173E+04  0.19801391088E+04  0.00000000000E+00 0. -1.
         22    1    3    3    0    0 -0.11452597025E+03 -0.40210576324E+02  0.26802430705E+03  0.29422800254E+03  0.00000000000E+00 0.  1.
         22    1    3    3    0    0 -0.11144727504E+02 -0.57561776807E+02  0.29511599633E+02  0.65639146957E+02  0.00000000000E+00 0.  1.
</event>
<event>
 7    1  0.6273950E-006  0.1149404E+03  0.7818608E-02  0.1373043E+00
          2   -1    0    0  502    0  0.00000000000E+00  0.00000000000E+00  0.26673064184E+04  0.26673064184E+04  0.00000000000E+00 0. -1.
          1   -1    0    0  501    0 -0.00000000000E+00 -0.00000000000E+00 -0.29911228945E+03  0.29911228945E+03  0.00000000000E+00 0. -1.
         25    2    1    2    0    0 -0.80358030717E+02  0.75975907866E+02 -0.16598155667E+03  0.23538735796E+03  0.12501031740E+03 0.  0.
          2    1    1    2  501    0  0.58905395687E+02 -0.10767515534E+03 -0.59970703302E+02  0.13660259870E+03  0.00000000000E+00 0. -1.
          1    1    1    2  502    0  0.21452635029E+02  0.31699247470E+02  0.25941463890E+04  0.25944287512E+04  0.00000000000E+00 0. -1.
         22    1    3    3    0    0  0.30668057607E+02 -0.24431630238E+01 -0.26159620178E+02  0.40383468533E+02  0.00000000000E+00 0. -1.
         22    1    3    3    0    0 -0.11102608832E+03  0.78419070890E+02 -0.13982193649E+03  0.19500388943E+03  0.00000000000E+00 0. -1.
</event>
<event>
 7    1  0.6273950E-006  0.1523835E+03  0.7818608E-02  0.1353295E+00
          2   -1    0    0  502    0  0.00000000000E+00  0.00000000000E+00  0.33727470133E+03  0.33727470133E+03  0.00000000000E+00 0. -1.
          1   -1    0    0  501    0 -0.00000000000E+00 -0.00000000000E+00 -0.82777470759E+03  0.82777470759E+03  0.00000000000E+00 0. -1.
         25    2    1    2    0    0 -0.13436924005E+03 -0.41162791684E+02 -0.17915449374E+03  0.25974918765E+03  0.12499535899E+03 0.  0.
          2    1    1    2  501    0  0.29901323608E+00 -0.34054583835E+02 -0.58790284244E+03  0.58888840729E+03  0.00000000000E+00 0. -1.
          1    1    1    2  502    0  0.13407022681E+03  0.75217375519E+02  0.27655732992E+03  0.31641181398E+03  0.00000000000E+00 0. -1.
         22    1    3    3    0    0 -0.10096631644E+03  0.15115438748E+02 -0.47236723882E+02  0.11248991789E+03  0.00000000000E+00 0. -1.
         22    1    3    3    0    0 -0.33402923603E+02 -0.56278230432E+02 -0.13191776985E+03  0.14725926976E+03  0.00000000000E+00 0. -1.
</event>
<event>
 7    1  0.7599034E-006  0.4626836E+02  0.7818608E-02  0.1504086E+00
          2   -1    0    0  502    0  0.00000000000E+00  0.00000000000E+00  0.22038480692E+04  0.22038480692E+04  0.00000000000E+00 0. -1.
          1   -1    0    0  501    0 -0.00000000000E+00 -0.00000000000E+00 -0.67428944343E+03  0.67428944343E+03  0.00000000000E+00 0. -1.
         25    2    1    2    0    0 -0.19665780054E+02  0.28734765810E+00 -0.37666490721E+03  0.39735486104E+03  0.12501043075E+03 0.  0.
          2    1    1    2  501    0  0.49000725407E+02  0.19823674646E+02 -0.28470252981E+03  0.28956791888E+03  0.00000000000E+00 0. -1.
          1    1    1    2  502    0 -0.29334945354E+02 -0.20111022304E+02  0.21909260628E+04  0.21912147327E+04  0.00000000000E+00 0. -1.
         22    1    3    3    0    0 -0.35142253755E+02  0.45805125363E+02 -0.91682584665E+02  0.10834566830E+03  0.00000000000E+00 0.  1.
         22    1    3    3    0    0  0.15476473701E+02 -0.45517777705E+02 -0.28498232254E+03  0.28900919274E+03  0.00000000000E+00 0.  1.
</event>
<event>
 7    1  0.6273950E-006  0.8884395E+02  0.7818608E-02  0.1388828E+00
          2   -1    0    0  502    0  0.00000000000E+00  0.00000000000E+00  0.41246348840E+02  0.41246348840E+02  0.00000000000E+00 0. -1.
          1   -1    0    0  501    0 -0.00000000000E+00 -0.00000000000E+00 -0.66498399798E+03  0.66498399798E+03  0.00000000000E+00 0. -1.
         25    2    1    2    0    0  0.66592008679E+02  0.59311611060E+02 -0.20741220307E+03  0.25805843868E+03  0.12498789129E+03 0.  0.
          2    1    1    2  501    0 -0.33809131404E+02  0.27443254245E+02 -0.27953411648E+03  0.28290548218E+03  0.00000000000E+00 0. -1.
          1    1    1    2  502    0 -0.32782877274E+02 -0.86754865305E+02 -0.13679132958E+03  0.16526642595E+03  0.00000000000E+00 0. -1.
         22    1    3    3    0    0  0.92071100268E+02  0.45564562483E+01 -0.13915725442E+03  0.16692091019E+03  0.00000000000E+00 0.  1.
         22    1    3    3    0    0 -0.25479091590E+02  0.54755154812E+02 -0.68254948641E+02  0.91137528498E+02  0.00000000000E+00 0.  1.
</event>
<event>
 7    1  0.6273950E-006  0.1134182E+03  0.7818608E-02  0.1423703E+00
          2   -1    0    0  502    0  0.00000000000E+00  0.00000000000E+00  0.37636585800E+03  0.37636585800E+03  0.00000000000E+00 0. -1.
          1   -1    0    0  501    0 -0.00000000000E+00 -0.00000000000E+00 -0.11083440993E+03  0.11083440993E+03  0.00000000000E+00 0. -1.
         25    2    1    2    0    0  0.26833989183E+02  0.99204461721E+02  0.56641103399E+02  0.17145487516E+03  0.12500788543E+03 0.  0.
          2    1    1    2  501    0 -0.50756295390E+02 -0.10924537924E+03  0.16466976156E+02  0.12158090192E+03  0.00000000000E+00 0. -1.
          1    1    1    2  502    0  0.23922306207E+02  0.10040917520E+02  0.19242336851E+03  0.19416449085E+03  0.00000000000E+00 0. -1.
         22    1    3    3    0    0  0.58967807836E+02  0.91603737811E+01  0.45823007552E+02  0.75238705664E+02  0.00000000000E+00 0.  1.
         22    1    3    3    0    0 -0.32133818654E+02  0.90044087940E+02  0.10818095847E+02  0.96216169494E+02  0.00000000000E+00 0.  1.
</event>
<event>
 7    1  0.6273950E-006  0.1159042E+03  0.7818608E-02  0.1321437E+00
          2   -1    0    0  502    0  0.00000000000E+00  0.00000000000E+00  0.39900285839E+03  0.39900285839E+03  0.00000000000E+00 0. -1.
          1   -1    0    0  501    0 -0.00000000000E+00 -0.00000000000E+00 -0.13220203155E+03  0.13220203155E+03  0.00000000000E+00 0. -1.
         25    2    1    2    0    0 -0.20731581043E+02 -0.98164835144E+02  0.12235515726E+03  0.20164670637E+03  0.12499790547E+03 0.  0.
          2    1    1    2  501    0  0.79606910638E+02  0.93342952606E+02 -0.45341643735E+02  0.13079002897E+03  0.00000000000E+00 0. -1.
          1    1    1    2  502    0 -0.58875329595E+02  0.48218825384E+01  0.18978731331E+03  0.19876815459E+03  0.00000000000E+00 0. -1.
         22    1    3    3    0    0  0.13897143469E+02 -0.82331581700E+02  0.11314900469E+02  0.84259402528E+02  0.00000000000E+00 0. -1.
         22    1    3    3    0    0 -0.34628724512E+02 -0.15833253445E+02  0.11104025679E+03  0.11738730384E+03  0.00000000000E+00 0. -1.
</event>
<event>
 7    1  0.6273950E-006  0.5714437E+02  0.7818608E-02  0.1461652E+00
          2   -1    0    0  502    0  0.00000000000E+00  0.00000000000E+00  0.81809842172E+03  0.81809842172E+03  0.00000000000E+00 0. -1.
          1   -1    0    0  501    0 -0.00000000000E+00 -0.00000000000E+00 -0.20603374898E+03  0.20603374898E+03  0.00000000000E+00 0. -1.
         25    2    1    2    0    0  0.66052431286E+02  0.49591832384E+02 -0.70520319487E+02  0.16559601877E+03  0.12500660964E+03 0.  0.
          2    1    1    2  501    0 -0.27393843891E+02 -0.46072443999E+02 -0.79270846694E+02  0.95692005490E+02  0.00000000000E+00 0. -1.
          1    1    1    2  502    0 -0.38658587395E+02 -0.35193883846E+01  0.76185583891E+03  0.76284414644E+03  0.00000000000E+00 0. -1.
         22    1    3    3    0    0  0.66510839006E+02  0.64783795916E+02 -0.97496021592E+02  0.13463322823E+03  0.00000000000E+00 0.  1.
         22    1    3    3    0    0 -0.45840772032E+00 -0.15191963532E+02  0.26975702105E+02  0.30962790534E+02  0.00000000000E+00 0.  1.
</event>
<event>
 7    1  0.6273950E-006  0.1323391E+03  0.7818608E-02  0.1231743E+00
          2   -1    0    0  502    0  0.00000000000E+00  0.00000000000E+00  0.21901686723E+04  0.21901686723E+04  0.00000000000E+00 0. -1.
          1   -1    0    0  501    0 -0.00000000000E+00 -0.00000000000E+00 -0.57730382573E+03  0.57730382573E+03  0.00000000000E+00 0. -1.
         25    2    1    2    0    0  0.70349946783E+02 -0.40692262294E+01 -0.24807746890E+02  0.14562513477E+03  0.12500232781E+03 0.  0.
          2    1    1    2  501    0 -0.37718876288E+02  0.13232231634E+03 -0.48036349586E+03  0.49968089535E+03  0.00000000000E+00 0. -1.
          1    1    1    2  502    0 -0.32631070495E+02 -0.12825309012E+03  0.21180360893E+04  0.21221664679E+04  0.00000000000E+00 0. -1.
         22    1    3    3    0    0  0.42685718407E+02 -0.50525168257E+02 -0.52898645923E+02  0.84694332300E+02  0.00000000000E+00 0.  1.
         22    1    3    3    0    0  0.27664228376E+02  0.46455942027E+02  0.28090899033E+02  0.60930802471E+02  0.00000000000E+00 0.  1.
</event>
<event>
 7    1  0.6273950E-006  0.5814703E+02  0.7818608E-02  0.1514555E+00
          2   -1    0    0  502    0  0.00000000000E+00  0.00000000000E+00  0.65167450436E+03  0.65167450436E+03  0.00000000000E+00 0. -1.
          1   -1    0    0  501    0 -0.00000000000E+00 -0.00000000000E+00 -0.75012300141E+03  0.75012300141E+03  0.00000000000E+00 0. -1.
         25    2    1    2    0    0 -0.53974719060E+02 -0.60397522499E+02  0.15999074437E+03  0.21859629699E+03  0.12500468693E+03 0.  0.
          2    1    1    2  501    0  0.23119040992E+02  0.12664326427E+02 -0.71883104233E+03  0.71931421690E+03  0.00000000000E+00 0. -1.
          1    1    1    2  502    0  0.30855678068E+02  0.47733196072E+02  0.46039180092E+03  0.46388699188E+03  0.00000000000E+00 0. -1.
         22    1    3    3    0    0 -0.31371495327E+02  0.37255961149E+02  0.50929898230E+02  0.70470078004E+02  0.00000000000E+00 0.  1.
         22    1    3    3    0    0 -0.22603223733E+02 -0.97653483648E+02  0.10906084614E+03  0.14812621899E+03  0.00000000000E+00 0.  1.
</event>
<event>
 7    1  0.6273950E-006  0.5275082E+02  0.7818608E-02  0.1491345E+00
          2   -1    0    0  502    0  0.00000000000E+00  0.00000000000E+00  0.17364296151E+04  0.17364296151E+04  0.00000000000E+00 0. -1.
          1   -1    0    0  501    0 -0.00000000000E+00 -0.00000000000E+00 -0.65556705958E+03  0.65556705958E+03  0.00000000000E+00 0. -1.
         25    2    1    2    0    0 -0.33812557528E+02 -0.17224748557E+02  0.30061618713E+02  0.13401821060E+03  0.12496879147E+03 0.  0.
          2    1    1    2  501    0  0.13029712253E+02 -0.31468635865E+02 -0.60268425744E+03  0.60364589174E+03  0.00000000000E+00 0. -1.
          1    1    1    2  502    0  0.20782845275E+02  0.48693384421E+02  0.16534851943E+04  0.16543325724E+04  0.00000000000E+00 0. -1.
         22    1    3    3    0    0 -0.11786408827E+02  0.78488751599E+01  0.75960060058E+02  0.77268719404E+02  0.00000000000E+00 0.  1.
         22    1    3    3    0    0 -0.22026148701E+02 -0.25073623716E+02 -0.45898441344E+02  0.56749491194E+02  0.00000000000E+00 0.  1.
</event>
<event>
 7    1  0.6273950E-006  0.3825753E+02  0.7818608E-02  0.1569176E+00
          2   -1    0    0  502    0  0.00000000000E+00  0.00000000000E+00  0.28848920998E+03  0.28848920998E+03  0.00000000000E+00 0. -1.
          1   -1    0    0  501    0 -0.00000000000E+00 -0.00000000000E+00 -0.18957061983E+03  0.18957061983E+03  0.00000000000E+00 0. -1.
         25    2    1    2    0    0  0.15379353890E+01  0.36204912581E+02  0.44824018227E+01  0.13022412192E+03  0.12500027625E+03 0.  0.
          2    1    1    2  501    0  0.26406502009E+02 -0.96054983759E+01 -0.12342588400E+03  0.12658403449E+03  0.00000000000E+00 0. -1.
          1    1    1    2  502    0 -0.27944437398E+02 -0.26599414205E+02  0.21786207233E+03  0.22125167339E+03  0.00000000000E+00 0. -1.
         22    1    3    3    0    0 -0.17218786769E+02  0.30966674913E+02  0.60945673364E+02  0.70496784854E+02  0.00000000000E+00 0.  1.
         22    1    3    3    0    0  0.18756722158E+02  0.52382376682E+01 -0.56463271541E+02  0.59727337067E+02  0.00000000000E+00 0.  1.
</event>
<event>
 7    1  0.6273950E-006  0.5681967E+02  0.7818608E-02  0.1520459E+00
          2   -1    0    0  502    0  0.00000000000E+00  0.00000000000E+00  0.17103347410E+04  0.17103347410E+04  0.00000000000E+00 0. -1.
          1   -1    0    0  501    0 -0.00000000000E+00 -0.00000000000E+00 -0.10356142674E+04  0.10356142674E+04  0.00000000000E+00 0. -1.
         25    2    1    2    0    0  0.78016877023E+02 -0.81153687688E+01  0.17193523407E+03  0.22658333105E+03  0.12500315549E+03 0.  0.
          2    1    1    2  501    0 -0.24275747412E+02 -0.91094575776E+01 -0.10075964719E+04  0.10079300295E+04  0.00000000000E+00 0. -1.
          1    1    1    2  502    0 -0.53741129611E+02  0.17224826346E+02  0.15103817114E+04  0.15114356479E+04  0.00000000000E+00 0. -1.
         22    1    3    3    0    0  0.48691378766E+01 -0.24916234281E+02  0.14443828851E+03  0.14665246818E+03  0.00000000000E+00 0. -1.
         22    1    3    3    0    0  0.73147739147E+02  0.16800865512E+02  0.27496945559E+02  0.79930862871E+02  0.00000000000E+00 0. -1.
</event>
<event>
 7    1  0.6273950E-006  0.8553043E+02  0.7818608E-02  0.1342224E+00
          2   -1    0    0  502    0  0.00000000000E+00  0.00000000000E+00  0.38605309602E+04  0.38605309602E+04  0.00000000000E+00 0. -1.
          1   -1    0    0  501    0 -0.00000000000E+00 -0.00000000000E+00 -0.13891896051E+03  0.13891896051E+03  0.00000000000E+00 0. -1.
         25    2    1    2    0    0 -0.69568093957E+02  0.47646542135E+02  0.23453670302E+03  0.27882324114E+03  0.12500008823E+03 0.  0.
          2    1    1    2  501    0  0.55295596445E+02  0.37311754352E+02 -0.10669086415E+03  0.12582809898E+03  0.00000000000E+00 0. -1.
          1    1    1    2  502    0  0.14272497512E+02 -0.84958296487E+02  0.35937661609E+04  0.35947985806E+04  0.00000000000E+00 0. -1.
         22    1    3    3    0    0  0.22608830163E+02 -0.10892380098E+02  0.11163315370E+03  0.11441924729E+03  0.00000000000E+00 0.  1.
         22    1    3    3    0    0 -0.92176924120E+02  0.58538922233E+02  0.12290354932E+03  0.16440399385E+03  0.00000000000E+00 0.  1.
</event>
<event>
 7    1  0.6273950E-006  0.5473017E+02  0.7818608E-02  0.1456836E+00
          2   -1    0    0  502    0  0.00000000000E+00  0.00000000000E+00  0.30336871066E+04  0.30336871066E+04  0.00000000000E+00 0. -1.
          1   -1    0    0  501    0 -0.00000000000E+00 -0.00000000000E+00 -0.19206706946E+02  0.19206706946E+02  0.00000000000E+00 0. -1.
         25    2    1    2    0    0 -0.58738367904E+02 -0.23955079280E+02  0.48888100036E+03  0.50857865850E+03  0.12499431056E+03 0.  0.
          2    1    1    2  501    0  0.33752477908E+02 -0.24953578179E+02  0.39592358469E+02  0.57701522320E+02  0.00000000000E+00 0. -1.
          1    1    1    2  502    0  0.24985889996E+02  0.48908657459E+02  0.24860070409E+04  0.24866136328E+04  0.00000000000E+00 0. -1.
         22    1    3    3    0    0 -0.13063299491E+02  0.43819443982E+02  0.85070435954E+02  0.96580394169E+02  0.00000000000E+00 0.  1.
         22    1    3    3    0    0 -0.45675068413E+02 -0.67774523262E+02  0.40381056441E+03  0.41199826433E+03  0.00000000000E+00 0.  1.
</event>
<event>
 7    1  0.6273950E-006  0.8290860E+02  0.7818608E-02  0.1496721E+00
          2   -1    0    0  502    0  0.00000000000E+00  0.00000000000E+00  0.51338485376E+03  0.51338485376E+03  0.00000000000E+00 0. -1.
          1   -1    0    0  501    0 -0.00000000000E+00 -0.00000000000E+00 -0.25611659363E+03  0.25611659363E+03  0.00000000000E+00 0. -1.
         25    2    1    2    0    0  0.60500690865E+01 -0.71981925197E+02 -0.71592132408E+02  0.16115454887E+03  0.12500941688E+03 0.  0.
          2    1    1    2  501    0 -0.18073083190E+02 -0.10453010965E+02 -0.13523329760E+03  0.13683547258E+03  0.00000000000E+00 0. -1.
          1    1    1    2  502    0  0.12023014104E+02  0.82434936161E+02  0.46409369013E+03  0.47151142594E+03  0.00000000000E+00 0. -1.
         22    1    3    3    0    0 -0.54719994532E+02 -0.35952746938E+02 -0.61428654040E+02  0.89779492932E+02  0.00000000000E+00 0. -1.
         22    1    3    3    0    0  0.60770063618E+02 -0.36029178259E+02 -0.10163478368E+02  0.71375055942E+02  0.00000000000E+00 0. -1.
</event>
<event>
 7    1  0.6273950E-006  0.7320143E+02  0.7818608E-02  0.1381748E+00
          2   -1    0    0  502    0  0.00000000000E+00  0.00000000000E+00  0.78115209407E+03  0.78115209407E+03  0.00000000000E+00 0. -1.
          1   -1    0    0  501    0 -0.00000000000E+00 -0.00000000000E+00 -0.19018189414E+03  0.19018189414E+03  0.00000000000E+00 0. -1.
         25    2    1    2    0    0 -0.26852939251E+02 -0.52128007659E+02  0.26702098938E+03  0.30061398480E+03  0.12502059654E+03 0.  0.
          2    1    1    2  501    0  0.51072759161E+02 -0.22887050104E+02 -0.16563271013E+03  0.17483260124E+03  0.00000000000E+00 0. -1.
          1    1    1    2  502    0 -0.24219819910E+02  0.75015057763E+02  0.48958192069E+03  0.49588740217E+03  0.00000000000E+00 0. -1.
         22    1    3    3    0    0 -0.90042317924E+01  0.14510085966E+02 -0.66918425004E+01  0.18341197915E+02  0.00000000000E+00 0.  1.
         22    1    3    3    0    0 -0.17848707459E+02 -0.66638093624E+02  0.27371283188E+03  0.28227278688E+03  0.00000000000E+00 0.  1.
</event>
<event>
 7    1  0.6273950E-006  0.6266378E+02  0.7818608E-02  0.1427935E+00
          2   -1    0    0  502    0  0.00000000000E+00  0.00000000000E+00  0.20571476769E+03  0.20571476769E+03  0.00000000000E+00 0. -1.
          1   -1    0    0  501    0 -0.00000000000E+00 -0.00000000000E+00 -0.13874069563E+04  0.13874069563E+04  0.00000000000E+00 0. -1.
         25    2    1    2    0    0  0.14835102771E+02  0.12116976275E+02 -0.55072993782E+03  0.56506227600E+03  0.12500003986E+03 0.  0.
          2    1    1    2  501    0  0.17860649046E+02  0.41811139738E+02 -0.82386027378E+03  0.82511388602E+03  0.00000000000E+00 0. -1.
          1    1    1    2  502    0 -0.32695751817E+02 -0.53928116013E+02  0.19289802294E+03  0.20294556201E+03  0.00000000000E+00 0. -1.
         22    1    3    3    0    0  0.79508111928E+01  0.68804516552E+02 -0.31258730629E+03  0.32016886318E+03  0.00000000000E+00 0. -1.
         22    1    3    3    0    0  0.68842915782E+01 -0.56687540277E+02 -0.23814263153E+03  0.24489341282E+03  0.00000000000E+00 0. -1.
</event>
<event>
 7    1  0.6273950E-006  0.2995232E+02  0.7818608E-02  0.1633933E+00
          2   -1    0    0  502    0  0.00000000000E+00  0.00000000000E+00  0.14395117909E+03  0.14395117909E+03  0.00000000000E+00 0. -1.
          1   -1    0    0  501    0 -0.00000000000E+00 -0.00000000000E+00 -0.14671117886E+04  0.14671117886E+04  0.00000000000E+00 0. -1.
         25    2    1    2    0    0  0.40743459663E+02 -0.20873758734E+02 -0.38004779598E+03  0.40268739094E+03  0.12500025713E+03 0.  0.
          2    1    1    2  501    0 -0.16710719514E+02  0.24630286193E+02 -0.10744210856E+04  0.10748332747E+04  0.00000000000E+00 0. -1.
          1    1    1    2  502    0 -0.24032740149E+02 -0.37565274597E+01  0.13130827213E+03  0.13354230202E+03  0.00000000000E+00 0. -1.
         22    1    3    3    0    0  0.62205055680E+02  0.36170435209E+02 -0.19431496814E+03  0.20721022218E+03  0.00000000000E+00 0. -1.
         22    1    3    3    0    0 -0.21461596017E+02 -0.57044193942E+02 -0.18573282784E+03  0.19547716875E+03  0.00000000000E+00 0. -1.
</event>
<event>
 7    1  0.6273950E-006  0.5143988E+02  0.7818608E-02  0.1471101E+00
          2   -1    0    0  502    0  0.00000000000E+00  0.00000000000E+00  0.78178808356E+02  0.78178808356E+02  0.00000000000E+00 0. -1.
          1   -1    0    0  501    0 -0.00000000000E+00 -0.00000000000E+00 -0.11185845740E+04  0.11185845740E+04  0.00000000000E+00 0. -1.
         25    2    1    2    0    0  0.60921306386E+02 -0.67809845138E+01 -0.15460690481E+03  0.20805152546E+03  0.12499901963E+03 0.  0.
          2    1    1    2  501    0 -0.35137012333E+02  0.37736137148E+02 -0.92854339804E+03  0.92997390701E+03  0.00000000000E+00 0. -1.
          1    1    1    2  502    0 -0.25784294053E+02 -0.30955152634E+02  0.42744537212E+02  0.58737949878E+02  0.00000000000E+00 0. -1.
         22    1    3    3    0    0 -0.25802097236E+02  0.27868104665E+02 -0.16675153231E+02  0.41478189626E+02  0.00000000000E+00 0.  1.
         22    1    3    3    0    0  0.86723403622E+02 -0.34649089178E+02 -0.13793175158E+03  0.16657333583E+03  0.00000000000E+00 0.  1.
</event>
<event>
 7    1  0.1015694E-005  0.9743321E+02  0.7818608E-02  0.1357173E+00
          2   -1    0    0  502    0  0.00000000000E+00  0.00000000000E+00  0.83846319429E+03  0.83846319429E+03  0.00000000000E+00 0. -1.
          1   -1    0    0  501    0 -0.00000000000E+00 -0.00000000000E+00 -0.24513780733E+04  0.24513780733E+04  0.00000000000E+00 0. -1.
         25    2    1    2    0    0 -0.87530094128E+02 -0.11715777152E+03 -0.49885592987E+03  0.53466789200E+03  0.12500022066E+03 0.  0.
          2    1    1    2  501    0  0.19615838338E+02  0.47664179332E+02 -0.19313945259E+04  0.19320821592E+04  0.00000000000E+00 0. -1.
          1    1    1    2  502    0  0.67914255790E+02  0.69493592190E+02  0.81733557677E+03  0.82309121642E+03  0.00000000000E+00 0. -1.
         22    1    3    3    0    0  0.93201653615E+01 -0.52064103811E+02 -0.29561220110E+03  0.30030669294E+03  0.00000000000E+00 0.  1.
         22    1    3    3    0    0 -0.96850259489E+02 -0.65093667711E+02 -0.20324372877E+03  0.23436119906E+03  0.00000000000E+00 0.  1.
</event>
<event>
 7    1  0.6273950E-006  0.1516414E+03  0.7818608E-02  0.1255944E+00
          2   -1    0    0  502    0  0.00000000000E+00  0.00000000000E+00  0.92799579926E+03  0.92799579926E+03  0.00000000000E+00 0. -1.
          1   -1    0    0  501    0 -0.00000000000E+00 -0.00000000000E+00 -0.25767601593E+04  0.25767601593E+04  0.00000000000E+00 0. -1.
         25    2    1    2    0    0 -0.10924783446E+03  0.14936895993E+03  0.41585439112E+03  0.47202293135E+03  0.12499839031E+03 0.  0.
          2    1    1    2  501    0  0.13455129068E+03 -0.69779213447E+02 -0.25428001122E+04  0.25473134081E+04  0.00000000000E+00 0. -1.
          1    1    1    2  502    0 -0.25303456222E+02 -0.79589746486E+02  0.47818136100E+03  0.48541961915E+03  0.00000000000E+00 0. -1.
         22    1    3    3    0    0 -0.22668316470E+02  0.10619436957E+03  0.31072197131E+03  0.32914926728E+03  0.00000000000E+00 0.  1.
         22    1    3    3    0    0 -0.86579517988E+02  0.43174590360E+02  0.10513241982E+03  0.14287366407E+03  0.00000000000E+00 0.  1.
</event>
<event>
 7    1  0.6273950E-006  0.6274994E+02  0.7818608E-02  0.1434623E+00
          2   -1    0    0  502    0  0.00000000000E+00  0.00000000000E+00  0.20635758296E+04  0.20635758296E+04  0.00000000000E+00 0. -1.
          1   -1    0    0  501    0 -0.00000000000E+00 -0.00000000000E+00 -0.44041634732E+02  0.44041634732E+02  0.00000000000E+00 0. -1.
         25    2    1    2    0    0  0.39657769690E+02 -0.39927969929E+02  0.15472949687E+03  0.20671912397E+03  0.12499839012E+03 0.  0.
          2    1    1    2  501    0 -0.36420108569E+02 -0.23165231851E+02  0.90916430114E+01  0.44110205707E+02  0.00000000000E+00 0. -1.
          1    1    1    2  502    0 -0.32376611207E+01  0.63093201780E+02  0.18557130549E+04  0.18567881346E+04  0.00000000000E+00 0. -1.
         22    1    3    3    0    0  0.34324724859E+02  0.26631162890E+02  0.62177004772E+01  0.43886961307E+02  0.00000000000E+00 0. -1.
         22    1    3    3    0    0  0.53330448303E+01 -0.66559132819E+02  0.14851179639E+03  0.16283216266E+03  0.00000000000E+00 0. -1.
</event>
<event>
 7    1  0.7040629E-006  0.8452968E+02  0.7818608E-02  0.1324591E+00
          2   -1    0    0  502    0  0.00000000000E+00  0.00000000000E+00  0.36170672996E+04  0.36170672996E+04  0.00000000000E+00 0. -1.
          1   -1    0    0  501    0 -0.00000000000E+00 -0.00000000000E+00 -0.72607317940E+03  0.72607317940E+03  0.00000000000E+00 0. -1.
         25    2    1    2    0    0 -0.16251592232E+02 -0.24113808927E+02 -0.11042613580E+03  0.16930177040E+03  0.12499427172E+03 0.  0.
          2    1    1    2  501    0 -0.29962705751E+02  0.87887142348E+02 -0.58209685340E+03  0.58945624117E+03  0.00000000000E+00 0. -1.
          1    1    1    2  502    0  0.46214297983E+02 -0.63773333421E+02  0.35835171094E+04  0.35843824674E+04  0.00000000000E+00 0. -1.
         22    1    3    3    0    0 -0.25968319064E+02  0.14648338800E+02  0.17982929793E+02  0.34818288133E+02  0.00000000000E+00 0. -1.
         22    1    3    3    0    0  0.97167268318E+01 -0.38762147726E+02 -0.12840906560E+03  0.13448348227E+03  0.00000000000E+00 0. -1.
</event>
<event>
 7    1  0.6273950E-006  0.9622080E+02  0.7818608E-02  0.1334844E+00
          2   -1    0    0  502    0  0.00000000000E+00  0.00000000000E+00  0.72878541590E+03  0.72878541590E+03  0.00000000000E+00 0. -1.
          1   -1    0    0  501    0 -0.00000000000E+00 -0.00000000000E+00 -0.19904617379E+04  0.19904617379E+04  0.00000000000E+00 0. -1.
         25    2    1    2    0    0 -0.89141516565E+01 -0.14598888319E+03 -0.18844416544E+03  0.26931028588E+03  0.12499844190E+03 0.  0.
          2    1    1    2  501    0  0.33511277498E+02  0.53606602022E+02 -0.17576941585E+04  0.17588306991E+04  0.00000000000E+00 0. -1.
          1    1    1    2  502    0 -0.24597125842E+02  0.92382281168E+02  0.68446200191E+03  0.69110616879E+03  0.00000000000E+00 0. -1.
         22    1    3    3    0    0  0.43979567345E+01  0.71963221448E+01  0.13239733062E+02  0.15697758038E+02  0.00000000000E+00 0.  1.
         22    1    3    3    0    0 -0.13312108391E+02 -0.15318520533E+03 -0.20168389850E+03  0.25361252784E+03  0.00000000000E+00 0.  1.
</event>
<event>
 7    1  0.6273950E-006  0.8539491E+02  0.7818608E-02  0.1354089E+00
          2   -1    0    0  502    0  0.00000000000E+00  0.00000000000E+00  0.19266570402E+04  0.19266570402E+04  0.00000000000E+00 0. -1.
          1   -1    0    0  501    0 -0.00000000000E+00 -0.00000000000E+00 -0.13337336830E+02  0.13337336830E+02  0.00000000000E+00 0. -1.
         25    2    1    2    0    0 -0.10184656556E+02  0.40631850747E+02  0.10038435342E+04  0.10124632011E+04  0.12500087155E+03 0.  0.
          2    1    1    2  501    0  0.82974887022E+02  0.20185606955E+02  0.36516032082E+03  0.37501246713E+03  0.00000000000E+00 0. -1.
          1    1    1    2  502    0 -0.72790230466E+02 -0.60817457702E+02  0.54431584837E+03  0.55251870883E+03  0.00000000000E+00 0. -1.
         22    1    3    3    0    0 -0.10884198195E+02  0.84389250846E+02  0.75735842316E+03  0.76212321351E+03  0.00000000000E+00 0.  1.
         22    1    3    3    0    0  0.69954163904E+00 -0.43757400099E+02  0.24648511100E+03  0.25033998755E+03  0.00000000000E+00 0.  1.
</event>
<event>
 7    1  0.6273950E-006  0.7165196E+02  0.7818608E-02  0.1471480E+00
          2   -1    0    0  502    0  0.00000000000E+00  0.00000000000E+00  0.62680887269E+03  0.62680887269E+03  0.00000000000E+00 0. -1.
          1   -1    0    0  501    0 -0.00000000000E+00 -0.00000000000E+00 -0.21764024853E+03  0.21764024853E+03  0.00000000000E+00 0. -1.
         25    2    1    2    0    0  0.43197132272E+02 -0.75476169077E+01 -0.10436298410E+03  0.16864403654E+03  0.12500487932E+03 0.  0.
          2    1    1    2  501    0  0.28731913987E+02  0.25449936550E+01 -0.76306552409E+02  0.81576282181E+02  0.00000000000E+00 0. -1.
          1    1    1    2  502    0 -0.71929046259E+02  0.50026232526E+01  0.58983816066E+03  0.59422880249E+03  0.00000000000E+00 0. -1.
         22    1    3    3    0    0 -0.55460682607E+01  0.40533294211E+02 -0.89751211418E+02  0.98635626240E+02  0.00000000000E+00 0. -1.
         22    1    3    3    0    0  0.48743200533E+02 -0.48080911119E+02 -0.14611772679E+02  0.70008410302E+02  0.00000000000E+00 0. -1.
</event>
<event>
 7    1  0.6273950E-006  0.1315171E+03  0.7818608E-02  0.1325716E+00
          2   -1    0    0  502    0  0.00000000000E+00  0.00000000000E+00  0.11596651253E+04  0.11596651253E+04  0.00000000000E+00 0. -1.
          1   -1    0    0  501    0 -0.00000000000E+00 -0.00000000000E+00 -0.18077871316E+04  0.18077871316E+04  0.00000000000E+00 0. -1.
         25    2    1    2    0    0  0.74004836232E+02 -0.89569305363E+02 -0.13593863318E+03  0.21818184861E+03  0.12499852328E+03 0.  0.
          2    1    1    2  501    0 -0.34445145984E+02 -0.36404849291E+02 -0.16264428649E+04  0.16272148518E+04  0.00000000000E+00 0. -1.
          1    1    1    2  502    0 -0.39559690247E+02  0.12597415465E+03  0.11142594918E+04  0.11220555564E+04  0.00000000000E+00 0. -1.
         22    1    3    3    0    0  0.29963111177E+02 -0.46153017559E+02  0.13322422838E+02  0.56616040231E+02  0.00000000000E+00 0.  1.
         22    1    3    3    0    0  0.44041725055E+02 -0.43416287804E+02 -0.14926105602E+03  0.16156580838E+03  0.00000000000E+00 0.  1.
</event>
<event>
 7    1  0.6273950E-006  0.1358201E+03  0.7818608E-02  0.1313310E+00
          2   -1    0    0  502    0  0.00000000000E+00  0.00000000000E+00  0.13290876526E+04  0.13290876526E+04  0.00000000000E+00 0. -1.
          1   -1    0    0  501    0 -0.00000000000E+00 -0.00000000000E+00 -0.14370722278E+04  0.14370722278E+04  0.00000000000E+00 0. -1.
         25    2    1    2    0    0 -0.15625960197E+03 -0.17353156181E+02  0.77946663230E+03  0.80492950135E+03  0.12500030413E+03 0.  0.
          2    1    1    2  501    0  0.41551057591E+02 -0.34836800764E+02 -0.14164195989E+04  0.14174570799E+04  0.00000000000E+00 0. -1.
          1    1    1    2  502    0  0.11470854438E+03  0.52189956945E+02  0.52896839147E+03  0.54377329921E+03  0.00000000000E+00 0. -1.
         22    1    3    3    0    0 -0.29815534049E+02 -0.42096341711E+02  0.41831127569E+03  0.42148000121E+03  0.00000000000E+00 0.  1.
         22    1    3    3    0    0 -0.12644406792E+03  0.24743185530E+02  0.36115535661E+03  0.38344950014E+03  0.00000000000E+00 0.  1.
</event>
<event>
 7    1  0.6273950E-006  0.9248998E+02  0.7818608E-02  0.1371154E+00
          2   -1    0    0  502    0  0.00000000000E+00  0.00000000000E+00  0.17409392154E+04  0.17409392154E+04  0.00000000000E+00 0. -1.
          1   -1    0    0  501    0 -0.00000000000E+00 -0.00000000000E+00 -0.57357874189E+02  0.57357874189E+02  0.00000000000E+00 0. -1.
         25    2    1    2    0    0 -0.68107529494E+02  0.27762880968E+02  0.43625945850E+03  0.45973544333E+03  0.12499979838E+03 0.  0.
          2    1    1    2  501    0 -0.27928511346E+02 -0.39424234185E+02 -0.30465340612E+02  0.57117501396E+02  0.00000000000E+00 0. -1.
          1    1    1    2  502    0  0.96036040840E+02  0.11661353216E+02  0.12777872233E+04  0.12814441448E+04  0.00000000000E+00 0. -1.
         22    1    3    3    0    0  0.26518948096E+02 -0.22658032701E+02  0.71678944577E+02  0.79715193969E+02  0.00000000000E+00 0.  1.
         22    1    3    3    0    0 -0.94626477590E+02  0.50420913669E+02  0.36458051392E+03  0.38002024936E+03  0.00000000000E+00 0.  1.
</event>
<event>
 7    1  0.6273950E-006  0.9994568E+02  0.7818608E-02  0.1402533E+00
          2   -1    0    0  502    0  0.00000000000E+00  0.00000000000E+00  0.12903245215E+04  0.12903245215E+04  0.00000000000E+00 0. -1.
          1   -1    0    0  501    0 -0.00000000000E+00 -0.00000000000E+00 -0.71891129594E+02  0.71891129594E+02  0.00000000000E+00 0. -1.
         25    2    1    2    0    0  0.39400808716E+02 -0.75889997473E+02  0.24337925698E+03  0.28665397475E+03  0.12500129226E+03 0.  0.
          2    1    1    2  501    0 -0.16813418301E+02  0.10223678123E+03  0.37916949104E+01  0.10367944551E+03  0.00000000000E+00 0. -1.
          1    1    1    2  502    0 -0.22587390416E+02 -0.26346783758E+02  0.97126244000E+03  0.97188223082E+03  0.00000000000E+00 0. -1.
         22    1    3    3    0    0  0.19607652013E+02 -0.10342255354E+03  0.12451704516E+03  0.16304962169E+03  0.00000000000E+00 0. -1.
         22    1    3    3    0    0  0.19793156703E+02  0.27532556069E+02  0.11886221182E+03  0.12360435306E+03  0.00000000000E+00 0. -1.
</event>
<event>
 7    1  0.6273950E-006  0.4506114E+02  0.7818608E-02  0.1499227E+00
          2   -1    0    0  502    0  0.00000000000E+00  0.00000000000E+00  0.16192763672E+04  0.16192763672E+04  0.00000000000E+00 0. -1.
          1   -1    0    0  501    0 -0.00000000000E+00 -0.00000000000E+00 -0.21938205221E+03  0.21938205221E+03  0.00000000000E+00 0. -1.
         25    2    1    2    0    0  0.68449460563E+00  0.26478711340E+02  0.44642980838E+03  0.46435567112E+03  0.12500009920E+03 0.  0.
          2    1    1    2  501    0  0.37756299603E+02 -0.16122971670E+00 -0.20825477659E+03  0.21164974870E+03  0.00000000000E+00 0. -1.
          1    1    1    2  502    0 -0.38440794209E+02 -0.26317481624E+02  0.11617192832E+04  0.11626529996E+04  0.00000000000E+00 0. -1.
         22    1    3    3    0    0  0.10115118249E+02  0.76264604514E+02  0.25724536395E+03  0.26850285435E+03  0.00000000000E+00 0. -1.
         22    1    3    3    0    0 -0.94306236432E+01 -0.49785893174E+02  0.18918444444E+03  0.19585281677E+03  0.00000000000E+00 0. -1.
</event>
<event>
 7    1  0.6273950E-006  0.1461391E+03  0.7818608E-02  0.1237830E+00
          2   -1    0    0  502    0  0.00000000000E+00  0.00000000000E+00  0.35044837331E+03  0.35044837331E+03  0.00000000000E+00 0. -1.
          1   -1    0    0  501    0 -0.00000000000E+00 -0.00000000000E+00 -0.42612827646E+03  0.42612827646E+03  0.00000000000E+00 0. -1.
         25    2    1    2    0    0  0.10193842035E+02 -0.18907822563E+03 -0.56561058448E+02  0.23383206666E+03  0.12499516887E+03 0.  0.
          2    1    1    2  501    0  0.70374742573E+02  0.12340136037E+03 -0.25112292209E+03  0.28851901520E+03  0.00000000000E+00 0. -1.
          1    1    1    2  502    0 -0.80568584608E+02  0.65676865261E+02  0.23200407739E+03  0.25422556792E+03  0.00000000000E+00 0. -1.
         22    1    3    3    0    0  0.17224802944E+01 -0.71474114006E+02  0.39558237038E+02  0.81709057202E+02  0.00000000000E+00 0.  1.
         22    1    3    3    0    0  0.84713617407E+01 -0.11760411162E+03 -0.96119295486E+02  0.15212300945E+03  0.00000000000E+00 0.  1.
</event>
<event>
 7    1  0.6273950E-006  0.1347846E+03  0.7818608E-02  0.1287193E+00
          2   -1    0    0  502    0  0.00000000000E+00  0.00000000000E+00  0.22919523644E+04  0.22919523644E+04  0.00000000000E+00 0. -1.
          1   -1    0    0  501    0 -0.00000000000E+00 -0.00000000000E+00 -0.74428481718E+03  0.74428481718E+03  0.00000000000E+00 0. -1.
         25    2    1    2    0    0 -0.10345677911E+03 -0.95144454718E+02  0.33799044993E+01  0.18812856599E+03  0.12500064472E+03 0.  0.
          2    1    1    2  501    0 -0.27871150195E+02  0.63673861995E+02 -0.64797408847E+03  0.65169132344E+03  0.00000000000E+00 0. -1.
          1    1    1    2  502    0  0.13132792930E+03  0.31470592722E+02  0.21922617312E+04  0.21964172921E+04  0.00000000000E+00 0. -1.
         22    1    3    3    0    0 -0.61629755975E+02  0.17056866313E+02  0.20532861647E+02  0.67162206020E+02  0.00000000000E+00 0. -1.
         22    1    3    3    0    0 -0.41827023134E+02 -0.11220132103E+03 -0.17152957148E+02  0.12096635997E+03  0.00000000000E+00 0. -1.
</event>
<event>
 7    1  0.6273950E-006  0.1305867E+03  0.7818608E-02  0.1376970E+00
          2   -1    0    0  502    0  0.00000000000E+00  0.00000000000E+00  0.11049719280E+04  0.11049719280E+04  0.00000000000E+00 0. -1.
          1   -1    0    0  501    0 -0.00000000000E+00 -0.00000000000E+00 -0.27508844912E+03  0.27508844912E+03  0.00000000000E+00 0. -1.
         25    2    1    2    0    0  0.90294218709E+02 -0.51832261062E+02  0.44376763660E+03  0.47264645591E+03  0.12500131109E+03 0.  0.
          2    1    1    2  501    0 -0.12264869679E+03  0.47676217575E+02 -0.24359165082E+03  0.27686209003E+03  0.00000000000E+00 0. -1.
          1    1    1    2  502    0  0.32354478085E+02  0.41560434870E+01  0.62970749311E+03  0.63055183120E+03  0.00000000000E+00 0. -1.
         22    1    3    3    0    0 -0.20719235302E+02  0.12454818267E+02  0.15216309206E+03  0.15407146327E+03  0.00000000000E+00 0. -1.
         22    1    3    3    0    0  0.11101345401E+03 -0.64287079329E+02  0.29160454453E+03  0.31857499264E+03  0.00000000000E+00 0. -1.
</event>
<event>
 7    1  0.6273950E-006  0.3911370E+02  0.7818608E-02  0.1538462E+00
          2   -1    0    0  502    0  0.00000000000E+00  0.00000000000E+00  0.19113998163E+03  0.19113998163E+03  0.00000000000E+00 0. -1.
          1   -1    0    0  501    0 -0.00000000000E+00 -0.00000000000E+00 -0.12512214441E+03  0.12512214441E+03  0.00000000000E+00 0. -1.
         25    2    1    2    0    0  0.32969685924E+02  0.31095777995E+02 -0.13438040741E+02  0.13363883235E+03  0.12499923589E+03 0.  0.
          2    1    1    2  501    0  0.64007906412E+01 -0.32826942932E+02 -0.42716661430E+02  0.54252110253E+02  0.00000000000E+00 0. -1.
          1    1    1    2  502    0 -0.39370476565E+02  0.17311649373E+01  0.12217253939E+03  0.12837118344E+03  0.00000000000E+00 0. -1.
         22    1    3    3    0    0 -0.24179728399E+02  0.63015769719E+02 -0.61616960426E+01  0.67776197864E+02  0.00000000000E+00 0. -1.
         22    1    3    3    0    0  0.57149414323E+02 -0.31919991724E+02 -0.72763446982E+01  0.65862634485E+02  0.00000000000E+00 0. -1.
</event>
<event>
 7    1  0.6273950E-006  0.3113020E+03  0.7818608E-02  0.1139535E+00
          2   -1    0    0  502    0  0.00000000000E+00  0.00000000000E+00  0.35479087183E+04  0.35479087183E+04  0.00000000000E+00 0. -1.
          1   -1    0    0  501    0 -0.00000000000E+00 -0.00000000000E+00 -0.15070092930E+04  0.15070092930E+04  0.00000000000E+00 0. -1.
         25    2    1    2    0    0 -0.37687650610E+03 -0.55445954779E+02  0.81985559709E+03  0.91263271033E+03  0.12500043646E+03 0.  0.
          2    1    1    2  501    0  0.81661648429E+02  0.12002685654E+03 -0.14484672100E+04  0.14557239881E+04  0.00000000000E+00 0. -1.
          1    1    1    2  502    0  0.29521485767E+03 -0.64580901765E+02  0.26695110382E+04  0.26865613129E+04  0.00000000000E+00 0. -1.
         22    1    3    3    0    0 -0.31459076582E+03 -0.32384548784E+01  0.58686374612E+03  0.66587303147E+03  0.00000000000E+00 0.  1.
         22    1    3    3    0    0 -0.62285740282E+02 -0.52207499901E+02  0.23299185098E+03  0.24675967886E+03  0.00000000000E+00 0.  1.
</event>
<event>
 7    1  0.6273950E-006  0.1337037E+03  0.7818608E-02  0.1392900E+00
          2   -1    0    0  502    0  0.00000000000E+00  0.00000000000E+00  0.74242586732E+03  0.74242586732E+03  0.00000000000E+00 0. -1.
          1   -1    0    0  501    0 -0.00000000000E+00 -0.00000000000E+00 -0.17112938447E+03  0.17112938447E+03  0.00000000000E+00 0. -1.
         25    2    1    2    0    0 -0.91259584214E+02 -0.89884361654E+02  0.40176280504E+03  0.43982267599E+03  0.12499249823E+03 0.  0.
          2    1    1    2  501    0  0.11311363371E+03  0.72372330141E+02 -0.12165693867E+03  0.18119839687E+03  0.00000000000E+00 0. -1.
          1    1    1    2  502    0 -0.21854049496E+02  0.17512031513E+02  0.29119061647E+03  0.29253417894E+03  0.00000000000E+00 0. -1.
         22    1    3    3    0    0 -0.11743397918E+03 -0.83843318981E+02  0.37543845860E+03  0.40221198117E+03  0.00000000000E+00 0.  1.
         22    1    3    3    0    0  0.26174394969E+02 -0.60410426730E+01  0.26324346445E+02  0.37610694813E+02  0.00000000000E+00 0.  1.
</event>
<event>
 7    1  0.6273950E-006  0.1096074E+03  0.7818608E-02  0.1296439E+00
          2   -1    0    0  502    0  0.00000000000E+00  0.00000000000E+00  0.86653594950E+03  0.86653594950E+03  0.00000000000E+00 0. -1.
          1   -1    0    0  501    0 -0.00000000000E+00 -0.00000000000E+00 -0.63226254017E+03  0.63226254017E+03  0.00000000000E+00 0. -1.
         25    2    1    2    0    0  0.84780533205E+02  0.13107943200E+02 -0.15992366139E+03  0.22036267563E+03  0.12499829740E+03 0.  0.
          2    1    1    2  501    0 -0.10311294857E+03  0.63121603300E+02 -0.43196349710E+03  0.44856335093E+03  0.00000000000E+00 0. -1.
          1    1    1    2  502    0  0.18332415360E+02 -0.76229546500E+02  0.82616056782E+03  0.82987246312E+03  0.00000000000E+00 0. -1.
         22    1    3    3    0    0  0.17833135137E+02  0.55715126770E+02 -0.24545202432E+02  0.63440231889E+02  0.00000000000E+00 0. -1.
         22    1    3    3    0    0  0.66947398069E+02 -0.42607183569E+02 -0.13537845895E+03  0.15692244374E+03  0.00000000000E+00 0. -1.
</event>
<event>
 7    1  0.6273950E-006  0.7288917E+02  0.7818608E-02  0.1448827E+00
          2   -1    0    0  502    0  0.00000000000E+00  0.00000000000E+00  0.17878126349E+02  0.17878126349E+02  0.00000000000E+00 0. -1.
          1   -1    0    0  501    0 -0.00000000000E+00 -0.00000000000E+00 -0.25890387736E+04  0.25890387736E+04  0.00000000000E+00 0. -1.
         25    2    1    2    0    0  0.51063450833E+02 -0.64157508332E+02 -0.12160195492E+04  0.12251741697E+04  0.12499815988E+03 0.  0.
          2    1    1    2  501    0  0.13408420309E+02  0.30618355734E+02 -0.12672789551E+04  0.12677196928E+04  0.00000000000E+00 0. -1.
          1    1    1    2  502    0 -0.64471871142E+02  0.33539152598E+02 -0.87862142929E+02  0.11402303752E+03  0.00000000000E+00 0. -1.
         22    1    3    3    0    0  0.42590257237E+02 -0.98131000252E+01 -0.11892748897E+03  0.12670428003E+03  0.00000000000E+00 0. -1.
         22    1    3    3    0    0  0.84731935959E+01 -0.54344408307E+02 -0.10970920603E+04  0.10984698896E+04  0.00000000000E+00 0. -1.
</event>
<event>
 7    1  0.6273950E-006  0.9500469E+02  0.7818608E-02  0.1306401E+00
          2   -1    0    0  502    0  0.00000000000E+00  0.00000000000E+00  0.21349775098E+03  0.21349775098E+03  0.00000000000E+00 0. -1.
          1   -1    0    0  501    0 -0.00000000000E+00 -0.00000000000E+00 -0.92035028902E+03  0.92035028902E+03  0.00000000000E+00 0. -1.
         25    2    1    2    0    0  0.35501681423E+02  0.84989628764E+01 -0.32059582122E+03  0.34603423306E+03  0.12500163244E+03 0.  0.
          2    1    1    2  501    0 -0.72703899436E+02  0.78918918284E+02 -0.57050784686E+03  0.58051120229E+03  0.00000000000E+00 0. -1.
          1    1    1    2  502    0  0.37202218014E+02 -0.87417881160E+02  0.18425113004E+03  0.20730260464E+03  0.00000000000E+00 0. -1.
         22    1    3    3    0    0 -0.46267229161E+02 -0.96087248689E+00 -0.14272862799E+03  0.15004346376E+03  0.00000000000E+00 0.  1.
         22    1    3    3    0    0  0.81768910583E+02  0.94598353633E+01 -0.17786719323E+03  0.19599076930E+03  0.00000000000E+00 0.  1.
</event>
<event>
 7    1  0.6273950E-006  0.1415590E+03  0.7818608E-02  0.1345888E+00
          2   -1    0    0  502    0  0.00000000000E+00  0.00000000000E+00  0.26859290908E+03  0.26859290908E+03  0.00000000000E+00 0. -1.
          1   -1    0    0  501    0 -0.00000000000E+00 -0.00000000000E+00 -0.25434867936E+04  0.25434867936E+04  0.00000000000E+00 0. -1.
         25    2    1    2    0    0 -0.39527468390E+02 -0.12885456565E+03 -0.24981253026E+02  0.18551419162E+03  0.12500212977E+03 0.  0.
          2    1    1    2  501    0 -0.38369462894E+02  0.72742928285E+01 -0.24103800334E+04  0.24106963800E+04  0.00000000000E+00 0. -1.
          1    1    1    2  502    0  0.77896931285E+02  0.12158027282E+03  0.16046740196E+03  0.21586913103E+03  0.00000000000E+00 0. -1.
         22    1    3    3    0    0 -0.50747668587E+01 -0.88890405123E+02  0.43475299141E+02  0.99082586851E+02  0.00000000000E+00 0.  1.
         22    1    3    3    0    0 -0.34452701532E+02 -0.39964160524E+02 -0.68456552167E+02  0.86431604774E+02  0.00000000000E+00 0.  1.
</event>
<event>
 7    1  0.6273950E-006  0.2466050E+02  0.7818608E-02  0.1682127E+00
          2   -1    0    0  502    0  0.00000000000E+00  0.00000000000E+00  0.31728266791E+03  0.31728266791E+03  0.00000000000E+00 0. -1.
          1   -1    0    0  501    0 -0.00000000000E+00 -0.00000000000E+00 -0.42044258183E+02  0.42044258183E+02  0.00000000000E+00 0. -1.
         25    2    1    2    0    0 -0.16227277909E+02 -0.90887041407E+01  0.19976106859E+03  0.23638087040E+03  0.12500200908E+03 0.  0.
          2    1    1    2  501    0  0.14885928181E+02 -0.16958796313E+02 -0.16104457970E+02  0.27722647722E+02  0.00000000000E+00 0. -1.
          1    1    1    2  502    0  0.13413497281E+01  0.26047500454E+02  0.91581799099E+02  0.95223407969E+02  0.00000000000E+00 0. -1.
         22    1    3    3    0    0  0.22940045645E+02  0.48650793132E+02  0.11215828184E+03  0.12438900896E+03  0.00000000000E+00 0. -1.
         22    1    3    3    0    0 -0.39167323554E+02 -0.57739497273E+02  0.87602786758E+02  0.11199186143E+03  0.00000000000E+00 0. -1.
</event>
<event>
 7    1  0.6273950E-006  0.6457232E+02  0.7818608E-02  0.1494642E+00
          2   -1    0    0  502    0  0.00000000000E+00  0.00000000000E+00  0.21985574529E+03  0.21985574529E+03  0.00000000000E+00 0. -1.
          1   -1    0    0  501    0 -0.00000000000E+00 -0.00000000000E+00 -0.67174492544E+03  0.67174492544E+03  0.00000000000E+00 0. -1.
         25    2    1    2    0    0  0.82089097343E+02  0.34008122811E+02 -0.13820736244E+03  0.20645008177E+03  0.12500075564E+03 0.  0.
          2    1    1    2  501    0 -0.55062673057E+02 -0.30984721339E+02 -0.49640754590E+03  0.50041223261E+03  0.00000000000E+00 0. -1.
          1    1    1    2  502    0 -0.27026424286E+02 -0.30234014718E+01  0.18272572818E+03  0.18473835635E+03  0.00000000000E+00 0. -1.
         22    1    3    3    0    0  0.69087812238E+02  0.66943334176E+02 -0.43956047781E+02  0.10576705502E+03  0.00000000000E+00 0. -1.
         22    1    3    3    0    0  0.13001285105E+02 -0.32935211365E+02 -0.94251314654E+02  0.10068302675E+03  0.00000000000E+00 0. -1.
</event>
<event>
 7    1  0.6749462E-006  0.4599079E+02  0.7818608E-02  0.1490263E+00
          2   -1    0    0  502    0  0.00000000000E+00  0.00000000000E+00  0.95443523455E+03  0.95443523455E+03  0.00000000000E+00 0. -1.
          1   -1    0    0  501    0 -0.00000000000E+00 -0.00000000000E+00 -0.94634660816E+03  0.94634660816E+03  0.00000000000E+00 0. -1.
         25    2    1    2    0    0  0.13185300302E+02  0.90691720342E+00 -0.11519539704E+03  0.17049954587E+03  0.12500176399E+03 0.  0.
          2    1    1    2  501    0  0.12805213610E+02  0.37219974089E+02 -0.80244210155E+03  0.80340688714E+03  0.00000000000E+00 0. -1.
          1    1    1    2  502    0 -0.25990513912E+02 -0.38126891292E+02  0.92572612497E+03  0.92687540970E+03  0.00000000000E+00 0. -1.
         22    1    3    3    0    0 -0.27394386492E+02  0.48222620375E+02 -0.24937403413E+02  0.60809108002E+02  0.00000000000E+00 0. -1.
         22    1    3    3    0    0  0.40579686794E+02 -0.47315703171E+02 -0.90257993624E+02  0.10969043787E+03  0.00000000000E+00 0. -1.
</event>
<event>
 7    1  0.6273950E-006  0.3207071E+02  0.7818608E-02  0.1615769E+00
          2   -1    0    0  502    0  0.00000000000E+00  0.00000000000E+00  0.21391235081E+03  0.21391235081E+03  0.00000000000E+00 0. -1.
          1   -1    0    0  501    0 -0.00000000000E+00 -0.00000000000E+00 -0.58082364821E+03  0.58082364821E+03  0.00000000000E+00 0. -1.
         25    2    1    2    0    0  0.34452021904E+01 -0.33100929320E+02 -0.15689383740E+03  0.20333798398E+03  0.12499247407E+03 0.  0.
          2    1    1    2  501    0  0.21641599118E+02  0.13017195966E+02 -0.39895171780E+03  0.39975027122E+03  0.00000000000E+00 0. -1.
          1    1    1    2  502    0 -0.25086801308E+02  0.20083733354E+02  0.18893425780E+03  0.19164774383E+03  0.00000000000E+00 0. -1.
         22    1    3    3    0    0 -0.42776387263E+02 -0.61099877936E+02 -0.80254584781E+02  0.10956191295E+03  0.00000000000E+00 0.  1.
         22    1    3    3    0    0  0.46221589453E+02  0.27998948616E+02 -0.76639252617E+02  0.93776071026E+02  0.00000000000E+00 0.  1.
</event>
<event>
 7    1  0.6273950E-006  0.9695723E+02  0.7818608E-02  0.1385784E+00
          2   -1    0    0  502    0  0.00000000000E+00  0.00000000000E+00  0.22967996259E+04  0.22967996259E+04  0.00000000000E+00 0. -1.
          1   -1    0    0  501    0 -0.00000000000E+00 -0.00000000000E+00 -0.22907530564E+03  0.22907530564E+03  0.00000000000E+00 0. -1.
         25    2    1    2    0    0 -0.51806187940E+01  0.74734815291E+02  0.54123867644E+00  0.14573174709E+03  0.12500127096E+03 0.  0.
          2    1    1    2  501    0  0.41043539502E+02 -0.94384492211E+02 -0.13934619628E+03  0.17323500490E+03  0.00000000000E+00 0. -1.
          1    1    1    2  502    0 -0.35862920708E+02  0.19649676920E+02  0.22065292779E+04  0.22069081795E+04  0.00000000000E+00 0. -1.
         22    1    3    3    0    0  0.58464664728E+02  0.49228089009E+02  0.75823078251E+01  0.76805033436E+02  0.00000000000E+00 0. -1.
         22    1    3    3    0    0 -0.63645283522E+02  0.25506726282E+02 -0.70410691487E+01  0.68926713652E+02  0.00000000000E+00 0. -1.
</event>
<event>
 7    1  0.6273950E-006  0.7646125E+02  0.7818608E-02  0.1422024E+00
          2   -1    0    0  502    0  0.00000000000E+00  0.00000000000E+00  0.20816263122E+03  0.20816263122E+03  0.00000000000E+00 0. -1.
          1   -1    0    0  501    0 -0.00000000000E+00 -0.00000000000E+00 -0.23262416110E+04  0.23262416110E+04  0.00000000000E+00 0. -1.
         25    2    1    2    0    0  0.28104802574E+02  0.34371184883E+02 -0.34097638133E+03  0.36587757126E+03  0.12502098323E+03 0.  0.
          2    1    1    2  501    0 -0.66275148028E+02 -0.42284025316E+02 -0.19700817639E+04  0.19716496876E+04  0.00000000000E+00 0. -1.
          1    1    1    2  502    0  0.38170345454E+02  0.79128404326E+01  0.19297916542E+03  0.19687698342E+03  0.00000000000E+00 0. -1.
         22    1    3    3    0    0 -0.39792549705E+02 -0.17438994313E+02 -0.76785271992E+02  0.88224393053E+02  0.00000000000E+00 0.  1.
         22    1    3    3    0    0  0.67897352279E+02  0.51810179196E+02 -0.26419110934E+03  0.27765317821E+03  0.00000000000E+00 0.  1.
</event>
<event>
 7    1  0.6273950E-006  0.7007028E+02  0.7818608E-02  0.1507380E+00
          2   -1    0    0  502    0  0.00000000000E+00  0.00000000000E+00  0.97158337738E+03  0.97158337738E+03  0.00000000000E+00 0. -1.
          1   -1    0    0  501    0 -0.00000000000E+00 -0.00000000000E+00 -0.10085071387E+04  0.10085071387E+04  0.00000000000E+00 0. -1.
         25    2    1    2    0    0 -0.28427616649E+02  0.83761953576E+02  0.28209174291E+03  0.32097340163E+03  0.12499591544E+03 0.  0.
          2    1    1    2  501    0  0.33626563709E+02 -0.61394486022E+02 -0.98763039797E+03  0.99010798991E+03  0.00000000000E+00 0. -1.
          1    1    1    2  502    0 -0.51989470594E+01 -0.22367467554E+02  0.66861489371E+03  0.66900912457E+03  0.00000000000E+00 0. -1.
         22    1    3    3    0    0 -0.50789117631E+02  0.10382734643E+03  0.25712500588E+03  0.28190941983E+03  0.00000000000E+00 0. -1.
         22    1    3    3    0    0  0.22361500982E+02 -0.20065392850E+02  0.24966737031E+02  0.39063981804E+02  0.00000000000E+00 0. -1.
</event>
<event>
 7    1  0.6273950E-006  0.2802567E+02  0.7818608E-02  0.1636158E+00
          2   -1    0    0  502    0  0.00000000000E+00  0.00000000000E+00  0.56584921999E+03  0.56584921999E+03  0.00000000000E+00 0. -1.
          1   -1    0    0  501    0 -0.00000000000E+00 -0.00000000000E+00 -0.49147315525E+03  0.49147315525E+03  0.00000000000E+00 0. -1.
         25    2    1    2    0    0 -0.20588003185E+02 -0.36937635418E+02  0.23228386314E+03  0.26714552915E+03  0.12499074318E+03 0.  0.
          2    1    1    2  501    0  0.23905927179E+02  0.93410201844E+01 -0.47308283081E+03  0.47377854829E+03  0.00000000000E+00 0. -1.
          1    1    1    2  502    0 -0.33179239945E+01  0.27596615234E+02  0.31517503241E+03  0.31639829780E+03  0.00000000000E+00 0. -1.
         22    1    3    3    0    0  0.35140654547E+02  0.18642368078E+02  0.29208830749E+02  0.49351385829E+02  0.00000000000E+00 0.  1.
         22    1    3    3    0    0 -0.55728657731E+02 -0.55580003496E+02  0.20307503239E+03  0.21779414332E+03  0.00000000000E+00 0.  1.
</event>
<event>
 7    1  0.6273950E-006  0.5305651E+02  0.7818608E-02  0.1540980E+00
          2   -1    0    0  502    0  0.00000000000E+00  0.00000000000E+00  0.29804727620E+03  0.29804727620E+03  0.00000000000E+00 0. -1.
          1   -1    0    0  501    0 -0.00000000000E+00 -0.00000000000E+00 -0.11138411350E+03  0.11138411350E+03  0.00000000000E+00 0. -1.
         25    2    1    2    0    0  0.17637290649E+02 -0.62121590815E+02  0.23639059490E+03  0.27509173267E+03  0.12499912784E+03 0.  0.
          2    1    1    2  501    0 -0.18259756848E+02  0.15965352402E+02 -0.76996371262E+02  0.80726404509E+02  0.00000000000E+00 0. -1.
          1    1    1    2  502    0  0.62246619905E+00  0.46156238413E+02  0.27268939065E+02  0.53613252525E+02  0.00000000000E+00 0. -1.
         22    1    3    3    0    0  0.64912179515E+02 -0.22887375902E+02  0.17584781015E+03  0.18883822536E+03  0.00000000000E+00 0. -1.
         22    1    3    3    0    0 -0.47274888866E+02 -0.39234214913E+02  0.60542784753E+02  0.86253507307E+02  0.00000000000E+00 0. -1.
</event>
<event>
 7    1  0.6273950E-006  0.1146534E+03  0.7818608E-02  0.1445609E+00
          2   -1    0    0  502    0  0.00000000000E+00  0.00000000000E+00  0.90135618583E+03  0.90135618583E+03  0.00000000000E+00 0. -1.
          1   -1    0    0  501    0 -0.00000000000E+00 -0.00000000000E+00 -0.76380741517E+02  0.76380741517E+02  0.00000000000E+00 0. -1.
         25    2    1    2    0    0 -0.29321997438E+02 -0.10798168868E+03  0.10145470506E+03  0.19605489272E+03  0.12499855662E+03 0.  0.
          2    1    1    2  501    0  0.96730697608E+01  0.11733542147E+03  0.91039709354E+02  0.14882673849E+03  0.00000000000E+00 0. -1.
          1    1    1    2  502    0  0.19648927678E+02 -0.93537327900E+01  0.63248102989E+03  0.63285529614E+03  0.00000000000E+00 0. -1.
         22    1    3    3    0    0 -0.11177364092E+02 -0.11931576705E+03  0.11862643598E+03  0.16862211316E+03  0.00000000000E+00 0. -1.
         22    1    3    3    0    0 -0.18144633347E+02  0.11334078373E+02 -0.17171730913E+02  0.27432779560E+02  0.00000000000E+00 0. -1.
</event>
<event>
 7    1  0.6273950E-006  0.1272109E+03  0.7818608E-02  0.1341780E+00
          2   -1    0    0  502    0  0.00000000000E+00  0.00000000000E+00  0.24682652674E+03  0.24682652674E+03  0.00000000000E+00 0. -1.
          1   -1    0    0  501    0 -0.00000000000E+00 -0.00000000000E+00 -0.18903540024E+03  0.18903540024E+03  0.00000000000E+00 0. -1.
         25    2    1    2    0    0 -0.75478501495E+02  0.13308549811E+03  0.65088784993E+02  0.20801594900E+03  0.12500132444E+03 0.  0.
          2    1    1    2  501    0  0.38918093396E+02 -0.22637005551E+02 -0.79182333402E+02  0.91087287461E+02  0.00000000000E+00 0. -1.
          1    1    1    2  502    0  0.36560408099E+02 -0.11044849256E+03  0.71884674907E+02  0.13675869053E+03  0.00000000000E+00 0. -1.
         22    1    3    3    0    0 -0.88211330882E+02  0.14902874422E+03  0.44017833841E+02  0.17868512864E+03  0.00000000000E+00 0.  1.
         22    1    3    3    0    0  0.12732829387E+02 -0.15943246112E+02  0.21070951152E+02  0.29330820364E+02  0.00000000000E+00 0.  1.
</event>
<event>
 7    1  0.6273950E-006  0.6944136E+02  0.7818608E-02  0.1499946E+00
          2   -1    0    0  502    0  0.00000000000E+00  0.00000000000E+00  0.13115088543E+04  0.13115088543E+04  0.00000000000E+00 0. -1.
          1   -1    0    0  501    0 -0.00000000000E+00 -0.00000000000E+00 -0.15665152267E+03  0.15665152267E+03  0.00000000000E+00 0. -1.
         25    2    1    2    0    0 -0.39218625409E+02  0.25278888317E+02 -0.12022911966E+02  0.13396972066E+03  0.12500485137E+03 0.  0.
          2    1    1    2  501    0 -0.24026188778E+02  0.41373725745E+01 -0.80883987234E+02  0.84478369953E+02  0.00000000000E+00 0. -1.
          1    1    1    2  502    0  0.63244814187E+02 -0.29416260891E+02  0.12477642308E+04  0.12497122863E+04  0.00000000000E+00 0. -1.
         22    1    3    3    0    0 -0.79350530278E+02  0.14445720373E+01 -0.28715200443E+02  0.84398792528E+02  0.00000000000E+00 0.  1.
         22    1    3    3    0    0  0.40131904869E+02  0.23834316279E+02  0.16692288478E+02  0.49570928128E+02  0.00000000000E+00 0.  1.
</event>
<event>
 7    1  0.6273950E-006  0.6860584E+02  0.7818608E-02  0.1372753E+00
          2   -1    0    0  502    0  0.00000000000E+00  0.00000000000E+00  0.12679854376E+04  0.12679854376E+04  0.00000000000E+00 0. -1.
          1   -1    0    0  501    0 -0.00000000000E+00 -0.00000000000E+00 -0.12736957474E+04  0.12736957474E+04  0.00000000000E+00 0. -1.
         25    2    1    2    0    0 -0.29587217558E+01 -0.19642913476E+02  0.13407565829E+03  0.18437737146E+03  0.12499653946E+03 0.  0.
          2    1    1    2  501    0 -0.59480247933E+02  0.34917997626E+02 -0.12466591733E+04  0.12485656814E+04  0.00000000000E+00 0. -1.
          1    1    1    2  502    0  0.62438969689E+02 -0.15275084149E+02  0.11068732052E+04  0.11087381321E+04  0.00000000000E+00 0. -1.
         22    1    3    3    0    0 -0.63255678078E+01 -0.10763684357E+02  0.15807517282E+03  0.15856743036E+03  0.00000000000E+00 0. -1.
         22    1    3    3    0    0  0.33668460520E+01 -0.88792291196E+01 -0.23999514527E+02  0.25809941101E+02  0.00000000000E+00 0. -1.
</event>
<event>
 7    1  0.6273950E-006  0.7569848E+02  0.7818608E-02  0.1433496E+00
          2   -1    0    0  502    0  0.00000000000E+00  0.00000000000E+00  0.18099880383E+03  0.18099880383E+03  0.00000000000E+00 0. -1.
          1   -1    0    0  501    0 -0.00000000000E+00 -0.00000000000E+00 -0.10931484895E+04  0.10931484895E+04  0.00000000000E+00 0. -1.
         25    2    1    2    0    0  0.52292055508E+02  0.18392290287E+02 -0.51597634700E+03  0.53378687003E+03  0.12499638610E+03 0.  0.
          2    1    1    2  501    0 -0.83577551243E+02 -0.41002803056E+00 -0.56325718955E+03  0.56942430294E+03  0.00000000000E+00 0. -1.
          1    1    1    2  502    0  0.31285495736E+02 -0.17982262256E+02  0.16708385091E+03  0.17093612033E+03  0.00000000000E+00 0. -1.
         22    1    3    3    0    0 -0.35064420145E+02 -0.12595309248E+01 -0.63620957265E+02  0.72654842795E+02  0.00000000000E+00 0.  1.
         22    1    3    3    0    0  0.87356475653E+02  0.19651821212E+02 -0.45235538974E+03  0.46113202723E+03  0.00000000000E+00 0.  1.
</event>
<event>
 7    1  0.6273950E-006  0.5409146E+02  0.7818608E-02  0.1433115E+00
          2   -1    0    0  502    0  0.00000000000E+00  0.00000000000E+00  0.61155318661E+02  0.61155318661E+02  0.00000000000E+00 0. -1.
          1   -1    0    0  501    0 -0.00000000000E+00 -0.00000000000E+00 -0.16204599337E+04  0.16204599337E+04  0.00000000000E+00 0. -1.
         25    2    1    2    0    0  0.65196317402E+02  0.26498934364E+02 -0.91973046678E+02  0.17039809552E+03  0.12499486516E+03 0.  0.
          2    1    1    2  501    0 -0.49617469673E+02  0.21690304389E+02 -0.14588647490E+04  0.14598694183E+04  0.00000000000E+00 0. -1.
          1    1    1    2  502    0 -0.15578847729E+02 -0.48189238752E+02 -0.84668194085E+01  0.51347738597E+02  0.00000000000E+00 0. -1.
         22    1    3    3    0    0  0.93689018164E+02 -0.11971284316E+02 -0.70859342443E+02  0.11807620499E+03  0.00000000000E+00 0.  1.
         22    1    3    3    0    0 -0.28492700763E+02  0.38470218680E+02 -0.21113704236E+02  0.52321890529E+02  0.00000000000E+00 0.  1.
</event>
<event>
 7    1  0.6273950E-006  0.9302155E+02  0.7818608E-02  0.1454913E+00
          2   -1    0    0  502    0  0.00000000000E+00  0.00000000000E+00  0.51449679265E+02  0.51449679265E+02  0.00000000000E+00 0. -1.
          1   -1    0    0  501    0 -0.00000000000E+00 -0.00000000000E+00 -0.16871297649E+04  0.16871297649E+04  0.00000000000E+00 0. -1.
         25    2    1    2    0    0 -0.10046735141E+02 -0.88683777563E+02 -0.22748282375E+03  0.27448133087E+03  0.12500326639E+03 0.  0.
          2    1    1    2  501    0  0.24494102505E+02 -0.52284264377E+01 -0.13549440445E+04  0.13551755093E+04  0.00000000000E+00 0. -1.
          1    1    1    2  502    0 -0.14447367365E+02  0.93912204000E+02 -0.53253217416E+02  0.10892260394E+03  0.00000000000E+00 0. -1.
         22    1    3    3    0    0  0.56544765766E+02 -0.43252764397E+02 -0.85981420336E+02  0.11162847668E+03  0.00000000000E+00 0.  1.
         22    1    3    3    0    0 -0.66591500907E+02 -0.45431013166E+02 -0.14150140341E+03  0.16285285419E+03  0.00000000000E+00 0.  1.
</event>
<event>
 7    1  0.6273950E-006  0.7256470E+02  0.7818608E-02  0.1360875E+00
          2   -1    0    0  502    0  0.00000000000E+00  0.00000000000E+00  0.50915890452E+03  0.50915890452E+03  0.00000000000E+00 0. -1.
          1   -1    0    0  501    0 -0.00000000000E+00 -0.00000000000E+00 -0.96650569698E+02  0.96650569698E+02  0.00000000000E+00 0. -1.
         25    2    1    2    0    0 -0.56880414771E+02  0.90515725495E+01  0.90968584736E+01  0.13793094916E+03  0.12499952541E+03 0.  0.
          2    1    1    2  501    0  0.88525058331E+01 -0.66497630495E+02  0.10506301642E+02  0.67902018343E+02  0.00000000000E+00 0. -1.
          1    1    1    2  502    0  0.48027908938E+02  0.57446057945E+02  0.39290517470E+03  0.39997650671E+03  0.00000000000E+00 0. -1.
         22    1    3    3    0    0  0.17879035320E+01 -0.31613209940E+02 -0.40205280595E+02  0.51176715697E+02  0.00000000000E+00 0. -1.
         22    1    3    3    0    0 -0.58668318303E+02  0.40664782490E+02  0.49302139068E+02  0.86754233466E+02  0.00000000000E+00 0. -1.
</event>
<event>
 7    1  0.6273950E-006  0.8487795E+02  0.7818608E-02  0.1418175E+00
          2   -1    0    0  502    0  0.00000000000E+00  0.00000000000E+00  0.23526627251E+04  0.23526627251E+04  0.00000000000E+00 0. -1.
          1   -1    0    0  501    0 -0.00000000000E+00 -0.00000000000E+00 -0.14409450915E+04  0.14409450915E+04  0.00000000000E+00 0. -1.
         25    2    1    2    0    0 -0.79079310625E+02  0.87025637761E+02  0.15823426377E+03  0.23343171767E+03  0.12500114234E+03 0.  0.
          2    1    1    2  501    0  0.14340571924E+02 -0.33207238326E+02 -0.14022915373E+04  0.14027579720E+04  0.00000000000E+00 0. -1.
          1    1    1    2  502    0  0.64738738701E+02 -0.53818399435E+02  0.21557749071E+04  0.21574181269E+04  0.00000000000E+00 0. -1.
         22    1    3    3    0    0 -0.57687719611E+02 -0.19216333195E+02  0.76335386394E+02  0.97592170133E+02  0.00000000000E+00 0. -1.
         22    1    3    3    0    0 -0.21391591014E+02  0.10624197096E+03  0.81898877379E+02  0.13583954754E+03  0.00000000000E+00 0. -1.
</event>
<event>
 7    1  0.6273950E-006  0.6195333E+02  0.7818608E-02  0.1497482E+00
          2   -1    0    0  502    0  0.00000000000E+00  0.00000000000E+00  0.25496609221E+04  0.25496609221E+04  0.00000000000E+00 0. -1.
          1   -1    0    0  501    0 -0.00000000000E+00 -0.00000000000E+00 -0.42541027893E+03  0.42541027893E+03  0.00000000000E+00 0. -1.
         25    2    1    2    0    0  0.53684602004E+02  0.23774371770E+01  0.32668268704E+03  0.35388629119E+03  0.12500496142E+03 0.  0.
          2    1    1    2  501    0  0.33922836781E+01 -0.27586085391E+02 -0.41089837624E+03  0.41183731654E+03  0.00000000000E+00 0. -1.
          1    1    1    2  502    0 -0.57076885682E+02  0.25208648214E+02  0.22084663323E+04  0.22093475933E+04  0.00000000000E+00 0. -1.
         22    1    3    3    0    0 -0.95859170432E+01 -0.12301528480E+02 -0.46291211376E+01  0.16267949195E+02  0.00000000000E+00 0. -1.
         22    1    3    3    0    0  0.63270519047E+02  0.14678965657E+02  0.33131180818E+03  0.33761834200E+03  0.00000000000E+00 0. -1.
</event>
<event>
 7    1  0.6273950E-006  0.2363901E+03  0.7818608E-02  0.1200551E+00
          2   -1    0    0  502    0  0.00000000000E+00  0.00000000000E+00  0.10258915224E+04  0.10258915224E+04  0.00000000000E+00 0. -1.
          1   -1    0    0  501    0 -0.00000000000E+00 -0.00000000000E+00 -0.11288033961E+04  0.11288033961E+04  0.00000000000E+00 0. -1.
         25    2    1    2    0    0  0.16630313951E+03  0.22987517486E+02 -0.16865201771E+03  0.26879833751E+03  0.12499553191E+03 0.  0.
          2    1    1    2  501    0 -0.25779393065E+03 -0.48942445439E+02 -0.88875191910E+03  0.92667850269E+03  0.00000000000E+00 0. -1.
          1    1    1    2  502    0  0.91490791139E+02  0.25954927953E+02  0.95449206309E+03  0.95921807826E+03  0.00000000000E+00 0. -1.
         22    1    3    3    0    0  0.10204131063E+03 -0.47756507375E+02 -0.10469605015E+03  0.15379979190E+03  0.00000000000E+00 0. -1.
         22    1    3    3    0    0  0.64261828885E+02  0.70744024862E+02 -0.63955967559E+02  0.11499854561E+03  0.00000000000E+00 0. -1.
</event>
<event>
 7    1  0.6273950E-006  0.1072290E+03  0.7818608E-02  0.1327981E+00
          2   -1    0    0  502    0  0.00000000000E+00  0.00000000000E+00  0.10087127710E+04  0.10087127710E+04  0.00000000000E+00 0. -1.
          1   -1    0    0  501    0 -0.00000000000E+00 -0.00000000000E+00 -0.41361379702E+03  0.41361379702E+03  0.00000000000E+00 0. -1.
         25    2    1    2    0    0  0.10243128529E+03 -0.38171269455E+02  0.35461518620E+03  0.39156862702E+03  0.12499938147E+03 0.  0.
          2    1    1    2  501    0 -0.35096548570E+02 -0.48973900422E+02 -0.38802435187E+03  0.39267430306E+03  0.00000000000E+00 0. -1.
          1    1    1    2  502    0 -0.67334736724E+02  0.87145169877E+02  0.62850813967E+03  0.63808363796E+03  0.00000000000E+00 0. -1.
         22    1    3    3    0    0  0.98925058785E+02  0.24773222548E+02  0.23981692126E+03  0.26059937746E+03  0.00000000000E+00 0. -1.
         22    1    3    3    0    0  0.35062265081E+01 -0.62944492004E+02  0.11479826494E+03  0.13096924956E+03  0.00000000000E+00 0. -1.
</event>
<event>
 7    1  0.6273950E-006  0.7022895E+02  0.7818608E-02  0.1510893E+00
          2   -1    0    0  502    0  0.00000000000E+00  0.00000000000E+00  0.63911686582E+03  0.63911686582E+03  0.00000000000E+00 0. -1.
          1   -1    0    0  501    0 -0.00000000000E+00 -0.00000000000E+00 -0.11086421025E+03  0.11086421025E+03  0.00000000000E+00 0. -1.
         25    2    1    2    0    0  0.60113111585E+02  0.25915753390E+02  0.37685221429E+03  0.40240295627E+03  0.12500134136E+03 0.  0.
          2    1    1    2  501    0 -0.52559708243E+02 -0.46974064992E+02 -0.84826968835E+02  0.11029370043E+03  0.00000000000E+00 0. -1.
          1    1    1    2  502    0 -0.75534033415E+01  0.21058311602E+02  0.23622741011E+03  0.23728441937E+03  0.00000000000E+00 0. -1.
         22    1    3    3    0    0  0.86912518200E+02  0.46986358554E+02  0.32991872086E+03  0.34439492750E+03  0.00000000000E+00 0.  1.
         22    1    3    3    0    0 -0.26799406615E+02 -0.21070605164E+02  0.46933493429E+02  0.58008028775E+02  0.00000000000E+00 0.  1.
</event>
<event>
 7    1  0.6273950E-006  0.1434339E+03  0.7818608E-02  0.1335294E+00
          2   -1    0    0  502    0  0.00000000000E+00  0.00000000000E+00  0.18432850019E+04  0.18432850019E+04  0.00000000000E+00 0. -1.
          1   -1    0    0  501    0 -0.00000000000E+00 -0.00000000000E+00 -0.21789684580E+04  0.21789684580E+04  0.00000000000E+00 0. -1.
         25    2    1    2    0    0 -0.19427279451E+02 -0.16867640476E+03  0.24909441745E+03  0.32634560777E+03  0.12499711274E+03 0.  0.
          2    1    1    2  501    0  0.31873381032E+02  0.27723473879E+02 -0.21369157766E+04  0.21373332776E+04  0.00000000000E+00 0. -1.
          1    1    1    2  502    0 -0.12446101582E+02  0.14095293088E+03  0.15521379031E+04  0.15585745745E+04  0.00000000000E+00 0. -1.
         22    1    3    3    0    0 -0.20437636288E+02 -0.16262864564E+03  0.26370909202E+03  0.31049679318E+03  0.00000000000E+00 0.  1.
         22    1    3    3    0    0  0.10103568371E+01 -0.60477591194E+01 -0.14614674565E+02  0.15848814591E+02  0.00000000000E+00 0.  1.
</event>
<event>
 7    1  0.6273950E-006  0.2647312E+02  0.7818608E-02  0.1645308E+00
          2   -1    0    0  502    0  0.00000000000E+00  0.00000000000E+00  0.21073552452E+03  0.21073552452E+03  0.00000000000E+00 0. -1.
          1   -1    0    0  501    0 -0.00000000000E+00 -0.00000000000E+00 -0.95548894246E+03  0.95548894246E+03  0.00000000000E+00 0. -1.
         25    2    1    2    0    0  0.41478794785E+01  0.47758654692E+02 -0.18698014362E+03  0.22996606361E+03  0.12499888921E+03 0.  0.
          2    1    1    2  501    0 -0.12312749661E+02 -0.22658311536E+02 -0.74587155636E+03  0.74631721237E+03  0.00000000000E+00 0. -1.
          1    1    1    2  502    0  0.81648701822E+01 -0.25100343156E+02  0.18809828205E+03  0.18994119101E+03  0.00000000000E+00 0. -1.
         22    1    3    3    0    0  0.61282570907E+02  0.31592351604E+01 -0.88205085539E+02  0.10745078585E+03  0.00000000000E+00 0. -1.
         22    1    3    3    0    0 -0.57134691429E+02  0.44599419532E+02 -0.98775058084E+02  0.12251527777E+03  0.00000000000E+00 0. -1.
</event>
<event>
 7    1  0.6273950E-006  0.8545018E+02  0.7818608E-02  0.1352092E+00
          2   -1    0    0  502    0  0.00000000000E+00  0.00000000000E+00  0.12400583629E+03  0.12400583629E+03  0.00000000000E+00 0. -1.
          1   -1    0    0  501    0 -0.00000000000E+00 -0.00000000000E+00 -0.74758315494E+03  0.74758315494E+03  0.00000000000E+00 0. -1.
         25    2    1    2    0    0  0.58308067426E+02  0.61216755245E+02 -0.10353916003E+03  0.18300989960E+03  0.12499977536E+03 0.  0.
          2    1    1    2  501    0 -0.54901085142E+02  0.27393263333E+02 -0.57890217980E+03  0.58214453000E+03  0.00000000000E+00 0. -1.
          1    1    1    2  502    0 -0.34069822830E+01 -0.88610018578E+02  0.58864021183E+02  0.10643456163E+03  0.00000000000E+00 0. -1.
         22    1    3    3    0    0 -0.19417800803E+02  0.42913996198E+02  0.59697289478E+01  0.47479466314E+02  0.00000000000E+00 0.  1.
         22    1    3    3    0    0  0.77725868229E+02  0.18302759047E+02 -0.10950888898E+03  0.13553043328E+03  0.00000000000E+00 0.  1.
</event>
<event>
 7    1  0.6273950E-006  0.1774032E+03  0.7818608E-02  0.1172955E+00
          2   -1    0    0  502    0  0.00000000000E+00  0.00000000000E+00  0.10786026477E+04  0.10786026477E+04  0.00000000000E+00 0. -1.
          1   -1    0    0  501    0 -0.00000000000E+00 -0.00000000000E+00 -0.21112300318E+03  0.21112300318E+03  0.00000000000E+00 0. -1.
         25    2    1    2    0    0 -0.77820578886E+02  0.87256284975E+02  0.36894779367E+03  0.40671544742E+03  0.12500111582E+03 0.  0.
          2    1    1    2  501    0 -0.36884861092E+02  0.16819415111E+03 -0.11604599045E+03  0.20764497909E+03  0.00000000000E+00 0. -1.
          1    1    1    2  502    0  0.11470543998E+03 -0.25545043608E+03  0.61457784134E+03  0.67536522439E+03  0.00000000000E+00 0. -1.
         22    1    3    3    0    0 -0.32759412703E+02  0.34757658335E+02  0.21381474307E+02  0.52330119216E+02  0.00000000000E+00 0. -1.
         22    1    3    3    0    0 -0.45061166183E+02  0.52498626640E+02  0.34756631936E+03  0.35438532821E+03  0.00000000000E+00 0. -1.
</event>
<event>
 7    1  0.6273950E-006  0.1099441E+03  0.7818608E-02  0.1362665E+00
          2   -1    0    0  502    0  0.00000000000E+00  0.00000000000E+00  0.39465873320E+02  0.39465873320E+02  0.00000000000E+00 0. -1.
          1   -1    0    0  501    0 -0.00000000000E+00 -0.00000000000E+00 -0.98234907056E+03  0.98234907056E+03  0.00000000000E+00 0. -1.
         25    2    1    2    0    0  0.74665609748E+02 -0.20659914386E+02 -0.65270344426E+03  0.66906507238E+03  0.12499799834E+03 0.  0.
          2    1    1    2  501    0  0.41105122975E+02  0.14588694611E+02 -0.20317252257E+03  0.20780167245E+03  0.00000000000E+00 0. -1.
          1    1    1    2  502    0 -0.11577073272E+03  0.60712197747E+01 -0.87007230416E+02  0.14494819906E+03  0.00000000000E+00 0. -1.
         22    1    3    3    0    0  0.53559823539E+02 -0.12784548354E+02 -0.87314502284E+02  0.10322752387E+03  0.00000000000E+00 0.  1.
         22    1    3    3    0    0  0.21105786209E+02 -0.78753660314E+01 -0.56538894198E+03  0.56583754852E+03  0.00000000000E+00 0.  1.
</event>
<event>
 7    1  0.6273950E-006  0.1372305E+03  0.7818608E-02  0.1295152E+00
          2   -1    0    0  502    0  0.00000000000E+00  0.00000000000E+00  0.13625609209E+03  0.13625609209E+03  0.00000000000E+00 0. -1.
          1   -1    0    0  501    0 -0.00000000000E+00 -0.00000000000E+00 -0.15738098517E+04  0.15738098517E+04  0.00000000000E+00 0. -1.
         25    2    1    2    0    0 -0.19040644617E+03 -0.34915204002E+02 -0.65079191409E+03  0.69038260341E+03  0.12499734974E+03 0.  0.
          2    1    1    2  501    0  0.63008324747E+02 -0.67901369063E+01 -0.86309778455E+03  0.86542125040E+03  0.00000000000E+00 0. -1.
          1    1    1    2  502    0  0.12739812142E+03  0.41705340908E+02  0.76335939058E+02  0.15426208994E+03  0.00000000000E+00 0. -1.
         22    1    3    3    0    0 -0.16989262835E+03 -0.51153779141E+02 -0.63609012767E+03  0.66037176257E+03  0.00000000000E+00 0.  1.
         22    1    3    3    0    0 -0.20513817817E+02  0.16238575139E+02 -0.14701786419E+02  0.30010840839E+02  0.00000000000E+00 0.  1.
</event>
<event>
 7    1  0.6273950E-006  0.4772632E+02  0.7818608E-02  0.1514388E+00
          2   -1    0    0  502    0  0.00000000000E+00  0.00000000000E+00  0.27423099480E+04  0.27423099480E+04  0.00000000000E+00 0. -1.
          1   -1    0    0  501    0 -0.00000000000E+00 -0.00000000000E+00 -0.27780470543E+03  0.27780470543E+03  0.00000000000E+00 0. -1.
         25    2    1    2    0    0  0.11142185488E+02 -0.27656318403E+02  0.83509015903E+02  0.15325577037E+03  0.12499822066E+03 0.  0.
          2    1    1    2  501    0  0.31581464415E+02  0.60314967834E+01 -0.24164796895E+03  0.24377758048E+03  0.00000000000E+00 0. -1.
          1    1    1    2  502    0 -0.42723649903E+02  0.21624821619E+02  0.26226441956E+04  0.26230813026E+04  0.00000000000E+00 0. -1.
         22    1    3    3    0    0  0.11404583089E+02  0.35892047757E+02 -0.11120587689E+02  0.39267939571E+02  0.00000000000E+00 0.  1.
         22    1    3    3    0    0 -0.26239760052E+00 -0.63548366160E+02  0.94629603592E+02  0.11398783080E+03  0.00000000000E+00 0.  1.
</event>
<event>
 7    1  0.6273950E-006  0.6155230E+02  0.7818608E-02  0.1508879E+00
          2   -1    0    0  502    0  0.00000000000E+00  0.00000000000E+00  0.13273930211E+04  0.13273930211E+04  0.00000000000E+00 0. -1.
          1   -1    0    0  501    0 -0.00000000000E+00 -0.00000000000E+00 -0.30260692521E+03  0.30260692521E+03  0.00000000000E+00 0. -1.
         25    2    1    2    0    0 -0.79520804721E+02  0.35372884915E+02  0.63244115303E+02  0.16492422567E+03  0.12500153088E+03 0.  0.
          2    1    1    2  501    0  0.23404840855E+02 -0.11036674511E+02 -0.25032862919E+03  0.25166250685E+03  0.00000000000E+00 0. -1.
          1    1    1    2  502    0  0.56115963866E+02 -0.24336210404E+02  0.12118706097E+04  0.12134132138E+04  0.00000000000E+00 0. -1.
         22    1    3    3    0    0 -0.69446112831E+01 -0.40281502055E+02  0.40714816533E+02  0.57693355935E+02  0.00000000000E+00 0.  1.
         22    1    3    3    0    0 -0.72576193438E+02  0.75654386969E+02  0.22529298769E+02  0.10723086974E+03  0.00000000000E+00 0.  1.
</event>
<event>
 7    1  0.6273950E-006  0.8391809E+02  0.7818608E-02  0.1351833E+00
          2   -1    0    0  502    0  0.00000000000E+00  0.00000000000E+00  0.25806387371E+02  0.25806387371E+02  0.00000000000E+00 0. -1.
          1   -1    0    0  501    0 -0.00000000000E+00 -0.00000000000E+00 -0.17048273805E+04  0.17048273805E+04  0.00000000000E+00 0. -1.
         25    2    1    2    0    0 -0.40169664661E+02  0.11482920773E+03 -0.53279749053E+03  0.56062388812E+03  0.12500651626E+03 0.  0.
          2    1    1    2  501    0 -0.14556173928E+02 -0.60898061739E+02 -0.10221942050E+04  0.10241100765E+04  0.00000000000E+00 0. -1.
          1    1    1    2  502    0  0.54725838589E+02 -0.53931145989E+02 -0.12402929762E+03  0.14589980324E+03  0.00000000000E+00 0. -1.
         22    1    3    3    0    0  0.13500758253E+02  0.81965650436E+02 -0.44449213859E+03  0.45218790297E+03  0.00000000000E+00 0.  1.
         22    1    3    3    0    0 -0.53670422914E+02  0.32863557292E+02 -0.88305351937E+02  0.10843598514E+03  0.00000000000E+00 0.  1.
</event>
<event>
 7    1  0.6273950E-006  0.6639616E+02  0.7818608E-02  0.1460383E+00
          2   -1    0    0  502    0  0.00000000000E+00  0.00000000000E+00  0.25688837772E+03  0.25688837772E+03  0.00000000000E+00 0. -1.
          1   -1    0    0  501    0 -0.00000000000E+00 -0.00000000000E+00 -0.20128463735E+03  0.20128463735E+03  0.00000000000E+00 0. -1.
         25    2    1    2    0    0  0.48163051876E+02  0.47156883176E+02  0.21943370177E+01  0.14203117869E+03  0.12499835763E+03 0.  0.
          2    1    1    2  501    0 -0.64784197161E+02 -0.17819948085E+02 -0.12105357607E+03  0.13845039195E+03  0.00000000000E+00 0. -1.
          1    1    1    2  502    0  0.16621145285E+02 -0.29336935091E+02  0.17446297943E+03  0.17769144442E+03  0.00000000000E+00 0. -1.
         22    1    3    3    0    0  0.43060671743E+02  0.17249875305E+02  0.60540276768E+02  0.76268635494E+02  0.00000000000E+00 0. -1.
         22    1    3    3    0    0  0.51023801330E+01  0.29907007871E+02 -0.58345939750E+02  0.65762543200E+02  0.00000000000E+00 0. -1.
</event>
<event>
 7    1  0.6273950E-006  0.9203474E+02  0.7818608E-02  0.1367239E+00
          2   -1    0    0  502    0  0.00000000000E+00  0.00000000000E+00  0.14966796048E+04  0.14966796048E+04  0.00000000000E+00 0. -1.
          1   -1    0    0  501    0 -0.00000000000E+00 -0.00000000000E+00 -0.47733074635E+03  0.47733074635E+03  0.00000000000E+00 0. -1.
         25    2    1    2    0    0  0.29988410780E+02  0.10412740557E+03 -0.13561056446E+02  0.16598334238E+03  0.12499898529E+03 0.  0.
          2    1    1    2  501    0 -0.48166718674E+02 -0.13979125162E+02 -0.38443950394E+03  0.38769728000E+03  0.00000000000E+00 0. -1.
          1    1    1    2  502    0  0.18178307894E+02 -0.90148280409E+02  0.14173494188E+04  0.14203297287E+04  0.00000000000E+00 0. -1.
         22    1    3    3    0    0 -0.37324259372E+02  0.52516697827E+02  0.29495446864E+02  0.70859616666E+02  0.00000000000E+00 0. -1.
         22    1    3    3    0    0  0.67312670151E+02  0.51610707745E+02 -0.43056503311E+02  0.95123725716E+02  0.00000000000E+00 0. -1.
</event>
<event>
 7    1  0.6273950E-006  0.1506700E+03  0.7818608E-02  0.1334533E+00
          2   -1    0    0  502    0  0.00000000000E+00  0.00000000000E+00  0.63412721855E+03  0.63412721855E+03  0.00000000000E+00 0. -1.
          1   -1    0    0  501    0 -0.00000000000E+00 -0.00000000000E+00 -0.13638811852E+04  0.13638811852E+04  0.00000000000E+00 0. -1.
         25    2    1    2    0    0 -0.14031251278E+03  0.11116809295E+03 -0.42388316156E+03  0.47680959125E+03  0.12499802204E+03 0.  0.
          2    1    1    2  501    0  0.10041277504E+03 -0.10432333479E+03 -0.90711223533E+03  0.91859604346E+03  0.00000000000E+00 0. -1.
          1    1    1    2  502    0  0.39899737744E+02 -0.68447581664E+01  0.60124143026E+03  0.60260276903E+03  0.00000000000E+00 0. -1.
         22    1    3    3    0    0 -0.31976772877E+02  0.92726422788E+02 -0.27346935643E+03  0.29052743828E+03  0.00000000000E+00 0. -1.
         22    1    3    3    0    0 -0.10833573991E+03  0.18441670163E+02 -0.15041380513E+03  0.18628215297E+03  0.00000000000E+00 0. -1.
</event>
<event>
 7    1  0.6273950E-006  0.2439185E+02  0.7818608E-02  0.1669988E+00
          2   -1    0    0  502    0  0.00000000000E+00  0.00000000000E+00  0.20016308951E+03  0.20016308951E+03  0.00000000000E+00 0. -1.
          1   -1    0    0  501    0 -0.00000000000E+00 -0.00000000000E+00 -0.42575367015E+03  0.42575367015E+03  0.00000000000E+00 0. -1.
         25    2    1    2    0    0 -0.18622800554E+02  0.14938392255E+02 -0.15529563597E+03  0.20077812442E+03  0.12500062572E+03 0.  0.
          2    1    1    2  501    0 -0.40733556127E+01 -0.24036431152E+02 -0.24626957880E+03  0.24747332723E+03  0.00000000000E+00 0. -1.
          1    1    1    2  502    0  0.22696156166E+02  0.90980388971E+01  0.17597463412E+03  0.17766530801E+03  0.00000000000E+00 0. -1.
         22    1    3    3    0    0  0.35923978569E+02  0.12659140957E+02 -0.21019998616E+01  0.38147142612E+02  0.00000000000E+00 0.  1.
         22    1    3    3    0    0 -0.54546779123E+02  0.22792512983E+01 -0.15319363611E+03  0.16263098181E+03  0.00000000000E+00 0.  1.
</event>
<event>
 7    1  0.6273950E-006  0.6650084E+02  0.7818608E-02  0.1415682E+00
          2   -1    0    0  502    0  0.00000000000E+00  0.00000000000E+00  0.17916912448E+04  0.17916912448E+04  0.00000000000E+00 0. -1.
          1   -1    0    0  501    0 -0.00000000000E+00 -0.00000000000E+00 -0.80931042550E+02  0.80931042550E+02  0.00000000000E+00 0. -1.
         25    2    1    2    0    0  0.16617106414E+02  0.23875984093E+02  0.90294746059E+02  0.15692829972E+03  0.12500863669E+03 0.  0.
          2    1    1    2  501    0 -0.34646542266E+02 -0.67350297784E+02 -0.16941353073E+02  0.77610920279E+02  0.00000000000E+00 0. -1.
          1    1    1    2  502    0  0.18029435852E+02  0.43474313690E+02  0.16374068093E+04  0.16380830674E+04  0.00000000000E+00 0. -1.
         22    1    3    3    0    0 -0.64072897197E+01 -0.47802701082E+02  0.56837500630E+02  0.74542961238E+02  0.00000000000E+00 0.  1.
         22    1    3    3    0    0  0.23024396133E+02  0.71678685175E+02  0.33457245430E+02  0.82385338486E+02  0.00000000000E+00 0.  1.
</event>
<event>
 7    1  0.6273950E-006  0.1052617E+03  0.7818608E-02  0.1315725E+00
          2   -1    0    0  502    0  0.00000000000E+00  0.00000000000E+00  0.11742180401E+04  0.11742180401E+04  0.00000000000E+00 0. -1.
          1   -1    0    0  501    0 -0.00000000000E+00 -0.00000000000E+00 -0.31570996226E+04  0.31570996226E+04  0.00000000000E+00 0. -1.
         25    2    1    2    0    0  0.31305459879E+02 -0.10017150898E+03 -0.11247795789E+04  0.11365598337E+04  0.12499916580E+03 0.  0.
          2    1    1    2  501    0  0.37082384118E+02  0.10327517721E+03 -0.20239395965E+04  0.20269120246E+04  0.00000000000E+00 0. -1.
          1    1    1    2  502    0 -0.68387843997E+02 -0.31036682247E+01  0.11658375929E+04  0.11678458044E+04  0.00000000000E+00 0. -1.
         22    1    3    3    0    0  0.33554612683E+02  0.21658654657E+02 -0.34745334124E+03  0.34974109523E+03  0.00000000000E+00 0.  1.
         22    1    3    3    0    0 -0.22491528045E+01 -0.12183016364E+03 -0.77732623766E+03  0.78681873847E+03  0.00000000000E+00 0.  1.
</event>
<event>
 7    1  0.6273950E-006  0.5964630E+02  0.7818608E-02  0.1504745E+00
          2   -1    0    0  502    0  0.00000000000E+00  0.00000000000E+00  0.77143032364E+03  0.77143032364E+03  0.00000000000E+00 0. -1.
          1   -1    0    0  501    0 -0.00000000000E+00 -0.00000000000E+00 -0.16387995674E+04  0.16387995674E+04  0.00000000000E+00 0. -1.
         25    2    1    2    0    0  0.23201791822E+02 -0.33463998696E+02 -0.93463266092E+01  0.13179957274E+03  0.12500244478E+03 0.  0.
          2    1    1    2  501    0 -0.10751066969E+02 -0.25273996647E+02 -0.15668369855E+04  0.15670776941E+04  0.00000000000E+00 0. -1.
          1    1    1    2  502    0 -0.12450724853E+02  0.58737995343E+02  0.70881406826E+03  0.71135262424E+03  0.00000000000E+00 0. -1.
         22    1    3    3    0    0 -0.25932655978E+01  0.45738321284E+02 -0.15276523661E+02  0.48291730508E+02  0.00000000000E+00 0.  1.
         22    1    3    3    0    0  0.25795057419E+02 -0.79202319979E+02  0.59301970517E+01  0.83507842233E+02  0.00000000000E+00 0.  1.
</event>
<event>
 7    1  0.6273950E-006  0.1071162E+03  0.7818608E-02  0.1294975E+00
          2   -1    0    0  502    0  0.00000000000E+00  0.00000000000E+00  0.17912068285E+04  0.17912068285E+04  0.00000000000E+00 0. -1.
          1   -1    0    0  501    0 -0.00000000000E+00 -0.00000000000E+00 -0.42527390436E+03  0.42527390436E+03  0.00000000000E+00 0. -1.
         25    2    1    2    0    0 -0.10249442255E+03  0.67628197889E+02  0.54627738832E+02  0.18354466124E+03  0.12500309202E+03 0.  0.
          2    1    1    2  501    0  0.29648990641E+02 -0.10378202108E+03 -0.35172771158E+03  0.36791596002E+03  0.00000000000E+00 0. -1.
          1    1    1    2  502    0  0.72845431908E+02  0.36153823190E+02  0.16630328969E+04  0.16650201116E+04  0.00000000000E+00 0. -1.
         22    1    3    3    0    0 -0.88066842155E+02  0.34519827515E+02  0.91732246554E+02  0.13176567169E+03  0.00000000000E+00 0. -1.
         22    1    3    3    0    0 -0.14427580394E+02  0.33108370374E+02 -0.37104507722E+02  0.51778989543E+02  0.00000000000E+00 0. -1.
</event>
<event>
 7    1  0.6273950E-006  0.2137577E+03  0.7818608E-02  0.1266998E+00
          2   -1    0    0  502    0  0.00000000000E+00  0.00000000000E+00  0.11073341367E+04  0.11073341367E+04  0.00000000000E+00 0. -1.
          1   -1    0    0  501    0 -0.00000000000E+00 -0.00000000000E+00 -0.16709172232E+04  0.16709172232E+04  0.00000000000E+00 0. -1.
         25    2    1    2    0    0  0.14128010454E+03 -0.79134037096E+02 -0.50318940896E+03  0.54318259767E+03  0.12500195740E+03 0.  0.
          2    1    1    2  501    0  0.49139073778E+02 -0.20285008373E+02 -0.11364945052E+04  0.11377371799E+04  0.00000000000E+00 0. -1.
          1    1    1    2  502    0 -0.19041917831E+03  0.99419045469E+02  0.10761008277E+04  0.10973315823E+04  0.00000000000E+00 0. -1.
         22    1    3    3    0    0  0.48818058024E+02 -0.56084765712E+02 -0.79270147138E+02  0.10868514140E+03  0.00000000000E+00 0.  1.
         22    1    3    3    0    0  0.92462046511E+02 -0.23049271384E+02 -0.42391926183E+03  0.43449745627E+03  0.00000000000E+00 0.  1.
</event>
<event>
 7    1  0.6273950E-006  0.6653347E+02  0.7818608E-02  0.1382848E+00
          2   -1    0    0  502    0  0.00000000000E+00  0.00000000000E+00  0.27712674618E+02  0.27712674618E+02  0.00000000000E+00 0. -1.
          1   -1    0    0  501    0 -0.00000000000E+00 -0.00000000000E+00 -0.22359934183E+04  0.22359934183E+04  0.00000000000E+00 0. -1.
         25    2    1    2    0    0  0.49940518703E+02  0.31865043694E+02 -0.11995419676E+04  0.12074918048E+04  0.12500436090E+03 0.  0.
          2    1    1    2  501    0  0.11970350794E+02 -0.59841814639E+02 -0.98089455416E+03  0.98279115709E+03  0.00000000000E+00 0. -1.
          1    1    1    2  502    0 -0.61910869497E+02  0.27976770945E+02 -0.27844221937E+02  0.73423131026E+02  0.00000000000E+00 0. -1.
         22    1    3    3    0    0 -0.36951665545E+02 -0.14377782629E+02 -0.31253137194E+03  0.31503651323E+03  0.00000000000E+00 0. -1.
         22    1    3    3    0    0  0.86892184248E+02  0.46242826323E+02 -0.88701059566E+03  0.89245529159E+03  0.00000000000E+00 0. -1.
</event>
<event>
 7    1  0.6273950E-006  0.6306617E+02  0.7818608E-02  0.1473086E+00
          2   -1    0    0  502    0  0.00000000000E+00  0.00000000000E+00  0.85551370907E+03  0.85551370907E+03  0.00000000000E+00 0. -1.
          1   -1    0    0  501    0 -0.00000000000E+00 -0.00000000000E+00 -0.19907537405E+04  0.19907537405E+04  0.00000000000E+00 0. -1.
         25    2    1    2    0    0  0.35414886267E+02  0.24670834013E+02  0.50195548690E+03  0.51908284711E+03  0.12499930846E+03 0.  0.
          2    1    1    2  501    0  0.32391912387E+02  0.61546565155E+00 -0.19782608633E+04  0.19785261328E+04  0.00000000000E+00 0. -1.
          1    1    1    2  502    0 -0.67806798654E+02 -0.25286299664E+02  0.34106534501E+03  0.34865846965E+03  0.00000000000E+00 0. -1.
         22    1    3    3    0    0  0.68484024580E+02  0.18323540248E+02  0.45929597951E+03  0.46473498959E+03  0.00000000000E+00 0. -1.
         22    1    3    3    0    0 -0.33069138313E+02  0.63472937643E+01  0.42659507393E+02  0.54347857529E+02  0.00000000000E+00 0. -1.
</event>
<event>
 7    1  0.6273950E-006  0.7770995E+02  0.7818608E-02  0.1468201E+00
          2   -1    0    0  502    0  0.00000000000E+00  0.00000000000E+00  0.42954539066E+03  0.42954539066E+03  0.00000000000E+00 0. -1.
          1   -1    0    0  501    0 -0.00000000000E+00 -0.00000000000E+00 -0.46007012527E+03  0.46007012527E+03  0.00000000000E+00 0. -1.
         25    2    1    2    0    0 -0.77734991791E+02 -0.39929529830E+01  0.83625653433E+02  0.16933735956E+03  0.12499287504E+03 0.  0.
          2    1    1    2  501    0  0.71605775472E+02  0.30522064139E+02 -0.41295927794E+03  0.42023130383E+03  0.00000000000E+00 0. -1.
          1    1    1    2  502    0  0.61292163194E+01 -0.26529111156E+02  0.29880888990E+03  0.30004685253E+03  0.00000000000E+00 0. -1.
         22    1    3    3    0    0 -0.55215064832E+02  0.44355091863E+02  0.80508666176E+00  0.70828848099E+02  0.00000000000E+00 0. -1.
         22    1    3    3    0    0 -0.22519926960E+02 -0.48348044846E+02  0.82820566771E+02  0.98508511465E+02  0.00000000000E+00 0. -1.
</event>
<event>
 7    1  0.6273950E-006  0.1339693E+03  0.7818608E-02  0.1409587E+00
          2   -1    0    0  502    0  0.00000000000E+00  0.00000000000E+00  0.70109928192E+03  0.70109928192E+03  0.00000000000E+00 0. -1.
          1   -1    0    0  501    0 -0.00000000000E+00 -0.00000000000E+00 -0.17785052508E+03  0.17785052508E+03  0.00000000000E+00 0. -1.
         25    2    1    2    0    0 -0.60534015577E+02 -0.11015926795E+03  0.31465282575E+03  0.36115114246E+03  0.12499726233E+03 0.  0.
          2    1    1    2  501    0  0.43404067746E+02  0.12766954164E+03 -0.12466236665E+03  0.18364130967E+03  0.00000000000E+00 0. -1.
          1    1    1    2  502    0  0.17129947830E+02 -0.17510273682E+02  0.33325829774E+03  0.33415735486E+03  0.00000000000E+00 0. -1.
         22    1    3    3    0    0 -0.65404397888E+02 -0.91505988597E+01  0.18685612395E+03  0.19818344981E+03  0.00000000000E+00 0.  1.
         22    1    3    3    0    0  0.48703823113E+01 -0.10100866909E+03  0.12779670180E+03  0.16296769265E+03  0.00000000000E+00 0.  1.
</event>
<event>
 7    1  0.6273950E-006  0.7797655E+02  0.7818608E-02  0.1400734E+00
          2   -1    0    0  502    0  0.00000000000E+00  0.00000000000E+00  0.34059629602E+04  0.34059629602E+04  0.00000000000E+00 0. -1.
          1   -1    0    0  501    0 -0.00000000000E+00 -0.00000000000E+00 -0.22905818119E+02  0.22905818119E+02  0.00000000000E+00 0. -1.
         25    2    1    2    0    0 -0.18423710059E+02 -0.47486202569E+02  0.11983977479E+04  0.12059749326E+04  0.12499601341E+03 0.  0.
          2    1    1    2  501    0  0.63504988639E+02  0.49305230141E+02  0.66728535676E+02  0.10448247114E+03  0.00000000000E+00 0. -1.
          1    1    1    2  502    0 -0.45081278580E+02 -0.18190275720E+01  0.21179308586E+04  0.21184113747E+04  0.00000000000E+00 0. -1.
         22    1    3    3    0    0  0.20301541637E+02  0.20656727343E+02  0.76493343777E+03  0.76548155902E+03  0.00000000000E+00 0. -1.
         22    1    3    3    0    0 -0.38725251696E+02 -0.68142929913E+02  0.43346431009E+03  0.44049337355E+03  0.00000000000E+00 0. -1.
</event>
<event>
 7    1  0.6273950E-006  0.1971585E+03  0.7818608E-02  0.1203484E+00
          2   -1    0    0  502    0  0.00000000000E+00  0.00000000000E+00  0.94685631924E+03  0.94685631924E+03  0.00000000000E+00 0. -1.
          1   -1    0    0  501    0 -0.00000000000E+00 -0.00000000000E+00 -0.55243869267E+03  0.55243869267E+03  0.00000000000E+00 0. -1.
         25    2    1    2    0    0  0.25936556862E+03 -0.28676130628E+02 -0.85965482166E+02  0.30184148328E+03  0.12500159300E+03 0.  0.
          2    1    1    2  501    0 -0.17958656213E+03 -0.47726445643E+02 -0.33045968813E+03  0.37912102605E+03  0.00000000000E+00 0. -1.
          1    1    1    2  502    0 -0.79779006488E+02  0.76402576272E+02  0.81084279688E+03  0.81833250258E+03  0.00000000000E+00 0. -1.
         22    1    3    3    0    0  0.10262374283E+03 -0.73559997283E+02 -0.35192277348E+02  0.13107708487E+03  0.00000000000E+00 0.  1.
         22    1    3    3    0    0  0.15674182579E+03  0.44883866654E+02 -0.50773204818E+02  0.17076439841E+03  0.00000000000E+00 0.  1.
</event>
<event>
 7    1  0.6273950E-006  0.1074676E+03  0.7818608E-02  0.1279358E+00
          2   -1    0    0  502    0  0.00000000000E+00  0.00000000000E+00  0.46781022708E+03  0.46781022708E+03  0.00000000000E+00 0. -1.
          1   -1    0    0  501    0 -0.00000000000E+00 -0.00000000000E+00 -0.65748141494E+03  0.65748141494E+03  0.00000000000E+00 0. -1.
         25    2    1    2    0    0  0.29774160251E+02 -0.19747030321E+03 -0.34887967303E+03  0.42098056047E+03  0.12500633892E+03 0.  0.
          2    1    1    2  501    0 -0.11465282989E+02  0.93182569153E+02 -0.25764638555E+03  0.27421908011E+03  0.00000000000E+00 0. -1.
          1    1    1    2  502    0 -0.18308877262E+02  0.10428773406E+03  0.41685487072E+03  0.43009200145E+03  0.00000000000E+00 0. -1.
         22    1    3    3    0    0  0.31025475551E+02 -0.54852017972E+01 -0.12961453062E+02  0.34068560835E+02  0.00000000000E+00 0.  1.
         22    1    3    3    0    0 -0.12513153001E+01 -0.19198510141E+03 -0.33591821996E+03  0.38691199963E+03  0.00000000000E+00 0.  1.
</event>
<event>
 7    1  0.6273950E-006  0.4078239E+02  0.7818608E-02  0.1609602E+00
          2   -1    0    0  502    0  0.00000000000E+00  0.00000000000E+00  0.10095628946E+04  0.10095628946E+04  0.00000000000E+00 0. -1.
          1   -1    0    0  501    0 -0.00000000000E+00 -0.00000000000E+00 -0.25306792908E+03  0.25306792908E+03  0.00000000000E+00 0. -1.
         25    2    1    2    0    0  0.18767706391E+02  0.57953789479E+02  0.35214471514E+02  0.14345523852E+03  0.12501391098E+03 0.  0.
          2    1    1    2  501    0 -0.12140482806E+02 -0.38450580266E+02 -0.19678778369E+03  0.20087625608E+03  0.00000000000E+00 0. -1.
          1    1    1    2  502    0 -0.66272235841E+01 -0.19503209213E+02  0.91806827771E+03  0.91829932908E+03  0.00000000000E+00 0. -1.
         22    1    3    3    0    0 -0.19886913325E+02  0.84271173738E+02  0.41944267541E+02  0.96210402890E+02  0.00000000000E+00 0. -1.
         22    1    3    3    0    0  0.38654619715E+02 -0.26317384259E+02 -0.67297960273E+01  0.47244835635E+02  0.00000000000E+00 0. -1.
</event>
<event>
 7    1  0.6273950E-006  0.1156534E+03  0.7818608E-02  0.1313521E+00
          2   -1    0    0  502    0  0.00000000000E+00  0.00000000000E+00  0.12085984701E+03  0.12085984701E+03  0.00000000000E+00 0. -1.
          1   -1    0    0  501    0 -0.00000000000E+00 -0.00000000000E+00 -0.91061808856E+03  0.91061808856E+03  0.00000000000E+00 0. -1.
         25    2    1    2    0    0  0.35450148636E+02 -0.15369539227E+03 -0.35625477967E+03  0.40917238032E+03  0.12500232849E+03 0.  0.
          2    1    1    2  501    0 -0.54532532740E+02  0.93071510439E+02 -0.51089651547E+03  0.52216027492E+03  0.00000000000E+00 0. -1.
          1    1    1    2  502    0  0.19082384104E+02  0.60623881833E+02  0.77393053589E+02  0.10014528035E+03  0.00000000000E+00 0. -1.
         22    1    3    3    0    0  0.68515017052E+02 -0.11153212782E+03 -0.31635788796E+03  0.34236827595E+03  0.00000000000E+00 0. -1.
         22    1    3    3    0    0 -0.33064868417E+02 -0.42163264448E+02 -0.39896891713E+02  0.66804104370E+02  0.00000000000E+00 0. -1.
</event>
<event>
 7    1  0.6273950E-006  0.9367775E+02  0.7818608E-02  0.1368464E+00
          2   -1    0    0  502    0  0.00000000000E+00  0.00000000000E+00  0.72396561921E+03  0.72396561921E+03  0.00000000000E+00 0. -1.
          1   -1    0    0  501    0 -0.00000000000E+00 -0.00000000000E+00 -0.53104975182E+03  0.53104975182E+03  0.00000000000E+00 0. -1.
         25    2    1    2    0    0  0.57469008529E+02  0.14792084323E+02 -0.29937399151E+03  0.32980479177E+03  0.12499968472E+03 0.  0.
          2    1    1    2  501    0  0.34537710070E+02 -0.34441644170E+02 -0.21053778205E+03  0.21611394666E+03  0.00000000000E+00 0. -1.
          1    1    1    2  502    0 -0.92006718599E+02  0.19649559847E+02  0.70282764096E+03  0.70909663260E+03  0.00000000000E+00 0. -1.
         22    1    3    3    0    0  0.26133670191E+02 -0.55535749579E+02 -0.13249146843E+03  0.14601772976E+03  0.00000000000E+00 0.  1.
         22    1    3    3    0    0  0.31335338338E+02  0.70327833901E+02 -0.16688252308E+03  0.18378706201E+03  0.00000000000E+00 0.  1.
</event>
<event>
 7    1  0.6273950E-006  0.1379716E+03  0.7818608E-02  0.1318401E+00
          2   -1    0    0  502    0  0.00000000000E+00  0.00000000000E+00  0.72620709281E+03  0.72620709281E+03  0.00000000000E+00 0. -1.
          1   -1    0    0  501    0 -0.00000000000E+00 -0.00000000000E+00 -0.23087505990E+04  0.23087505990E+04  0.00000000000E+00 0. -1.
         25    2    1    2    0    0 -0.11077867381E+03 -0.15164407972E+03 -0.27273004940E+02  0.22723719961E+03  0.12500034640E+03 0.  0.
          2    1    1    2  501    0  0.82863776694E+02  0.10897522826E+03 -0.21783051432E+04  0.21826028734E+04  0.00000000000E+00 0. -1.
          1    1    1    2  502    0  0.27914897117E+02  0.42668851456E+02  0.62303464194E+03  0.62511761887E+03  0.00000000000E+00 0. -1.
         22    1    3    3    0    0  0.25813131870E+02 -0.16731480936E+02 -0.16599847816E+02  0.34954472943E+02  0.00000000000E+00 0. -1.
         22    1    3    3    0    0 -0.13659180568E+03 -0.13491259878E+03 -0.10673157124E+02  0.19228272666E+03  0.00000000000E+00 0. -1.
</event>
<event>
 7    1  0.6273950E-006  0.2541603E+03  0.7818608E-02  0.1189305E+00
          2   -1    0    0  502    0  0.00000000000E+00  0.00000000000E+00  0.70463506390E+03  0.70463506390E+03  0.00000000000E+00 0. -1.
          1   -1    0    0  501    0 -0.00000000000E+00 -0.00000000000E+00 -0.64000166783E+03  0.64000166783E+03  0.00000000000E+00 0. -1.
         25    2    1    2    0    0  0.41596678306E+02  0.20938198682E+03  0.27217701876E+03  0.36778371345E+03  0.12495371258E+03 0.  0.
          2    1    1    2  501    0 -0.14134361033E+03 -0.21713581117E+03 -0.55649061900E+03  0.61384671190E+03  0.00000000000E+00 0. -1.
          1    1    1    2  502    0  0.99746932023E+02  0.77538243440E+01  0.34894699631E+03  0.36300630638E+03  0.00000000000E+00 0. -1.
         22    1    3    3    0    0 -0.68635147221E+01  0.14320432536E+03  0.24022866414E+03  0.27975774826E+03  0.00000000000E+00 0.  1.
         22    1    3    3    0    0  0.48460193029E+02  0.66177661465E+02  0.31948354619E+02  0.88025965193E+02  0.00000000000E+00 0.  1.
</event>
<event>
 7    1  0.6273950E-006  0.5646566E+02  0.7818608E-02  0.1465286E+00
          2   -1    0    0  502    0  0.00000000000E+00  0.00000000000E+00  0.33050741572E+02  0.33050741572E+02  0.00000000000E+00 0. -1.
          1   -1    0    0  501    0 -0.00000000000E+00 -0.00000000000E+00 -0.10457141628E+04  0.10457141628E+04  0.00000000000E+00 0. -1.
         25    2    1    2    0    0  0.31876628526E+02 -0.26094575264E+02 -0.40880790589E+03  0.42947008964E+03  0.12499443058E+03 0.  0.
          2    1    1    2  501    0 -0.21404827489E+02 -0.31719812986E+02 -0.58689437781E+03  0.58814056473E+03  0.00000000000E+00 0. -1.
          1    1    1    2  502    0 -0.10471801037E+02  0.57814388250E+02 -0.16961137516E+02  0.61154249988E+02  0.00000000000E+00 0. -1.
         22    1    3    3    0    0 -0.38852861799E+02 -0.29961691124E+02 -0.26092233035E+03  0.26549521705E+03  0.00000000000E+00 0.  1.
         22    1    3    3    0    0  0.70729490326E+02  0.38671158599E+01 -0.14788557555E+03  0.16397487259E+03  0.00000000000E+00 0.  1.
</event>
<event>
 7    1  0.6273950E-006  0.1093738E+03  0.7818608E-02  0.1304717E+00
          2   -1    0    0  502    0  0.00000000000E+00  0.00000000000E+00  0.88248808127E+03  0.88248808127E+03  0.00000000000E+00 0. -1.
          1   -1    0    0  501    0 -0.00000000000E+00 -0.00000000000E+00 -0.39461018741E+03  0.39461018741E+03  0.00000000000E+00 0. -1.
         25    2    1    2    0    0 -0.16692265676E+03 -0.45329205570E+02  0.15316766126E+03  0.26268121004E+03  0.12499270153E+03 0.  0.
          2    1    1    2  501    0  0.10687213733E+03  0.41688362422E+01 -0.32939990442E+03  0.34632835571E+03  0.00000000000E+00 0. -1.
          1    1    1    2  502    0  0.60050519428E+02  0.41160369328E+02  0.66411013702E+03  0.66808870293E+03  0.00000000000E+00 0. -1.
         22    1    3    3    0    0 -0.14571145265E+03  0.22573159122E+00  0.61530803481E+02  0.15817053507E+03  0.00000000000E+00 0. -1.
         22    1    3    3    0    0 -0.21211204112E+02 -0.45554937162E+02  0.91636857780E+02  0.10451067497E+03  0.00000000000E+00 0. -1.
</event>
<event>
 7    1  0.6273950E-006  0.8880803E+02  0.7818608E-02  0.1323787E+00
          2   -1    0    0  502    0  0.00000000000E+00  0.00000000000E+00  0.22488819299E+04  0.22488819299E+04  0.00000000000E+00 0. -1.
          1   -1    0    0  501    0 -0.00000000000E+00 -0.00000000000E+00 -0.11557222898E+04  0.11557222898E+04  0.00000000000E+00 0. -1.
         25    2    1    2    0    0 -0.12968874876E+03 -0.90000606366E+02  0.41418602394E+03  0.46053750312E+03  0.12500179458E+03 0.  0.
          2    1    1    2  501    0  0.70038785667E+02  0.28194646039E+02 -0.11302681820E+04  0.11327870642E+04  0.00000000000E+00 0. -1.
          1    1    1    2  502    0  0.59649963092E+02  0.61805960328E+02  0.18092417981E+04  0.18112796523E+04  0.00000000000E+00 0. -1.
         22    1    3    3    0    0 -0.11363505932E+03 -0.15202933169E+02  0.17325860415E+03  0.20775610652E+03  0.00000000000E+00 0. -1.
         22    1    3    3    0    0 -0.16053689443E+02 -0.74797673198E+02  0.24092741979E+03  0.25278139660E+03  0.00000000000E+00 0. -1.
</event>
<event>
 7    1  0.6273950E-006  0.7656005E+02  0.7818608E-02  0.1405856E+00
          2   -1    0    0  502    0  0.00000000000E+00  0.00000000000E+00  0.14321134676E+04  0.14321134676E+04  0.00000000000E+00 0. -1.
          1   -1    0    0  501    0 -0.00000000000E+00 -0.00000000000E+00 -0.14793689121E+03  0.14793689121E+03  0.00000000000E+00 0. -1.
         25    2    1    2    0    0 -0.91479053634E+02 -0.76704073543E+02  0.16039068786E+03  0.23580091492E+03  0.12499986629E+03 0.  0.
          2    1    1    2  501    0  0.33447744277E+02  0.28794736253E+02 -0.10461601313E+03  0.11354469885E+03  0.00000000000E+00 0. -1.
          1    1    1    2  502    0  0.58031309357E+02  0.47909337290E+02  0.12284019016E+04  0.12307047450E+04  0.00000000000E+00 0. -1.
         22    1    3    3    0    0 -0.68021342220E+02  0.21633759249E+02  0.58804093737E+02  0.92481587232E+02  0.00000000000E+00 0. -1.
         22    1    3    3    0    0 -0.23457711414E+02 -0.98337832792E+02  0.10158659412E+03  0.14331932769E+03  0.00000000000E+00 0. -1.
</event>
<event>
 7    1  0.6273950E-006  0.1535906E+03  0.7818608E-02  0.1286479E+00
          2   -1    0    0  502    0  0.00000000000E+00  0.00000000000E+00  0.20980797132E+03  0.20980797132E+03  0.00000000000E+00 0. -1.
          1   -1    0    0  501    0 -0.00000000000E+00 -0.00000000000E+00 -0.16846044635E+04  0.16846044635E+04  0.00000000000E+00 0. -1.
         25    2    1    2    0    0 -0.18344492842E+03 -0.60240891199E+01 -0.83600548762E+02  0.23728773163E+03  0.12501233705E+03 0.  0.
          2    1    1    2  501    0  0.41267230496E+02  0.45474048993E+02 -0.14823945059E+04  0.14836658466E+04  0.00000000000E+00 0. -1.
          1    1    1    2  502    0  0.14217769792E+03 -0.39449959873E+02  0.91198562461E+02  0.17345885655E+03  0.00000000000E+00 0. -1.
         22    1    3    3    0    0 -0.37949052356E+02  0.20458286722E+02 -0.78207223612E+02  0.89303090067E+02  0.00000000000E+00 0. -1.
         22    1    3    3    0    0 -0.14549587606E+03 -0.26482375842E+02 -0.53933251501E+01  0.14798464156E+03  0.00000000000E+00 0. -1.
</event>
<event>
 7    1  0.6273950E-006  0.2531469E+03  0.7818608E-02  0.1333824E+00
          2   -1    0    0  502    0  0.00000000000E+00  0.00000000000E+00  0.14362757184E+04  0.14362757184E+04  0.00000000000E+00 0. -1.
          1   -1    0    0  501    0 -0.00000000000E+00 -0.00000000000E+00 -0.18358159865E+03  0.18358159865E+03  0.00000000000E+00 0. -1.
         25    2    1    2    0    0  0.16175793533E+03 -0.18776209956E+03  0.80770534429E+03  0.85406774472E+03  0.12499421470E+03 0.  0.
          2    1    1    2  501    0 -0.18297797422E+03  0.17603570922E+03 -0.59444376294E+02  0.26077412419E+03  0.00000000000E+00 0. -1.
          1    1    1    2  502    0  0.21220038898E+02  0.11726390341E+02  0.50443315174E+03  0.50501544814E+03  0.00000000000E+00 0. -1.
         22    1    3    3    0    0  0.90750321818E+02 -0.21399268610E+02  0.34155973511E+03  0.35405734318E+03  0.00000000000E+00 0.  1.
         22    1    3    3    0    0  0.71007613508E+02 -0.16636283095E+03  0.46614560918E+03  0.50001040155E+03  0.00000000000E+00 0.  1.
</event>
<event>
 7    1  0.6273950E-006  0.9342168E+02  0.7818608E-02  0.1429358E+00
          2   -1    0    0  502    0  0.00000000000E+00  0.00000000000E+00  0.70734653508E+03  0.70734653508E+03  0.00000000000E+00 0. -1.
          1   -1    0    0  501    0 -0.00000000000E+00 -0.00000000000E+00 -0.71107326147E+03  0.71107326147E+03  0.00000000000E+00 0. -1.
         25    2    1    2    0    0 -0.34213973956E+02  0.10972629757E+03 -0.46519501570E+03  0.49521888664E+03  0.12499954663E+03 0.  0.
          2    1    1    2  501    0  0.25000556973E+02 -0.16886287991E+02 -0.22671949158E+03  0.22871795389E+03  0.00000000000E+00 0. -1.
          1    1    1    2  502    0  0.92134169827E+01 -0.92840009578E+02  0.68818778089E+03  0.69448295602E+03  0.00000000000E+00 0. -1.
         22    1    3    3    0    0  0.39268967379E+02  0.81391258647E+02 -0.27058724948E+03  0.28527889575E+03  0.00000000000E+00 0. -1.
         22    1    3    3    0    0 -0.73482941335E+02  0.28335038922E+02 -0.19460776622E+03  0.20993999088E+03  0.00000000000E+00 0. -1.
</event>
<event>
 7    1  0.6273950E-006  0.2351171E+03  0.7818608E-02  0.1271125E+00
          2   -1    0    0  502    0  0.00000000000E+00  0.00000000000E+00  0.52895199314E+03  0.52895199314E+03  0.00000000000E+00 0. -1.
          1   -1    0    0  501    0 -0.00000000000E+00 -0.00000000000E+00 -0.43157802031E+03  0.43157802031E+03  0.00000000000E+00 0. -1.
         25    2    1    2    0    0 -0.11526023512E+03  0.17811329743E+03  0.19168617468E+03  0.31205475485E+03  0.12500124775E+03 0.  0.
          2    1    1    2  501    0  0.94421443341E+02 -0.21961351705E+03 -0.33042946056E+03  0.40783468984E+03  0.00000000000E+00 0. -1.
          1    1    1    2  502    0  0.20838791777E+02  0.41500219615E+02  0.23611725871E+03  0.24064056876E+03  0.00000000000E+00 0. -1.
         22    1    3    3    0    0 -0.60475789042E+02  0.17011280814E+03  0.18103435323E+03  0.25567386570E+03  0.00000000000E+00 0.  1.
         22    1    3    3    0    0 -0.54784446076E+02  0.80004892956E+01  0.10651821448E+02  0.56380889147E+02  0.00000000000E+00 0.  1.
</event>
<event>
 7    1  0.6273950E-006  0.6381377E+02  0.7818608E-02  0.1458805E+00
          2   -1    0    0  502    0  0.00000000000E+00  0.00000000000E+00  0.68790215684E+02  0.68790215684E+02  0.00000000000E+00 0. -1.
          1   -1    0    0  501    0 -0.00000000000E+00 -0.00000000000E+00 -0.73299356211E+03  0.73299356211E+03  0.00000000000E+00 0. -1.
         25    2    1    2    0    0  0.19828145809E+02  0.81133434793E+02 -0.50792715316E+02  0.15868913286E+03  0.12500620524E+03 0.  0.
          2    1    1    2  501    0 -0.23868762717E+02 -0.26260872062E+02 -0.57476071416E+03  0.57585521598E+03  0.00000000000E+00 0. -1.
          1    1    1    2  502    0  0.40406169085E+01 -0.54872562731E+02 -0.38649916949E+02  0.67239428952E+02  0.00000000000E+00 0. -1.
         22    1    3    3    0    0 -0.46503543472E+02  0.25624652216E+02  0.85711583048E+01  0.53783520816E+02  0.00000000000E+00 0.  1.
         22    1    3    3    0    0  0.66331689281E+02  0.55508782577E+02 -0.59363873621E+02  0.10490561204E+03  0.00000000000E+00 0.  1.
</event>
<event>
 7    1  0.8140711E-006  0.9185097E+02  0.7818608E-02  0.1343663E+00
          2   -1    0    0  502    0  0.00000000000E+00  0.00000000000E+00  0.15534684955E+04  0.15534684955E+04  0.00000000000E+00 0. -1.
          1   -1    0    0  501    0 -0.00000000000E+00 -0.00000000000E+00 -0.64571111460E+03  0.64571111460E+03  0.00000000000E+00 0. -1.
         25    2    1    2    0    0 -0.93304290167E+02 -0.33220574576E+02 -0.10272034235E+03  0.18969975313E+03  0.12500092187E+03 0.  0.
          2    1    1    2  501    0  0.56542800632E+01  0.61089340658E+02 -0.49620964169E+03  0.49998788679E+03  0.00000000000E+00 0. -1.
          1    1    1    2  502    0  0.87650010104E+02 -0.27868766082E+02  0.15066873650E+04  0.15094919702E+04  0.00000000000E+00 0. -1.
         22    1    3    3    0    0 -0.32870715686E+02 -0.17561672776E+01 -0.11574264228E+03  0.12033256963E+03  0.00000000000E+00 0. -1.
         22    1    3    3    0    0 -0.60433574481E+02 -0.31464407299E+02  0.13022299929E+02  0.69367183500E+02  0.00000000000E+00 0. -1.
</event>
<event>
 7    1  0.6273950E-006  0.7919950E+02  0.7818608E-02  0.1509184E+00
          2   -1    0    0  502    0  0.00000000000E+00  0.00000000000E+00  0.16513039945E+04  0.16513039945E+04  0.00000000000E+00 0. -1.
          1   -1    0    0  501    0 -0.00000000000E+00 -0.00000000000E+00 -0.41258416352E+03  0.41258416352E+03  0.00000000000E+00 0. -1.
         25    2    1    2    0    0 -0.59098868040E+02 -0.71226084740E+02 -0.67220071792E+02  0.16943950513E+03  0.12500150597E+03 0.  0.
          2    1    1    2  501    0 -0.12020130182E+01  0.20033154762E+02 -0.29293330337E+03  0.29361997948E+03  0.00000000000E+00 0. -1.
          1    1    1    2  502    0  0.60300881058E+02  0.51192929978E+02  0.15988732062E+04  0.16008286734E+04  0.00000000000E+00 0. -1.
         22    1    3    3    0    0 -0.45598141323E+02  0.28736539634E+02 -0.15497928903E+02  0.56081770680E+02  0.00000000000E+00 0. -1.
         22    1    3    3    0    0 -0.13500726717E+02 -0.99962624374E+02 -0.51722142889E+02  0.11335773445E+03  0.00000000000E+00 0. -1.
</event>
<event>
 7    1  0.6273950E-006  0.3512473E+02  0.7818608E-02  0.1574749E+00
          2   -1    0    0  502    0  0.00000000000E+00  0.00000000000E+00  0.16396408386E+04  0.16396408386E+04  0.00000000000E+00 0. -1.
          1   -1    0    0  501    0 -0.00000000000E+00 -0.00000000000E+00 -0.31609625647E+03  0.31609625647E+03  0.00000000000E+00 0. -1.
         25    2    1    2    0    0  0.10877360248E+02 -0.98408960008E+01  0.10481025289E+03  0.16378164149E+03  0.12499630705E+03 0.  0.
          2    1    1    2  501    0 -0.34415200155E+02 -0.80401093374E+01 -0.28537529462E+03  0.28755540012E+03  0.00000000000E+00 0. -1.
          1    1    1    2  502    0  0.23537839907E+02  0.17881005338E+02  0.15041096239E+04  0.15044000535E+04  0.00000000000E+00 0. -1.
         22    1    3    3    0    0 -0.14018886948E+02  0.97336953004E+01  0.12504172546E+03  0.12620105832E+03  0.00000000000E+00 0.  1.
         22    1    3    3    0    0  0.24896247196E+02 -0.19574591301E+02 -0.20231472568E+02  0.37580583169E+02  0.00000000000E+00 0.  1.
</event>
<event>
 7    1  0.6273950E-006  0.1265786E+03  0.7818608E-02  0.1276611E+00
          2   -1    0    0  502    0  0.00000000000E+00  0.00000000000E+00  0.28007002385E+03  0.28007002385E+03  0.00000000000E+00 0. -1.
          1   -1    0    0  501    0 -0.00000000000E+00 -0.00000000000E+00 -0.17195412133E+03  0.17195412133E+03  0.00000000000E+00 0. -1.
         25    2    1    2    0    0  0.69459736718E+02 -0.35902608023E+02  0.18099333391E+02  0.14855514977E+03  0.12500957710E+03 0.  0.
          2    1    1    2  501    0  0.81276207242E+02  0.94948264368E+01 -0.50127546084E+02  0.95962203336E+02  0.00000000000E+00 0. -1.
          1    1    1    2  502    0 -0.15073594396E+03  0.26407781586E+02  0.14014411521E+03  0.20750679208E+03  0.00000000000E+00 0. -1.
         22    1    3    3    0    0  0.58310619326E+02  0.24523637780E+02  0.48774197866E+02  0.79877778597E+02  0.00000000000E+00 0. -1.
         22    1    3    3    0    0  0.11149117392E+02 -0.60426245803E+02 -0.30674864474E+02  0.68677371171E+02  0.00000000000E+00 0. -1.
</event>
<event>
 7    1  0.6273950E-006  0.1165385E+03  0.7818608E-02  0.1274548E+00
          2   -1    0    0  502    0  0.00000000000E+00  0.00000000000E+00  0.22776577367E+04  0.22776577367E+04  0.00000000000E+00 0. -1.
          1   -1    0    0  501    0 -0.00000000000E+00 -0.00000000000E+00 -0.10862876609E+03  0.10862876609E+03  0.00000000000E+00 0. -1.
         25    2    1    2    0    0 -0.23149958440E+02  0.40186188891E+02  0.43246050481E+02  0.14017014074E+03  0.12500638831E+03 0.  0.
          2    1    1    2  501    0 -0.90566122803E+02 -0.39672287641E+01 -0.23398403131E+02  0.93623964735E+02  0.00000000000E+00 0. -1.
          1    1    1    2  502    0  0.11371608124E+03 -0.36218960127E+02  0.21491813233E+04  0.21524923974E+04  0.00000000000E+00 0. -1.
         22    1    3    3    0    0 -0.58893760255E+02 -0.25682172850E+01  0.57815681952E+02  0.82569509000E+02  0.00000000000E+00 0. -1.
         22    1    3    3    0    0  0.35743801815E+02  0.42754406176E+02 -0.14569631471E+02  0.57600631740E+02  0.00000000000E+00 0. -1.
</event>
<event>
 7    1  0.6273950E-006  0.8492778E+02  0.7818608E-02  0.1370092E+00
          2   -1    0    0  502    0  0.00000000000E+00  0.00000000000E+00  0.99744545932E+03  0.99744545932E+03  0.00000000000E+00 0. -1.
          1   -1    0    0  501    0 -0.00000000000E+00 -0.00000000000E+00 -0.13307041946E+04  0.13307041946E+04  0.00000000000E+00 0. -1.
         25    2    1    2    0    0 -0.48142457373E+02  0.19839814903E+01  0.11197823111E+03  0.17460026487E+03  0.12499798345E+03 0.  0.
          2    1    1    2  501    0 -0.25278561409E+02  0.46674525650E+02 -0.12965779516E+04  0.12976640173E+04  0.00000000000E+00 0. -1.
          1    1    1    2  502    0  0.73421018782E+02 -0.48658507141E+02  0.85134098530E+03  0.85588537175E+03  0.00000000000E+00 0. -1.
         22    1    3    3    0    0 -0.66158955618E+02  0.22571856760E+02  0.11974210376E+02  0.70921631680E+02  0.00000000000E+00 0. -1.
         22    1    3    3    0    0  0.18016498245E+02 -0.20587875270E+02  0.10000402073E+03  0.10367863319E+03  0.00000000000E+00 0. -1.
</event>
<event>
 7    1  0.6273950E-006  0.8155246E+02  0.7818608E-02  0.1398899E+00
          2   -1    0    0  502    0  0.00000000000E+00  0.00000000000E+00  0.47948185024E+03  0.47948185024E+03  0.00000000000E+00 0. -1.
          1   -1    0    0  501    0 -0.00000000000E+00 -0.00000000000E+00 -0.30945484562E+03  0.30945484562E+03  0.00000000000E+00 0. -1.
         25    2    1    2    0    0 -0.10785405732E+03  0.23757614389E+02  0.83458993835E+02  0.18651260119E+03  0.12499849931E+03 0.  0.
          2    1    1    2  501    0  0.79868968433E+02  0.98985960539E+01 -0.25019911011E+03  0.26282433110E+03  0.00000000000E+00 0. -1.
          1    1    1    2  502    0  0.27985088887E+02 -0.33656210443E+02  0.33676712089E+03  0.33959976357E+03  0.00000000000E+00 0. -1.
         22    1    3    3    0    0 -0.12442158815E+02 -0.24821608875E+02  0.73989375161E+02  0.79027509260E+02  0.00000000000E+00 0. -1.
         22    1    3    3    0    0 -0.95411898505E+02  0.48579223264E+02  0.94696186740E+01  0.10748509193E+03  0.00000000000E+00 0. -1.
</event>
<event>
 7    1  0.6273950E-006  0.1371042E+03  0.7818608E-02  0.1326729E+00
          2   -1    0    0  502    0  0.00000000000E+00  0.00000000000E+00  0.58641923915E+03  0.58641923915E+03  0.00000000000E+00 0. -1.
          1   -1    0    0  501    0 -0.00000000000E+00 -0.00000000000E+00 -0.72930827194E+03  0.72930827194E+03  0.00000000000E+00 0. -1.
         25    2    1    2    0    0  0.14173783261E+03 -0.10598022330E+03 -0.59228931688E+02  0.22463271282E+03  0.12502147174E+03 0.  0.
          2    1    1    2  501    0 -0.95910366993E+02  0.92941351670E+02 -0.57862690128E+03  0.59384003253E+03  0.00000000000E+00 0. -1.
          1    1    1    2  502    0 -0.45827465614E+02  0.13038871635E+02  0.49496680017E+03  0.49725476574E+03  0.00000000000E+00 0. -1.
         22    1    3    3    0    0  0.75822160946E+02 -0.78840048160E+02  0.27086290981E+02  0.11268726833E+03  0.00000000000E+00 0. -1.
         22    1    3    3    0    0  0.65915671662E+02 -0.27140175145E+02 -0.86315222669E+02  0.11194544449E+03  0.00000000000E+00 0. -1.
</event>
<event>
 7    1  0.6273950E-006  0.5550406E+02  0.7818608E-02  0.1456895E+00
          2   -1    0    0  502    0  0.00000000000E+00  0.00000000000E+00  0.17793274241E+04  0.17793274241E+04  0.00000000000E+00 0. -1.
          1   -1    0    0  501    0 -0.00000000000E+00 -0.00000000000E+00 -0.39495651877E+03  0.39495651877E+03  0.00000000000E+00 0. -1.
         25    2    1    2    0    0 -0.46240269058E+02  0.53806799909E+01  0.59921441526E+03  0.61388028549E+03  0.12499590097E+03 0.  0.
          2    1    1    2  501    0  0.33137516992E+02 -0.44623074259E+02 -0.38526374174E+03  0.38925244313E+03  0.00000000000E+00 0. -1.
          1    1    1    2  502    0  0.13102752066E+02  0.39242394268E+02  0.11704202318E+04  0.11711512142E+04  0.00000000000E+00 0. -1.
         22    1    3    3    0    0 -0.35817565836E+01  0.61710902310E+02  0.31555757596E+03  0.32155504690E+03  0.00000000000E+00 0.  1.
         22    1    3    3    0    0 -0.42658512474E+02 -0.56330222319E+02  0.28365683930E+03  0.29232523859E+03  0.00000000000E+00 0.  1.
</event>
<event>
 7    1  0.6273950E-006  0.2207904E+03  0.7818608E-02  0.1256268E+00
          2   -1    0    0  502    0  0.00000000000E+00  0.00000000000E+00  0.55074875093E+03  0.55074875093E+03  0.00000000000E+00 0. -1.
          1   -1    0    0  501    0 -0.00000000000E+00 -0.00000000000E+00 -0.18129085252E+04  0.18129085252E+04  0.00000000000E+00 0. -1.
         25    2    1    2    0    0 -0.67957756012E+02 -0.23656780552E+03  0.12101844355E+03  0.30141850827E+03  0.12500028094E+03 0.  0.
          2    1    1    2  501    0  0.13317042890E+02  0.21973157173E+03 -0.17132079796E+04  0.17272929365E+04  0.00000000000E+00 0. -1.
          1    1    1    2  502    0  0.54640713123E+02  0.16836233797E+02  0.33002976176E+03  0.33494583136E+03  0.00000000000E+00 0. -1.
         22    1    3    3    0    0 -0.72768548747E+02 -0.25055654090E+03  0.11784637711E+03  0.28628938240E+03  0.00000000000E+00 0. -1.
         22    1    3    3    0    0  0.48107927344E+01  0.13988735376E+02  0.31720664382E+01  0.15129125872E+02  0.00000000000E+00 0. -1.
</event>
<event>
 7    1  0.6273950E-006  0.7244774E+02  0.7818608E-02  0.1384743E+00
          2   -1    0    0  502    0  0.00000000000E+00  0.00000000000E+00  0.63143545441E+03  0.63143545441E+03  0.00000000000E+00 0. -1.
          1   -1    0    0  501    0 -0.00000000000E+00 -0.00000000000E+00 -0.44454061731E+03  0.44454061731E+03  0.00000000000E+00 0. -1.
         25    2    1    2    0    0  0.32919312719E+02  0.11404186597E+03  0.13612981592E+03  0.21964482949E+03  0.12499318379E+03 0.  0.
          2    1    1    2  501    0  0.24512718753E+01 -0.71674747786E+02 -0.39788635051E+03  0.40429794227E+03  0.00000000000E+00 0. -1.
          1    1    1    2  502    0 -0.35370584594E+02 -0.42367118186E+02  0.44865137169E+03  0.45203329996E+03  0.00000000000E+00 0. -1.
         22    1    3    3    0    0 -0.13107342467E+02 -0.18630278228E+02  0.49902124822E+02  0.54855371252E+02  0.00000000000E+00 0. -1.
         22    1    3    3    0    0  0.46026655186E+02  0.13267214420E+03  0.86227691099E+02  0.16478945824E+03  0.00000000000E+00 0. -1.
</event>
<event>
 7    1  0.6273950E-006  0.1413227E+03  0.7818608E-02  0.1261489E+00
          2   -1    0    0  502    0  0.00000000000E+00  0.00000000000E+00  0.20972104591E+04  0.20972104591E+04  0.00000000000E+00 0. -1.
          1   -1    0    0  501    0 -0.00000000000E+00 -0.00000000000E+00 -0.74246769425E+03  0.74246769425E+03  0.00000000000E+00 0. -1.
         25    2    1    2    0    0  0.11470782753E+02  0.22263696491E+03  0.66818223546E+03  0.71539618551E+03  0.12500162179E+03 0.  0.
          2    1    1    2  501    0 -0.23188044589E+02 -0.13859899227E+03 -0.71069381358E+03  0.72445363049E+03  0.00000000000E+00 0. -1.
          1    1    1    2  502    0  0.11717261836E+02 -0.84037972646E+02  0.13972543429E+04  0.13998283373E+04  0.00000000000E+00 0. -1.
         22    1    3    3    0    0  0.60968976663E+02  0.15469686789E+03  0.37106943024E+03  0.40662127232E+03  0.00000000000E+00 0.  1.
         22    1    3    3    0    0 -0.49498193910E+02  0.67940097028E+02  0.29711280523E+03  0.30877491319E+03  0.00000000000E+00 0.  1.
</event>
<event>
 7    1  0.6273950E-006  0.4697614E+02  0.7818608E-02  0.1532277E+00
          2   -1    0    0  502    0  0.00000000000E+00  0.00000000000E+00  0.16992091123E+04  0.16992091123E+04  0.00000000000E+00 0. -1.
          1   -1    0    0  501    0 -0.00000000000E+00 -0.00000000000E+00 -0.61858222987E+02  0.61858222987E+02  0.00000000000E+00 0. -1.
         25    2    1    2    0    0  0.81810546134E+01 -0.74367056588E+02  0.97299272481E+03  0.98383739777E+03  0.12499517574E+03 0.  0.
          2    1    1    2  501    0 -0.10652717522E+02  0.45473959658E+02 -0.46426343075E+02  0.65854132208E+02  0.00000000000E+00 0. -1.
          1    1    1    2  502    0  0.24716629081E+01  0.28893096930E+02  0.71078450758E+03  0.71137580531E+03  0.00000000000E+00 0. -1.
         22    1    3    3    0    0 -0.27548219096E+02 -0.86015738905E+02  0.86063954845E+03  0.86536584406E+03  0.00000000000E+00 0. -1.
         22    1    3    3    0    0  0.35729273710E+02  0.11648682318E+02  0.11235317636E+03  0.11847155371E+03  0.00000000000E+00 0. -1.
</event>
<event>
 7    1  0.6273950E-006  0.6958297E+02  0.7818608E-02  0.1443283E+00
          2   -1    0    0  502    0  0.00000000000E+00  0.00000000000E+00  0.15503117653E+04  0.15503117653E+04  0.00000000000E+00 0. -1.
          1   -1    0    0  501    0 -0.00000000000E+00 -0.00000000000E+00 -0.16345229150E+04  0.16345229150E+04  0.00000000000E+00 0. -1.
         25    2    1    2    0    0 -0.73686431454E+02  0.35839630611E+02 -0.28552134296E+00  0.14946510303E+03  0.12500226477E+03 0.  0.
          2    1    1    2  501    0  0.69540305528E+02  0.40598893279E+00 -0.15586467221E+04  0.15601973027E+04  0.00000000000E+00 0. -1.
          1    1    1    2  502    0  0.41461259262E+01 -0.36245619544E+02  0.14747210938E+04  0.14751722746E+04  0.00000000000E+00 0. -1.
         22    1    3    3    0    0 -0.16762692106E+02  0.75608261098E+02 -0.13958889519E+02  0.78692106272E+02  0.00000000000E+00 0.  1.
         22    1    3    3    0    0 -0.56923739349E+02 -0.39768630487E+02  0.13673368176E+02  0.70772996754E+02  0.00000000000E+00 0.  1.
</event>
<event>
 7    1  0.6273950E-006  0.9057340E+02  0.7818608E-02  0.1390045E+00
          2   -1    0    0  502    0  0.00000000000E+00  0.00000000000E+00  0.31137565638E+03  0.31137565638E+03  0.00000000000E+00 0. -1.
          1   -1    0    0  501    0 -0.00000000000E+00 -0.00000000000E+00 -0.97150999557E+03  0.97150999557E+03  0.00000000000E+00 0. -1.
         25    2    1    2    0    0  0.42726533693E+02  0.37106092522E+02 -0.23596311417E+03  0.27295827528E+03  0.12500084004E+03 0.  0.
          2    1    1    2  501    0  0.42207992948E+02 -0.27566091877E+01 -0.70923887406E+03  0.71049904577E+03  0.00000000000E+00 0. -1.
          1    1    1    2  502    0 -0.84934526641E+02 -0.34349483334E+02  0.28506764904E+03  0.29942833090E+03  0.00000000000E+00 0. -1.
         22    1    3    3    0    0  0.51641669394E+02  0.70861296291E+02 -0.10193633707E+03  0.13445892363E+03  0.00000000000E+00 0.  1.
         22    1    3    3    0    0 -0.89151357009E+01 -0.33755203769E+02 -0.13402677710E+03  0.13849935165E+03  0.00000000000E+00 0.  1.
</event>
<event>
 7    1  0.6273950E-006  0.1551643E+03  0.7818608E-02  0.1195471E+00
          2   -1    0    0  502    0  0.00000000000E+00  0.00000000000E+00  0.35413351456E+04  0.35413351456E+04  0.00000000000E+00 0. -1.
          1   -1    0    0  501    0 -0.00000000000E+00 -0.00000000000E+00 -0.87610515251E+03  0.87610515251E+03  0.00000000000E+00 0. -1.
         25    2    1    2    0    0 -0.88094836495E+01 -0.13840460581E+02  0.42601746526E+02  0.13307731050E+03  0.12500198563E+03 0.  0.
          2    1    1    2  501    0  0.46761055918E+02  0.16219380569E+03 -0.82057465813E+03  0.83775664517E+03  0.00000000000E+00 0. -1.
          1    1    1    2  502    0 -0.37951572268E+02 -0.14835334511E+03  0.34432029047E+04  0.34466063425E+04  0.00000000000E+00 0. -1.
         22    1    3    3    0    0 -0.31772073856E+02 -0.61885995610E+02  0.90839660964E+01  0.70155966031E+02  0.00000000000E+00 0. -1.
         22    1    3    3    0    0  0.22962590207E+02  0.48045535029E+02  0.33517780430E+02  0.62921344472E+02  0.00000000000E+00 0. -1.
</event>
<event>
 7    1  0.6273950E-006  0.5106864E+02  0.7818608E-02  0.1485042E+00
          2   -1    0    0  502    0  0.00000000000E+00  0.00000000000E+00  0.60220714193E+03  0.60220714193E+03  0.00000000000E+00 0. -1.
          1   -1    0    0  501    0 -0.00000000000E+00 -0.00000000000E+00 -0.13029580805E+03  0.13029580805E+03  0.00000000000E+00 0. -1.
         25    2    1    2    0    0  0.75010671882E+02  0.36526425626E+02  0.23390171142E+02  0.15210313570E+03  0.12500993208E+03 0.  0.
          2    1    1    2  501    0 -0.45720353554E+02 -0.14306482870E+02 -0.56480715586E+02  0.74061443506E+02  0.00000000000E+00 0. -1.
          1    1    1    2  502    0 -0.29290318328E+02 -0.22219942756E+02  0.50500187833E+03  0.50633837077E+03  0.00000000000E+00 0. -1.
         22    1    3    3    0    0  0.20399245192E+02 -0.91718901588E+01  0.65610799110E+02  0.69318321773E+02  0.00000000000E+00 0.  1.
         22    1    3    3    0    0  0.54611426689E+02  0.45698315784E+02 -0.42220627968E+02  0.82784813925E+02  0.00000000000E+00 0.  1.
</event>
<event>
 7    1  0.6273950E-006  0.1532485E+03  0.7818608E-02  0.1295406E+00
          2   -1    0    0  502    0  0.00000000000E+00  0.00000000000E+00  0.28176126586E+04  0.28176126586E+04  0.00000000000E+00 0. -1.
          1   -1    0    0  501    0 -0.00000000000E+00 -0.00000000000E+00 -0.65041277988E+03  0.65041277988E+03  0.00000000000E+00 0. -1.
         25    2    1    2    0    0 -0.92771702805E+01  0.18605181083E+03  0.15247678331E+04  0.15411823495E+04  0.12499898830E+03 0.  0.
          2    1    1    2  501    0 -0.24372657151E+02 -0.51101100385E+02 -0.63718219911E+03  0.63969250718E+03  0.00000000000E+00 0. -1.
          1    1    1    2  502    0  0.33649827432E+02 -0.13495071044E+03  0.12796142447E+04  0.12871505818E+04  0.00000000000E+00 0. -1.
         22    1    3    3    0    0 -0.13583181021E+02  0.19479120327E+02  0.66458425975E+03  0.66500840389E+03  0.00000000000E+00 0.  1.
         22    1    3    3    0    0  0.43060107409E+01  0.16657269050E+03  0.86018357339E+03  0.87617394556E+03  0.00000000000E+00 0.  1.
</event>
<event>
 7    1  0.6273950E-006  0.1002054E+03  0.7818608E-02  0.1368536E+00
          2   -1    0    0  502    0  0.00000000000E+00  0.00000000000E+00  0.15093406833E+03  0.15093406833E+03  0.00000000000E+00 0. -1.
          1   -1    0    0  501    0 -0.00000000000E+00 -0.00000000000E+00 -0.52096121001E+03  0.52096121001E+03  0.00000000000E+00 0. -1.
         25    2    1    2    0    0  0.92541678946E+02 -0.28732330341E+02 -0.20162548733E+03  0.25625633363E+03  0.12499984894E+03 0.  0.
          2    1    1    2  501    0 -0.75766641680E+02  0.71103828328E+02 -0.27808626066E+03  0.29686412171E+03  0.00000000000E+00 0. -1.
          1    1    1    2  502    0 -0.16775037266E+02 -0.42371497987E+02  0.10968460631E+03  0.11877482300E+03  0.00000000000E+00 0. -1.
         22    1    3    3    0    0  0.33429990806E+02 -0.43292852649E+02 -0.10535410722E+02  0.55703054269E+02  0.00000000000E+00 0. -1.
         22    1    3    3    0    0  0.59111688141E+02  0.14560522308E+02 -0.19109007661E+03  0.20055327936E+03  0.00000000000E+00 0. -1.
</event>
<event>
 7    1  0.6273950E-006  0.4622630E+02  0.7818608E-02  0.1476538E+00
          2   -1    0    0  502    0  0.00000000000E+00  0.00000000000E+00  0.45884369567E+03  0.45884369567E+03  0.00000000000E+00 0. -1.
          1   -1    0    0  501    0 -0.00000000000E+00 -0.00000000000E+00 -0.92793987885E+02  0.92793987885E+02  0.00000000000E+00 0. -1.
         25    2    1    2    0    0  0.18295241297E+02 -0.45388602077E+01  0.37868832885E+02  0.13196323307E+03  0.12499971709E+03 0.  0.
          2    1    1    2  501    0 -0.46254127228E+01  0.48697739425E+02 -0.30749987368E+02  0.57779113797E+02  0.00000000000E+00 0. -1.
          1    1    1    2  502    0 -0.13669828574E+02 -0.44158879218E+02  0.35893086227E+03  0.36189533669E+03  0.00000000000E+00 0. -1.
         22    1    3    3    0    0 -0.35601996001E+02 -0.72940880379E+01  0.62767326735E+02  0.72528912477E+02  0.00000000000E+00 0. -1.
         22    1    3    3    0    0  0.53897237298E+02  0.27552278302E+01 -0.24898493850E+02  0.59434320596E+02  0.00000000000E+00 0. -1.
</event>
<event>
 7    1  0.6273950E-006  0.2321355E+03  0.7818608E-02  0.1297190E+00
          2   -1    0    0  502    0  0.00000000000E+00  0.00000000000E+00  0.68136012818E+03  0.68136012818E+03  0.00000000000E+00 0. -1.
          1   -1    0    0  501    0 -0.00000000000E+00 -0.00000000000E+00 -0.18731557307E+03  0.18731557307E+03  0.00000000000E+00 0. -1.
         25    2    1    2    0    0  0.74583038778E+02 -0.21349846204E+03  0.78113379769E+01  0.25851519659E+03  0.12499946759E+03 0.  0.
          2    1    1    2  501    0  0.35992960775E+02  0.74837651175E+01 -0.27375137282E+02  0.45835555051E+02  0.00000000000E+00 0. -1.
          1    1    1    2  502    0 -0.11057599955E+03  0.20601469692E+03  0.51360835442E+03  0.56432494961E+03  0.00000000000E+00 0. -1.
         22    1    3    3    0    0 -0.32481434228E+02 -0.26593879274E+02  0.98008789244E+01  0.43108412311E+02  0.00000000000E+00 0.  1.
         22    1    3    3    0    0  0.10706447301E+03 -0.18690458276E+03 -0.19895409475E+01  0.21540678427E+03  0.00000000000E+00 0.  1.
</event>
<event>
 7    1  0.6273950E-006  0.1244127E+03  0.7818608E-02  0.1400622E+00
          2   -1    0    0  502    0  0.00000000000E+00  0.00000000000E+00  0.20425207740E+04  0.20425207740E+04  0.00000000000E+00 0. -1.
          1   -1    0    0  501    0 -0.00000000000E+00 -0.00000000000E+00 -0.15509197289E+04  0.15509197289E+04  0.00000000000E+00 0. -1.
         25    2    1    2    0    0 -0.86357190454E+02 -0.65207182227E+02 -0.33565873955E+03  0.37415336007E+03  0.12495761864E+03 0.  0.
          2    1    1    2  501    0  0.86722917024E+02  0.93507857520E+02 -0.11925145010E+04  0.11993145621E+04  0.00000000000E+00 0. -1.
          1    1    1    2  502    0 -0.36572657048E+00 -0.28300675294E+02  0.20197742857E+04  0.20199725808E+04  0.00000000000E+00 0. -1.
         22    1    3    3    0    0 -0.49951642856E+02  0.20847345297E+02 -0.21407979654E+03  0.22081652500E+03  0.00000000000E+00 0. -1.
         22    1    3    3    0    0 -0.36405547598E+02 -0.86054527523E+02 -0.12157894302E+03  0.15333683507E+03  0.00000000000E+00 0. -1.
</event>
<event>
 7    1  0.6273950E-006  0.6942872E+02  0.7818608E-02  0.1407793E+00
          2   -1    0    0  502    0  0.00000000000E+00  0.00000000000E+00  0.28626767734E+03  0.28626767734E+03  0.00000000000E+00 0. -1.
          1   -1    0    0  501    0 -0.00000000000E+00 -0.00000000000E+00 -0.19910780296E+03  0.19910780296E+03  0.00000000000E+00 0. -1.
         25    2    1    2    0    0 -0.27334667000E+01 -0.41199013280E+02  0.13778688806E+03  0.19056602436E+03  0.12500141032E+03 0.  0.
          2    1    1    2  501    0  0.17728360517E+02 -0.44535708613E+02 -0.15306145296E+03  0.16039180930E+03  0.00000000000E+00 0. -1.
          1    1    1    2  502    0 -0.14994893817E+02  0.85734721893E+02  0.10243443928E+03  0.13441764665E+03  0.00000000000E+00 0. -1.
         22    1    3    3    0    0 -0.44411809553E+02  0.25448156021E+02  0.70322125324E+02  0.86978266152E+02  0.00000000000E+00 0.  1.
         22    1    3    3    0    0  0.41678342853E+02 -0.66647169301E+02  0.67464762735E+02  0.10358775820E+03  0.00000000000E+00 0.  1.
</event>
<event>
 7    1  0.6273950E-006  0.5622075E+02  0.7818608E-02  0.1425250E+00
          2   -1    0    0  502    0  0.00000000000E+00  0.00000000000E+00  0.29496842687E+03  0.29496842687E+03  0.00000000000E+00 0. -1.
          1   -1    0    0  501    0 -0.00000000000E+00 -0.00000000000E+00 -0.53256889988E+03  0.53256889988E+03  0.00000000000E+00 0. -1.
         25    2    1    2    0    0  0.46544116725E+02 -0.10317960276E+02 -0.48140984849E+02  0.14217649256E+03  0.12499514194E+03 0.  0.
          2    1    1    2  501    0 -0.40223729214E+02 -0.41018122884E+02 -0.43279375337E+03  0.43659004541E+03  0.00000000000E+00 0. -1.
          1    1    1    2  502    0 -0.63203875106E+01  0.51336083160E+02  0.24333426520E+03  0.24877078878E+03  0.00000000000E+00 0. -1.
         22    1    3    3    0    0  0.50837975070E+02 -0.16218463945E+01 -0.87734540770E+02  0.10141242399E+03  0.00000000000E+00 0.  1.
         22    1    3    3    0    0 -0.42938583452E+01 -0.86961138816E+01  0.39593555921E+02  0.40764068573E+02  0.00000000000E+00 0.  1.
</event>
<event>
 7    1  0.6273950E-006  0.1432418E+03  0.7818608E-02  0.1339397E+00
          2   -1    0    0  502    0  0.00000000000E+00  0.00000000000E+00  0.66493016941E+03  0.66493016941E+03  0.00000000000E+00 0. -1.
          1   -1    0    0  501    0 -0.00000000000E+00 -0.00000000000E+00 -0.21111736786E+04  0.21111736786E+04  0.00000000000E+00 0. -1.
         25    2    1    2    0    0  0.13934681156E+03 -0.40779668013E+02 -0.41080315487E+02  0.19594166985E+03  0.12500012180E+03 0.  0.
          2    1    1    2  501    0 -0.12083116805E+03  0.77155803829E+02 -0.19893710699E+04  0.19945301308E+04  0.00000000000E+00 0. -1.
          1    1    1    2  502    0 -0.18515643508E+02 -0.36376135816E+02  0.58420787614E+03  0.58563204733E+03  0.00000000000E+00 0. -1.
         22    1    3    3    0    0  0.64649642005E+02 -0.73313999851E+02 -0.56672876826E+02  0.11298820183E+03  0.00000000000E+00 0.  1.
         22    1    3    3    0    0  0.74697169556E+02  0.32534331839E+02  0.15592561338E+02  0.82953468023E+02  0.00000000000E+00 0.  1.
</event>
<event>
 7    1  0.6273950E-006  0.7176107E+02  0.7818608E-02  0.1382433E+00
          2   -1    0    0  502    0  0.00000000000E+00  0.00000000000E+00  0.71827256842E+03  0.71827256842E+03  0.00000000000E+00 0. -1.
          1   -1    0    0  501    0 -0.00000000000E+00 -0.00000000000E+00 -0.89794495882E+02  0.89794495882E+02  0.00000000000E+00 0. -1.
         25    2    1    2    0    0 -0.26548116806E+02  0.25971594343E+02  0.18165272153E+03  0.22361113412E+03  0.12499960738E+03 0.  0.
          2    1    1    2  501    0 -0.51530946080E+02 -0.23827138780E+02 -0.53536561252E+02  0.78034186976E+02  0.00000000000E+00 0. -1.
          1    1    1    2  502    0  0.78079062885E+02 -0.21444555627E+01  0.50036191226E+03  0.50642174320E+03  0.00000000000E+00 0. -1.
         22    1    3    3    0    0 -0.64749452453E+02  0.49491753437E+02  0.14205906630E+03  0.16377638282E+03  0.00000000000E+00 0. -1.
         22    1    3    3    0    0  0.38201335648E+02 -0.23520159094E+02  0.39593655236E+02  0.59834751308E+02  0.00000000000E+00 0. -1.
</event>
<event>
 7    1  0.6273950E-006  0.1074523E+03  0.7818608E-02  0.1297725E+00
          2   -1    0    0  502    0  0.00000000000E+00  0.00000000000E+00  0.13536715095E+04  0.13536715095E+04  0.00000000000E+00 0. -1.
          1   -1    0    0  501    0 -0.00000000000E+00 -0.00000000000E+00 -0.24136581199E+03  0.24136581199E+03  0.00000000000E+00 0. -1.
         25    2    1    2    0    0  0.29823527683E+02  0.72838015790E+02  0.70140953990E+02  0.16352833303E+03  0.12500777148E+03 0.  0.
          2    1    1    2  501    0 -0.73830468768E+02  0.28188649711E+02 -0.18407776105E+03  0.20032513623E+03  0.00000000000E+00 0. -1.
          1    1    1    2  502    0  0.44006941085E+02 -0.10102666550E+03  0.12262425046E+04  0.12311838523E+04  0.00000000000E+00 0. -1.
         22    1    3    3    0    0 -0.39825838197E+02  0.93778025577E+01  0.54288076912E+02  0.67979672430E+02  0.00000000000E+00 0.  1.
         22    1    3    3    0    0  0.69649365880E+02  0.63460213232E+02  0.15852877078E+02  0.95548660600E+02  0.00000000000E+00 0.  1.
</event>
<event>
 7    1  0.6273950E-006  0.7018073E+02  0.7818608E-02  0.1362459E+00
          2   -1    0    0  502    0  0.00000000000E+00  0.00000000000E+00  0.47482974675E+03  0.47482974675E+03  0.00000000000E+00 0. -1.
          1   -1    0    0  501    0 -0.00000000000E+00 -0.00000000000E+00 -0.33884859963E+03  0.33884859963E+03  0.00000000000E+00 0. -1.
         25    2    1    2    0    0 -0.44649609148E+02  0.61995529780E+02  0.80109721834E+02  0.16697306057E+03  0.12500160844E+03 0.  0.
          2    1    1    2  501    0 -0.25736194148E+02 -0.65291525570E+02 -0.28762133519E+03  0.29605973630E+03  0.00000000000E+00 0. -1.
          1    1    1    2  502    0  0.70385803296E+02  0.32959957903E+01  0.34349276048E+03  0.35064554952E+03  0.00000000000E+00 0. -1.
         22    1    3    3    0    0 -0.15830802476E+02  0.39997577257E+02  0.11118898281E+03  0.11922000835E+03  0.00000000000E+00 0.  1.
         22    1    3    3    0    0 -0.28818806672E+02  0.21997952523E+02 -0.31079260976E+02  0.47753052216E+02  0.00000000000E+00 0.  1.
</event>
<event>
 7    1  0.8873014E-006  0.4451352E+02  0.7818608E-02  0.1477892E+00
          2   -1    0    0  502    0  0.00000000000E+00  0.00000000000E+00  0.18150247366E+04  0.18150247366E+04  0.00000000000E+00 0. -1.
          1   -1    0    0  501    0 -0.00000000000E+00 -0.00000000000E+00 -0.89285486081E+03  0.89285486081E+03  0.00000000000E+00 0. -1.
         25    2    1    2    0    0 -0.11343918307E+02 -0.11985969517E+01 -0.11330360552E+03  0.16909473277E+03  0.12500080204E+03 0.  0.
          2    1    1    2  501    0  0.44429606796E+01  0.45173937984E+02 -0.75069285314E+03  0.75206394963E+03  0.00000000000E+00 0. -1.
          1    1    1    2  502    0  0.69009576278E+01 -0.43975341033E+02  0.17861663344E+04  0.17867209150E+04  0.00000000000E+00 0. -1.
         22    1    3    3    0    0 -0.66718544164E+02 -0.88472629980E+01 -0.45599113417E+02  0.81295247970E+02  0.00000000000E+00 0. -1.
         22    1    3    3    0    0  0.55374625857E+02  0.76486660464E+01 -0.67704492100E+02  0.87799484802E+02  0.00000000000E+00 0. -1.
</event>
<event>
 7    1  0.6273950E-006  0.1612551E+03  0.7818608E-02  0.1402522E+00
          2   -1    0    0  502    0  0.00000000000E+00  0.00000000000E+00  0.14070506901E+04  0.14070506901E+04  0.00000000000E+00 0. -1.
          1   -1    0    0  501    0 -0.00000000000E+00 -0.00000000000E+00 -0.10000252438E+04  0.10000252438E+04  0.00000000000E+00 0. -1.
         25    2    1    2    0    0 -0.58600102459E+02 -0.17173168018E+03 -0.35539892078E+03  0.41816062419E+03  0.12499669094E+03 0.  0.
          2    1    1    2  501    0  0.12606872650E+02  0.17429825392E+02 -0.60834347951E+03  0.60872368207E+03  0.00000000000E+00 0. -1.
          1    1    1    2  502    0  0.45993229810E+02  0.15430185479E+03  0.13707678467E+04  0.13801916277E+04  0.00000000000E+00 0. -1.
         22    1    3    3    0    0  0.23725660754E+02 -0.63236905795E+02 -0.20217082483E+03  0.21315453465E+03  0.00000000000E+00 0.  1.
         22    1    3    3    0    0 -0.82325763213E+02 -0.10849477438E+03 -0.15322809595E+03  0.20500608954E+03  0.00000000000E+00 0.  1.
</event>
<event>
 7    1  0.6273950E-006  0.7043551E+02  0.7818608E-02  0.1420803E+00
          2   -1    0    0  502    0  0.00000000000E+00  0.00000000000E+00  0.22215891269E+04  0.22215891269E+04  0.00000000000E+00 0. -1.
          1   -1    0    0  501    0 -0.00000000000E+00 -0.00000000000E+00 -0.43098072655E+02  0.43098072655E+02  0.00000000000E+00 0. -1.
         25    2    1    2    0    0  0.63675350512E+02 -0.14375838364E+02  0.33488989323E+03  0.36336869253E+03  0.12499740452E+03 0.  0.
          2    1    1    2  501    0  0.17253236019E+01  0.42680550223E+02 -0.11984620282E+02  0.44364819758E+02  0.00000000000E+00 0. -1.
          1    1    1    2  502    0 -0.65400674114E+02 -0.28304711859E+02  0.18555857813E+04  0.18569536872E+04  0.00000000000E+00 0. -1.
         22    1    3    3    0    0  0.10738373991E+02  0.38625130410E+02  0.31833950656E+02  0.51191930902E+02  0.00000000000E+00 0. -1.
         22    1    3    3    0    0  0.52936976521E+02 -0.53000968774E+02  0.30305594257E+03  0.31217676163E+03  0.00000000000E+00 0. -1.
</event>
<event>
 7    1  0.6273950E-006  0.2743242E+02  0.7818608E-02  0.1662576E+00
          2   -1    0    0  502    0  0.00000000000E+00  0.00000000000E+00  0.68804020000E+03  0.68804020000E+03  0.00000000000E+00 0. -1.
          1   -1    0    0  501    0 -0.00000000000E+00 -0.00000000000E+00 -0.70127251434E+03  0.70127251434E+03  0.00000000000E+00 0. -1.
         25    2    1    2    0    0  0.48162506108E+02 -0.92998457612E+01 -0.26402260701E+02  0.13684595655E+03  0.12499448919E+03 0.  0.
          2    1    1    2  501    0 -0.25579806412E+02  0.95895335686E+01 -0.61914561518E+03  0.61974799592E+03  0.00000000000E+00 0. -1.
          1    1    1    2  502    0 -0.22582699697E+02 -0.28968780736E+00  0.63231556155E+03  0.63271876187E+03  0.00000000000E+00 0. -1.
         22    1    3    3    0    0  0.77283661922E+02 -0.25117795448E+02  0.16210041034E+02  0.82863945589E+02  0.00000000000E+00 0. -1.
         22    1    3    3    0    0 -0.29121155814E+02  0.15817949687E+02 -0.42612301736E+02  0.53982010962E+02  0.00000000000E+00 0. -1.
</event>
<event>
 7    1  0.6273950E-006  0.6689023E+02  0.7818608E-02  0.1371628E+00
          2   -1    0    0  502    0  0.00000000000E+00  0.00000000000E+00  0.40755646404E+02  0.40755646404E+02  0.00000000000E+00 0. -1.
          1   -1    0    0  501    0 -0.00000000000E+00 -0.00000000000E+00 -0.24307362320E+04  0.24307362320E+04  0.00000000000E+00 0. -1.
         25    2    1    2    0    0  0.21933116609E+02 -0.16572465203E+02 -0.10531461669E+04  0.10608946867E+04  0.12499991668E+03 0.  0.
          2    1    1    2  501    0 -0.88394559386E+01  0.81815135778E+02 -0.13413768893E+04  0.13438987356E+04  0.00000000000E+00 0. -1.
          1    1    1    2  502    0 -0.13093660670E+02 -0.65242670575E+02  0.45424705700E+01  0.66698456147E+02  0.00000000000E+00 0. -1.
         22    1    3    3    0    0  0.18199537262E+02 -0.65387125105E+02 -0.81184104600E+03  0.81467329848E+03  0.00000000000E+00 0. -1.
         22    1    3    3    0    0  0.37335793469E+01  0.48814659902E+02 -0.24130512092E+03  0.24622138822E+03  0.00000000000E+00 0. -1.
</event>
<event>
 7    1  0.6273950E-006  0.6525830E+02  0.7818608E-02  0.1377287E+00
          2   -1    0    0  502    0  0.00000000000E+00  0.00000000000E+00  0.13370875070E+04  0.13370875070E+04  0.00000000000E+00 0. -1.
          1   -1    0    0  501    0 -0.00000000000E+00 -0.00000000000E+00 -0.80302166913E+02  0.80302166913E+02  0.00000000000E+00 0. -1.
         25    2    1    2    0    0 -0.34882404096E+02  0.11417630401E+02  0.34466803124E+03  0.36846659569E+03  0.12499774391E+03 0.  0.
          2    1    1    2  501    0  0.16529450434E+01 -0.67582107413E+02 -0.50320922295E+02  0.84274958857E+02  0.00000000000E+00 0. -1.
          1    1    1    2  502    0  0.33229459053E+02  0.56164477013E+02  0.96243823110E+03  0.96464811932E+03  0.00000000000E+00 0. -1.
         22    1    3    3    0    0 -0.74615574201E+02  0.83393465944E+01  0.12993759842E+03  0.15006934430E+03  0.00000000000E+00 0.  1.
         22    1    3    3    0    0  0.39733170105E+02  0.30782838063E+01  0.21473043282E+03  0.21839725139E+03  0.00000000000E+00 0.  1.
</event>
<event>
 7    1  0.6273950E-006  0.2748841E+02  0.7818608E-02  0.1657661E+00
          2   -1    0    0  502    0  0.00000000000E+00  0.00000000000E+00  0.27181200296E+03  0.27181200296E+03  0.00000000000E+00 0. -1.
          1   -1    0    0  501    0 -0.00000000000E+00 -0.00000000000E+00 -0.27328454857E+03  0.27328454857E+03  0.00000000000E+00 0. -1.
         25    2    1    2    0    0  0.81422442424E+01  0.28073936306E+02 -0.53210922105E+02  0.13896584399E+03  0.12500264607E+03 0.  0.
          2    1    1    2  501    0 -0.24905343690E+02 -0.12086260075E+02 -0.17552256530E+03  0.17769221918E+03  0.00000000000E+00 0. -1.
          1    1    1    2  502    0  0.16763099448E+02 -0.15987676231E+02  0.22726094180E+03  0.22843848836E+03  0.00000000000E+00 0. -1.
         22    1    3    3    0    0  0.26450911873E+02 -0.33598956295E+02 -0.60644756240E+02  0.74204629656E+02  0.00000000000E+00 0.  1.
         22    1    3    3    0    0 -0.18308667630E+02  0.61672892601E+02  0.74338341354E+01  0.64761214335E+02  0.00000000000E+00 0.  1.
</event>
<event>
 7    1  0.6273950E-006  0.4032290E+02  0.7818608E-02  0.1552712E+00
          2   -1    0    0  502    0  0.00000000000E+00  0.00000000000E+00  0.26100052203E+04  0.26100052203E+04  0.00000000000E+00 0. -1.
          1   -1    0    0  501    0 -0.00000000000E+00 -0.00000000000E+00 -0.26046922982E+02  0.26046922982E+02  0.00000000000E+00 0. -1.
         25    2    1    2    0    0 -0.13848056407E+02 -0.35628689385E+02  0.22850242328E+03  0.26324647907E+03  0.12499671646E+03 0.  0.
          2    1    1    2  501    0 -0.22905068755E+02  0.18731005031E+02  0.17249974976E+02  0.34249881179E+02  0.00000000000E+00 0. -1.
          1    1    1    2  502    0  0.36753125161E+02  0.16897684354E+02  0.23382058991E+04  0.23385557831E+04  0.00000000000E+00 0. -1.
         22    1    3    3    0    0  0.52566076218E+02 -0.22747797753E+02  0.14417722773E+03  0.15513776996E+03  0.00000000000E+00 0. -1.
         22    1    3    3    0    0 -0.66414132624E+02 -0.12880891632E+02  0.84325195551E+02  0.10810870911E+03  0.00000000000E+00 0. -1.
</event>
<event>
 7    1  0.6273950E-006  0.7491216E+02  0.7818608E-02  0.1381095E+00
          2   -1    0    0  502    0  0.00000000000E+00  0.00000000000E+00  0.14653577616E+04  0.14653577616E+04  0.00000000000E+00 0. -1.
          1   -1    0    0  501    0 -0.00000000000E+00 -0.00000000000E+00 -0.20273070292E+03  0.20273070292E+03  0.00000000000E+00 0. -1.
         25    2    1    2    0    0  0.85320043534E+02  0.90882918105E+02  0.57533114175E+03  0.60180538358E+03  0.12499832964E+03 0.  0.
          2    1    1    2  501    0 -0.37077447350E+02 -0.40596456619E+02 -0.18408508874E+03  0.19212009080E+03  0.00000000000E+00 0. -1.
          1    1    1    2  502    0 -0.48242596184E+02 -0.50286461487E+02  0.87138100571E+03  0.87416299018E+03  0.00000000000E+00 0. -1.
         22    1    3    3    0    0 -0.25742048792E+01 -0.19625850585E+02  0.19685661838E+03  0.19784925763E+03  0.00000000000E+00 0.  1.
         22    1    3    3    0    0  0.87894248413E+02  0.11050876869E+03  0.37847452337E+03  0.40395612596E+03  0.00000000000E+00 0.  1.
</event>
<event>
 7    1  0.6273950E-006  0.3751522E+03  0.7818608E-02  0.1230851E+00
          2   -1    0    0  502    0  0.00000000000E+00  0.00000000000E+00  0.25321614071E+04  0.25321614071E+04  0.00000000000E+00 0. -1.
          1   -1    0    0  501    0 -0.00000000000E+00 -0.00000000000E+00 -0.16117059817E+04  0.16117059817E+04  0.00000000000E+00 0. -1.
         25    2    1    2    0    0 -0.27963436240E+03  0.28405674341E+03  0.52362088887E+03  0.66984108732E+03  0.12499854755E+03 0.  0.
          2    1    1    2  501    0 -0.11607209761E+01 -0.43478965522E+02 -0.15206214769E+04  0.15212433874E+04  0.00000000000E+00 0. -1.
          1    1    1    2  502    0  0.28079508338E+03 -0.24057777789E+03  0.19174560135E+04  0.19527829141E+04  0.00000000000E+00 0. -1.
         22    1    3    3    0    0 -0.15852065169E+03  0.23464364218E+03  0.39820974649E+03  0.48862811834E+03  0.00000000000E+00 0. -1.
         22    1    3    3    0    0 -0.12111371071E+03  0.49413101226E+02  0.12541114238E+03  0.18121296898E+03  0.00000000000E+00 0. -1.
</event>
<event>
 7    1  0.6273950E-006  0.7259701E+02  0.7818608E-02  0.1402213E+00
          2   -1    0    0  502    0  0.00000000000E+00  0.00000000000E+00  0.69468574492E+03  0.69468574492E+03  0.00000000000E+00 0. -1.
          1   -1    0    0  501    0 -0.00000000000E+00 -0.00000000000E+00 -0.30575582612E+02  0.30575582612E+02  0.00000000000E+00 0. -1.
         25    2    1    2    0    0 -0.46566899259E+02  0.24561439306E+00  0.34103074159E+03  0.36619040824E+03  0.12499964778E+03 0.  0.
          2    1    1    2  501    0 -0.34501333690E+02  0.33225031806E+02  0.39021990205E+02  0.61781554565E+02  0.00000000000E+00 0. -1.
          1    1    1    2  502    0  0.81068232949E+02 -0.33470646199E+02  0.28405743051E+03  0.29728936472E+03  0.00000000000E+00 0. -1.
         22    1    3    3    0    0 -0.45937402392E+02  0.54467165626E+02  0.25261099971E+03  0.26246758704E+03  0.00000000000E+00 0. -1.
         22    1    3    3    0    0 -0.62949686708E+00 -0.54221551233E+02  0.88419741882E+02  0.10372282121E+03  0.00000000000E+00 0. -1.
</event>
<event>
 7    1  0.6273950E-006  0.5506553E+02  0.7818608E-02  0.1467994E+00
          2   -1    0    0  502    0  0.00000000000E+00  0.00000000000E+00  0.83887786518E+03  0.83887786518E+03  0.00000000000E+00 0. -1.
          1   -1    0    0  501    0 -0.00000000000E+00 -0.00000000000E+00 -0.26632496062E+03  0.26632496062E+03  0.00000000000E+00 0. -1.
         25    2    1    2    0    0 -0.18509571106E+02 -0.20100595768E+01  0.36326039308E+02  0.13149484445E+03  0.12499867369E+03 0.  0.
          2    1    1    2  501    0 -0.36347607329E+02  0.12637733217E+02 -0.21600377782E+03  0.21940486068E+03  0.00000000000E+00 0. -1.
          1    1    1    2  502    0  0.54857178435E+02 -0.10627673641E+02  0.75223064307E+03  0.75430312067E+03  0.00000000000E+00 0. -1.
         22    1    3    3    0    0  0.14860503514E+02  0.56431892463E+02  0.23894633123E+02  0.63058278946E+02  0.00000000000E+00 0.  1.
         22    1    3    3    0    0 -0.33370074620E+02 -0.58441952039E+02  0.12431406185E+02  0.68436565505E+02  0.00000000000E+00 0.  1.
</event>
<event>
 7    1  0.6273950E-006  0.4539033E+02  0.7818608E-02  0.1477784E+00
          2   -1    0    0  502    0  0.00000000000E+00  0.00000000000E+00  0.84476088019E+03  0.84476088019E+03  0.00000000000E+00 0. -1.
          1   -1    0    0  501    0 -0.00000000000E+00 -0.00000000000E+00 -0.44090779612E+03  0.44090779612E+03  0.00000000000E+00 0. -1.
         25    2    1    2    0    0  0.68706486026E+02  0.86504754497E+01 -0.81764567528E+01  0.14313068826E+03  0.12499651007E+03 0.  0.
          2    1    1    2  501    0 -0.38867798895E+02  0.23051094371E+02 -0.36324348331E+03  0.36604355876E+03  0.00000000000E+00 0. -1.
          1    1    1    2  502    0 -0.29838687131E+02 -0.31701569821E+02  0.77527302413E+03  0.77649442929E+03  0.00000000000E+00 0. -1.
         22    1    3    3    0    0  0.33838608645E+02 -0.34967637725E+02 -0.52687208075E+02  0.71719795161E+02  0.00000000000E+00 0. -1.
         22    1    3    3    0    0  0.34867877381E+02  0.43618113175E+02  0.44510751323E+02  0.71410893100E+02  0.00000000000E+00 0. -1.
</event>
<event>
 7    1  0.6273950E-006  0.3930986E+02  0.7818608E-02  0.1566992E+00
          2   -1    0    0  502    0  0.00000000000E+00  0.00000000000E+00  0.17251407885E+04  0.17251407885E+04  0.00000000000E+00 0. -1.
          1   -1    0    0  501    0 -0.00000000000E+00 -0.00000000000E+00 -0.44740738610E+03  0.44740738610E+03  0.00000000000E+00 0. -1.
         25    2    1    2    0    0  0.81865183795E+01  0.62366127434E+02  0.65448223946E+03  0.66927503766E+03  0.12500208532E+03 0.  0.
          2    1    1    2  501    0  0.63588372864E+01 -0.38764058869E+02 -0.43895302182E+03  0.44070720715E+03  0.00000000000E+00 0. -1.
          1    1    1    2  502    0 -0.14545355666E+02 -0.23602068565E+02  0.10622041848E+04  0.10625659298E+04  0.00000000000E+00 0. -1.
         22    1    3    3    0    0  0.51741100048E+01  0.99190606736E+02  0.40120452495E+03  0.41331660832E+03  0.00000000000E+00 0. -1.
         22    1    3    3    0    0  0.30124083747E+01 -0.36824479303E+02  0.25327771451E+03  0.25595842934E+03  0.00000000000E+00 0. -1.
</event>
<event>
 7    1  0.6273950E-006  0.7077669E+02  0.7818608E-02  0.1513510E+00
          2   -1    0    0  502    0  0.00000000000E+00  0.00000000000E+00  0.32842431148E+03  0.32842431148E+03  0.00000000000E+00 0. -1.
          1   -1    0    0  501    0 -0.00000000000E+00 -0.00000000000E+00 -0.43381701668E+03  0.43381701668E+03  0.00000000000E+00 0. -1.
         25    2    1    2    0    0 -0.86808604714E+02 -0.98609588705E+00 -0.59298985032E+02  0.16333484942E+03  0.12500078868E+03 0.  0.
          2    1    1    2  501    0  0.68781005898E+02 -0.11288835729E+02 -0.31829272703E+03  0.32583511884E+03  0.00000000000E+00 0. -1.
          1    1    1    2  502    0  0.18027598815E+02  0.12274931616E+02  0.27219900687E+03  0.27307135991E+03  0.00000000000E+00 0. -1.
         22    1    3    3    0    0 -0.67805618603E+02 -0.38119056358E+02  0.13963780016E+02  0.79029434542E+02  0.00000000000E+00 0.  1.
         22    1    3    3    0    0 -0.19002986111E+02  0.37132960471E+02 -0.73262765048E+02  0.84305414873E+02  0.00000000000E+00 0.  1.
</event>
<event>
 7    1  0.6273950E-006  0.8470346E+02  0.7818608E-02  0.1420752E+00
          2   -1    0    0  502    0  0.00000000000E+00  0.00000000000E+00  0.70363360658E+03  0.70363360658E+03  0.00000000000E+00 0. -1.
          1   -1    0    0  501    0 -0.00000000000E+00 -0.00000000000E+00 -0.28606782067E+03  0.28606782067E+03  0.00000000000E+00 0. -1.
         25    2    1    2    0    0  0.90485165303E+02 -0.61552619759E+02 -0.15620617731E+03  0.22803763884E+03  0.12499801902E+03 0.  0.
          2    1    1    2  501    0 -0.64587643942E+02  0.37222059056E+02 -0.78598009429E+02  0.10832678578E+03  0.00000000000E+00 0. -1.
          1    1    1    2  502    0 -0.25897521362E+02  0.24330560703E+02  0.65236997264E+03  0.65333700263E+03  0.00000000000E+00 0. -1.
         22    1    3    3    0    0  0.11497791302E+03 -0.73836844992E+02 -0.11523400575E+03  0.17874752094E+03  0.00000000000E+00 0.  1.
         22    1    3    3    0    0 -0.24492747719E+02  0.12284225233E+02 -0.40972171561E+02  0.49290117903E+02  0.00000000000E+00 0.  1.
</event>
<event>
 7    1  0.6273950E-006  0.7172570E+02  0.7818608E-02  0.1441016E+00
          2   -1    0    0  502    0  0.00000000000E+00  0.00000000000E+00  0.35947710375E+03  0.35947710375E+03  0.00000000000E+00 0. -1.
          1   -1    0    0  501    0 -0.00000000000E+00 -0.00000000000E+00 -0.10093501764E+04  0.10093501764E+04  0.00000000000E+00 0. -1.
         25    2    1    2    0    0 -0.20781654148E+02 -0.36743037329E+02 -0.74314144716E+01  0.13213625198E+03  0.12499134060E+03 0.  0.
          2    1    1    2  501    0  0.58279783577E+01 -0.35519811663E+02 -0.93463270656E+03  0.93532556819E+03  0.00000000000E+00 0. -1.
          1    1    1    2  502    0  0.14953675790E+02  0.72262848992E+02  0.29219104834E+03  0.30136546002E+03  0.00000000000E+00 0. -1.
         22    1    3    3    0    0 -0.27574005928E+02 -0.64739691357E+02  0.36754788415E+02  0.79388084190E+02  0.00000000000E+00 0. -1.
         22    1    3    3    0    0  0.67923517798E+01  0.27996654028E+02 -0.44186202887E+02  0.52748167788E+02  0.00000000000E+00 0. -1.
</event>
<event>
 7    1  0.6273950E-006  0.1269606E+03  0.7818608E-02  0.1341620E+00
          2   -1    0    0  502    0  0.00000000000E+00  0.00000000000E+00  0.26249813885E+04  0.26249813885E+04  0.00000000000E+00 0. -1.
          1   -1    0    0  501    0 -0.00000000000E+00 -0.00000000000E+00 -0.54641171786E+02  0.54641171786E+02  0.00000000000E+00 0. -1.
         25    2    1    2    0    0  0.12705665584E+02  0.11112441852E+03  0.39925451542E+03  0.43305806683E+03  0.12500020334E+03 0.  0.
          2    1    1    2  501    0 -0.57057599288E+02 -0.11970261143E+03  0.79747215680E+02  0.15473817638E+03  0.00000000000E+00 0. -1.
          1    1    1    2  502    0  0.44351933705E+02  0.85781929120E+01  0.20913384856E+04  0.20918263171E+04  0.00000000000E+00 0. -1.
         22    1    3    3    0    0  0.24738002847E+02  0.42251194641E+02  0.33351444806E+03  0.33708903764E+03  0.00000000000E+00 0. -1.
         22    1    3    3    0    0 -0.12032337263E+02  0.68873223875E+02  0.65740067358E+02  0.95969029187E+02  0.00000000000E+00 0. -1.
</event>
<event>
 7    1  0.6273950E-006  0.7475176E+02  0.7818608E-02  0.1428684E+00
          2   -1    0    0  502    0  0.00000000000E+00  0.00000000000E+00  0.51392862115E+02  0.51392862115E+02  0.00000000000E+00 0. -1.
          1   -1    0    0  501    0 -0.00000000000E+00 -0.00000000000E+00 -0.38845840858E+03  0.38845840858E+03  0.00000000000E+00 0. -1.
         25    2    1    2    0    0 -0.63113685497E+02  0.46800555073E+02 -0.10402176522E+03  0.18060777522E+03  0.12500004632E+03 0.  0.
          2    1    1    2  501    0  0.74854746583E+02 -0.10767585354E+02 -0.15867968663E+03  0.17577945536E+03  0.00000000000E+00 0. -1.
          1    1    1    2  502    0 -0.11741061086E+02 -0.36032969719E+02 -0.74364094620E+02  0.83464040107E+02  0.00000000000E+00 0. -1.
         22    1    3    3    0    0  0.26407040598E+02  0.28392885521E+02  0.41495159187E+01  0.38996233456E+02  0.00000000000E+00 0.  1.
         22    1    3    3    0    0 -0.89520726095E+02  0.18407669552E+02 -0.10817128114E+03  0.14161154177E+03  0.00000000000E+00 0.  1.
</event>
<event>
 7    1  0.6273950E-006  0.3856203E+02  0.7818608E-02  0.1549427E+00
          2   -1    0    0  502    0  0.00000000000E+00  0.00000000000E+00  0.72731400643E+02  0.72731400643E+02  0.00000000000E+00 0. -1.
          1   -1    0    0  501    0 -0.00000000000E+00 -0.00000000000E+00 -0.14427751030E+04  0.14427751030E+04  0.00000000000E+00 0. -1.
         25    2    1    2    0    0 -0.69217563084E+02  0.51796659822E+01 -0.11850517109E+04  0.11936456065E+04  0.12499750590E+03 0.  0.
          2    1    1    2  501    0  0.31518855754E+02  0.22421096064E+01 -0.24694619025E+03  0.24895960757E+03  0.00000000000E+00 0. -1.
          1    1    1    2  502    0  0.37698707330E+02 -0.74217755885E+01  0.61954198728E+02  0.72901289613E+02  0.00000000000E+00 0. -1.
         22    1    3    3    0    0 -0.71054764939E+01 -0.18461089322E+01 -0.96126227941E+03  0.96129031293E+03  0.00000000000E+00 0. -1.
         22    1    3    3    0    0 -0.62112086590E+02  0.70257749144E+01 -0.22378943148E+03  0.23235529358E+03  0.00000000000E+00 0. -1.
</event>
<event>
 7    1  0.6273950E-006  0.1026306E+03  0.7818608E-02  0.1337389E+00
          2   -1    0    0  502    0  0.00000000000E+00  0.00000000000E+00  0.15932144140E+04  0.15932144140E+04  0.00000000000E+00 0. -1.
          1   -1    0    0  501    0 -0.00000000000E+00 -0.00000000000E+00 -0.19368367539E+02  0.19368367539E+02  0.00000000000E+00 0. -1.
         25    2    1    2    0    0 -0.85981287137E+02  0.24915030055E+02  0.52048945166E+03  0.54272154786E+03  0.12499547500E+03 0.  0.
          2    1    1    2  501    0  0.12244788985E+02  0.56662479644E+02  0.16839571259E+03  0.17809460260E+03  0.00000000000E+00 0. -1.
          1    1    1    2  502    0  0.73736498153E+02 -0.81577509699E+02  0.88496088217E+03  0.89176663104E+03  0.00000000000E+00 0. -1.
         22    1    3    3    0    0 -0.78163974437E+02  0.15740265536E+02  0.52410672169E+03  0.53013698095E+03  0.00000000000E+00 0. -1.
         22    1    3    3    0    0 -0.78173127002E+01  0.91747645194E+01 -0.36172700291E+01  0.12584566910E+02  0.00000000000E+00 0. -1.
</event>
<event>
 7    1  0.6273950E-006  0.1744995E+03  0.7818608E-02  0.1283775E+00
          2   -1    0    0  502    0  0.00000000000E+00  0.00000000000E+00  0.15607797294E+04  0.15607797294E+04  0.00000000000E+00 0. -1.
          1   -1    0    0  501    0 -0.00000000000E+00 -0.00000000000E+00 -0.39820517037E+03  0.39820517037E+03  0.00000000000E+00 0. -1.
         25    2    1    2    0    0  0.18706468840E+03 -0.86350510942E+02  0.41713123682E+03  0.48173896329E+03  0.12499740650E+03 0.  0.
          2    1    1    2  501    0 -0.17002196103E+03  0.33587914872E+02 -0.34463542895E+03  0.38575794761E+03  0.00000000000E+00 0. -1.
          1    1    1    2  502    0 -0.17042727379E+02  0.52762596070E+02  0.10900787511E+04  0.10914879888E+04  0.00000000000E+00 0. -1.
         22    1    3    3    0    0  0.15470733015E+03 -0.22290041984E+02  0.20496648719E+03  0.25776435915E+03  0.00000000000E+00 0. -1.
         22    1    3    3    0    0  0.32357358257E+02 -0.64060468959E+02  0.21216474963E+03  0.22397460415E+03  0.00000000000E+00 0. -1.
</event>
<event>
 7    1  0.6273950E-006  0.2404363E+03  0.7818608E-02  0.1252713E+00
          2   -1    0    0  502    0  0.00000000000E+00  0.00000000000E+00  0.33383245574E+03  0.33383245574E+03  0.00000000000E+00 0. -1.
          1   -1    0    0  501    0 -0.00000000000E+00 -0.00000000000E+00 -0.11658706148E+04  0.11658706148E+04  0.00000000000E+00 0. -1.
         25    2    1    2    0    0  0.14975135416E+03  0.12333564476E+03 -0.59887988975E+02  0.23843129737E+03  0.12500305196E+03 0.  0.
          2    1    1    2  501    0 -0.19319414464E+03 -0.15605870410E+03 -0.99827212505E+03  0.10287008955E+04  0.00000000000E+00 0. -1.
          1    1    1    2  502    0  0.43442790479E+02  0.32723059338E+02  0.22612195495E+03  0.23257087773E+03  0.00000000000E+00 0. -1.
         22    1    3    3    0    0 -0.16644468362E+02  0.93568307480E-01  0.10557488990E+02  0.19710597552E+02  0.00000000000E+00 0.  1.
         22    1    3    3    0    0  0.16639582252E+03  0.12324207646E+03 -0.70445477965E+02  0.21872069982E+03  0.00000000000E+00 0.  1.
</event>
<event>
 7    1  0.6273950E-006  0.3848031E+02  0.7818608E-02  0.1522488E+00
          2   -1    0    0  502    0  0.00000000000E+00  0.00000000000E+00  0.46383439405E+02  0.46383439405E+02  0.00000000000E+00 0. -1.
          1   -1    0    0  501    0 -0.00000000000E+00 -0.00000000000E+00 -0.12694820574E+04  0.12694820574E+04  0.00000000000E+00 0. -1.
         25    2    1    2    0    0 -0.37849651659E+02  0.47118486983E+02 -0.37927796884E+03  0.40389327865E+03  0.12500101977E+03 0.  0.
          2    1    1    2  501    0  0.81574470138E+00 -0.37762361312E+02 -0.86664985564E+03  0.86747255499E+03  0.00000000000E+00 0. -1.
          1    1    1    2  502    0  0.37033906958E+02 -0.93561256713E+01  0.22829206497E+02  0.44499663161E+02  0.00000000000E+00 0. -1.
         22    1    3    3    0    0 -0.31999610059E+02  0.13013325537E+01 -0.12756884446E+02  0.34473273867E+02  0.00000000000E+00 0. -1.
         22    1    3    3    0    0 -0.58500416006E+01  0.45817154429E+02 -0.36652108440E+03  0.36942000478E+03  0.00000000000E+00 0. -1.
</event>
<event>
 7    1  0.6273950E-006  0.1104644E+03  0.7818608E-02  0.1287203E+00
          2   -1    0    0  502    0  0.00000000000E+00  0.00000000000E+00  0.12492585536E+04  0.12492585536E+04  0.00000000000E+00 0. -1.
          1   -1    0    0  501    0 -0.00000000000E+00 -0.00000000000E+00 -0.26338314807E+03  0.26338314807E+03  0.00000000000E+00 0. -1.
         25    2    1    2    0    0  0.97539946255E+02  0.15530949249E+03 -0.14206853096E+02  0.22240142052E+03  0.12500191038E+03 0.  0.
          2    1    1    2  501    0 -0.52280396245E+02 -0.83595195792E+02 -0.12654755233E+03  0.16042343841E+03  0.00000000000E+00 0. -1.
          1    1    1    2  502    0 -0.45259550011E+02 -0.71714296699E+02  0.11266298109E+04  0.11298168427E+04  0.00000000000E+00 0. -1.
         22    1    3    3    0    0 -0.14403866284E+02  0.37012780795E+01 -0.29794348765E+02  0.33299760385E+02  0.00000000000E+00 0. -1.
         22    1    3    3    0    0  0.11194381254E+03  0.15160821441E+03  0.15587495669E+02  0.18910166013E+03  0.00000000000E+00 0. -1.
</event>
<event>
 7    1  0.6273950E-006  0.3618551E+02  0.7818608E-02  0.1559248E+00
          2   -1    0    0  502    0  0.00000000000E+00  0.00000000000E+00  0.51171039887E+03  0.51171039887E+03  0.00000000000E+00 0. -1.
          1   -1    0    0  501    0 -0.00000000000E+00 -0.00000000000E+00 -0.38579287809E+03  0.38579287809E+03  0.00000000000E+00 0. -1.
         25    2    1    2    0    0  0.55490438059E+02 -0.38507715588E+02  0.99626118440E+02  0.17353055803E+03  0.12500183286E+03 0.  0.
          2    1    1    2  501    0 -0.30317858868E+02  0.19361028150E+02 -0.34724324843E+03  0.34910155479E+03  0.00000000000E+00 0. -1.
          1    1    1    2  502    0 -0.25172579191E+02  0.19146687438E+02  0.37353465077E+03  0.37487116414E+03  0.00000000000E+00 0. -1.
         22    1    3    3    0    0  0.26729659908E+02 -0.58476205311E+02  0.11770836506E+03  0.13412382529E+03  0.00000000000E+00 0. -1.
         22    1    3    3    0    0  0.28760778151E+02  0.19968489723E+02 -0.18082246621E+02  0.39406732731E+02  0.00000000000E+00 0. -1.
</event>
<event>
 7    1  0.6273950E-006  0.5349498E+02  0.7818608E-02  0.1452510E+00
          2   -1    0    0  502    0  0.00000000000E+00  0.00000000000E+00  0.36823284717E+03  0.36823284717E+03  0.00000000000E+00 0. -1.
          1   -1    0    0  501    0 -0.00000000000E+00 -0.00000000000E+00 -0.19625972053E+04  0.19625972053E+04  0.00000000000E+00 0. -1.
         25    2    1    2    0    0  0.28298398063E+01  0.54717678558E+02 -0.24017547730E+03  0.27624425764E+03  0.12499839056E+03 0.  0.
          2    1    1    2  501    0 -0.40941688104E+02 -0.16987110771E+02 -0.17020439026E+04  0.17026209884E+04  0.00000000000E+00 0. -1.
          1    1    1    2  502    0  0.38111848298E+02 -0.37730567788E+02  0.34785502182E+03  0.35196480638E+03  0.00000000000E+00 0. -1.
         22    1    3    3    0    0 -0.82215979479E+01  0.41323308893E+02 -0.73468857026E+01  0.42768998822E+02  0.00000000000E+00 0.  1.
         22    1    3    3    0    0  0.11051437754E+02  0.13394369665E+02 -0.23282859159E+03  0.23347525882E+03  0.00000000000E+00 0.  1.
</event>
<event>
 7    1  0.6273950E-006  0.1778058E+03  0.7818608E-02  0.1197625E+00
          2   -1    0    0  502    0  0.00000000000E+00  0.00000000000E+00  0.53307975748E+03  0.53307975748E+03  0.00000000000E+00 0. -1.
          1   -1    0    0  501    0 -0.00000000000E+00 -0.00000000000E+00 -0.14790601194E+04  0.14790601194E+04  0.00000000000E+00 0. -1.
         25    2    1    2    0    0  0.15781799435E+03  0.24122192511E+03 -0.64414804449E+03  0.71669080561E+03  0.12499788451E+03 0.  0.
          2    1    1    2  501    0 -0.10833059861E+03 -0.72807315910E+02 -0.77752410544E+03  0.78840355046E+03  0.00000000000E+00 0. -1.
          1    1    1    2  502    0 -0.49487395737E+02 -0.16841460920E+03  0.47569178804E+03  0.50704552077E+03  0.00000000000E+00 0. -1.
         22    1    3    3    0    0  0.13643723817E+03  0.24480120950E+03 -0.52047281882E+03  0.59113002568E+03  0.00000000000E+00 0. -1.
         22    1    3    3    0    0  0.21380756178E+02 -0.35792843934E+01 -0.12367522567E+03  0.12556077993E+03  0.00000000000E+00 0. -1.
</event>
<event>
 7    1  0.6273950E-006  0.2781889E+03  0.7818608E-02  0.1097917E+00
          2   -1    0    0  502    0  0.00000000000E+00  0.00000000000E+00  0.19930590232E+04  0.19930590232E+04  0.00000000000E+00 0. -1.
          1   -1    0    0  501    0 -0.00000000000E+00 -0.00000000000E+00 -0.25099652129E+03  0.25099652129E+03  0.00000000000E+00 0. -1.
         25    2    1    2    0    0  0.22917946157E+03  0.48865767242E+02  0.48031692024E+03  0.54885452667E+03  0.12500343503E+03 0.  0.
          2    1    1    2  501    0 -0.20388025779E+03  0.22817034939E+03 -0.86959166427E+02  0.31810495828E+03  0.00000000000E+00 0. -1.
          1    1    1    2  502    0 -0.25299203779E+02 -0.27703611663E+03  0.13487047481E+04  0.13770960595E+04  0.00000000000E+00 0. -1.
         22    1    3    3    0    0  0.17629012271E+03 -0.13432600813E+02  0.38255840077E+03  0.42143750679E+03  0.00000000000E+00 0. -1.
         22    1    3    3    0    0  0.52889338854E+02  0.62298368055E+02  0.97758519468E+02  0.12741701988E+03  0.00000000000E+00 0. -1.
</event>
<event>
 7    1  0.6273950E-006  0.1367248E+03  0.7818608E-02  0.1316871E+00
          2   -1    0    0  502    0  0.00000000000E+00  0.00000000000E+00  0.66712407328E+03  0.66712407328E+03  0.00000000000E+00 0. -1.
          1   -1    0    0  501    0 -0.00000000000E+00 -0.00000000000E+00 -0.20045664482E+04  0.20045664482E+04  0.00000000000E+00 0. -1.
         25    2    1    2    0    0 -0.94228940570E+02  0.37760629025E+02 -0.50468694122E+02  0.16875216220E+03  0.12500097926E+03 0.  0.
          2    1    1    2  501    0 -0.44933434940E+02 -0.26497778656E+02 -0.18865752855E+04  0.18872963343E+04  0.00000000000E+00 0. -1.
          1    1    1    2  502    0  0.13916237551E+03 -0.11262850369E+02  0.59960160468E+03  0.61564202495E+03  0.00000000000E+00 0. -1.
         22    1    3    3    0    0 -0.71268999326E+02 -0.14443031847E+02 -0.76950691184E+02  0.10587388870E+03  0.00000000000E+00 0. -1.
         22    1    3    3    0    0 -0.22959941244E+02  0.52203660872E+02  0.26481997063E+02  0.62878273504E+02  0.00000000000E+00 0. -1.
</event>
<event>
 7    1  0.6273950E-006  0.5001343E+02  0.7818608E-02  0.1477319E+00
          2   -1    0    0  502    0  0.00000000000E+00  0.00000000000E+00  0.26631124870E+03  0.26631124870E+03  0.00000000000E+00 0. -1.
          1   -1    0    0  501    0 -0.00000000000E+00 -0.00000000000E+00 -0.28867001792E+03  0.28867001792E+03  0.00000000000E+00 0. -1.
         25    2    1    2    0    0 -0.86396738452E+01 -0.85109615787E+02 -0.10830827709E+03  0.18620889953E+03  0.12499912286E+03 0.  0.
          2    1    1    2  501    0  0.97743002852E+01  0.45484317274E+02 -0.13577903009E+03  0.14352806372E+03  0.00000000000E+00 0. -1.
          1    1    1    2  502    0 -0.11346264400E+01  0.39625298513E+02  0.22172853796E+03  0.22524430338E+03  0.00000000000E+00 0. -1.
         22    1    3    3    0    0  0.30898179595E+02  0.10441014504E+02 -0.67638175287E+02  0.75090845263E+02  0.00000000000E+00 0. -1.
         22    1    3    3    0    0 -0.39537853440E+02 -0.95550630291E+02 -0.40670101804E+02  0.11111805427E+03  0.00000000000E+00 0. -1.
</event>
<event>
 7    1  0.6273950E-006  0.8821130E+02  0.7818608E-02  0.1419564E+00
          2   -1    0    0  502    0  0.00000000000E+00  0.00000000000E+00  0.17219478879E+04  0.17219478879E+04  0.00000000000E+00 0. -1.
          1   -1    0    0  501    0 -0.00000000000E+00 -0.00000000000E+00 -0.58717605795E+03  0.58717605795E+03  0.00000000000E+00 0. -1.
         25    2    1    2    0    0  0.54035929325E+02  0.22035797820E+02 -0.35607534993E+03  0.38186150356E+03  0.12499237989E+03 0.  0.
          2    1    1    2  501    0  0.33280792055E+02 -0.88365380001E+01 -0.21570037352E+03  0.21843156059E+03  0.00000000000E+00 0. -1.
          1    1    1    2  502    0 -0.87316721380E+02 -0.13199259820E+02  0.17065475534E+04  0.17088308817E+04  0.00000000000E+00 0. -1.
         22    1    3    3    0    0  0.51130190748E+02  0.51031062124E+02 -0.95922092356E+02  0.12008127876E+03  0.00000000000E+00 0. -1.
         22    1    3    3    0    0  0.29057385768E+01 -0.28995264304E+02 -0.26015325757E+03  0.26178022479E+03  0.00000000000E+00 0. -1.
</event>
<event>
 7    1  0.6273950E-006  0.6247348E+02  0.7818608E-02  0.1486229E+00
          2   -1    0    0  502    0  0.00000000000E+00  0.00000000000E+00  0.30393202066E+04  0.30393202066E+04  0.00000000000E+00 0. -1.
          1   -1    0    0  501    0 -0.00000000000E+00 -0.00000000000E+00 -0.33249229453E+03  0.33249229453E+03  0.00000000000E+00 0. -1.
         25    2    1    2    0    0  0.83853165137E+02 -0.18248306651E+02  0.82706898072E+02  0.17271393763E+03  0.12500127705E+03 0.  0.
          2    1    1    2  501    0 -0.21575841332E+02  0.20561466822E+02 -0.28638185519E+03  0.28792856376E+03  0.00000000000E+00 0. -1.
          1    1    1    2  502    0 -0.62277323805E+02 -0.23131601705E+01  0.29105028692E+04  0.29111699997E+04  0.00000000000E+00 0. -1.
         22    1    3    3    0    0 -0.13985907940E+01  0.31344131657E+02  0.65459439533E+02  0.72590280820E+02  0.00000000000E+00 0. -1.
         22    1    3    3    0    0  0.85251755931E+02 -0.49592438308E+02  0.17247458539E+02  0.10012365681E+03  0.00000000000E+00 0. -1.
</event>
<event>
 7    1  0.6273950E-006  0.1338761E+03  0.7818608E-02  0.1421936E+00
          2   -1    0    0  502    0  0.00000000000E+00  0.00000000000E+00  0.16457210428E+04  0.16457210428E+04  0.00000000000E+00 0. -1.
          1   -1    0    0  501    0 -0.00000000000E+00 -0.00000000000E+00 -0.17616331937E+03  0.17616331937E+03  0.00000000000E+00 0. -1.
         25    2    1    2    0    0 -0.13715002092E+03 -0.19551996407E+02  0.24956372766E+03  0.31160741078E+03  0.12499886193E+03 0.  0.
          2    1    1    2  501    0  0.13351716182E+03 -0.24288062547E+01 -0.11431267458E+03  0.17578429728E+03  0.00000000000E+00 0. -1.
          1    1    1    2  502    0  0.36328590962E+01  0.21980802662E+02  0.13343066703E+04  0.13344926541E+04  0.00000000000E+00 0. -1.
         22    1    3    3    0    0 -0.11946692017E+03 -0.42629679856E+02  0.10651883204E+03  0.16563784652E+03  0.00000000000E+00 0.  1.
         22    1    3    3    0    0 -0.17683100744E+02  0.23077683449E+02  0.14304489563E+03  0.14596956426E+03  0.00000000000E+00 0.  1.
</event>
<event>
 7    1  0.6273950E-006  0.7660558E+02  0.7818608E-02  0.1415644E+00
          2   -1    0    0  502    0  0.00000000000E+00  0.00000000000E+00  0.22419835809E+03  0.22419835809E+03  0.00000000000E+00 0. -1.
          1   -1    0    0  501    0 -0.00000000000E+00 -0.00000000000E+00 -0.15050967380E+04  0.15050967380E+04  0.00000000000E+00 0. -1.
         25    2    1    2    0    0  0.57033122576E+02  0.88202294534E+02 -0.26469851818E+03  0.31100049090E+03  0.12499431178E+03 0.  0.
          2    1    1    2  501    0 -0.19115470956E+02 -0.72954497707E+02 -0.12139879776E+04  0.12163283149E+04  0.00000000000E+00 0. -1.
          1    1    1    2  502    0 -0.37917651620E+02 -0.15247796828E+02  0.19778811588E+03  0.20196629025E+03  0.00000000000E+00 0. -1.
         22    1    3    3    0    0 -0.68305829991E+00  0.64934877560E+02 -0.23156818828E+03  0.24050120730E+03  0.00000000000E+00 0. -1.
         22    1    3    3    0    0  0.57716180876E+02  0.23267416974E+02 -0.33130329904E+02  0.70499283593E+02  0.00000000000E+00 0. -1.
</event>
<event>
 7    1  0.6273950E-006  0.8433347E+02  0.7818608E-02  0.1324459E+00
          2   -1    0    0  502    0  0.00000000000E+00  0.00000000000E+00  0.14019013163E+04  0.14019013163E+04  0.00000000000E+00 0. -1.
          1   -1    0    0  501    0 -0.00000000000E+00 -0.00000000000E+00 -0.70139065154E+03  0.70139065154E+03  0.00000000000E+00 0. -1.
         25    2    1    2    0    0  0.37951093709E+02  0.18061825693E+02  0.28604138106E+03  0.31498084615E+03  0.12500698662E+03 0.  0.
          2    1    1    2  501    0  0.39876220969E+02 -0.68236491877E+02 -0.68269079064E+03  0.68725035281E+03  0.00000000000E+00 0. -1.
          1    1    1    2  502    0 -0.77827314678E+02  0.50174666184E+02  0.10971600743E+04  0.11010607689E+04  0.00000000000E+00 0. -1.
         22    1    3    3    0    0  0.10290695908E+02 -0.30498449858E+02  0.24117549079E+03  0.24331393553E+03  0.00000000000E+00 0. -1.
         22    1    3    3    0    0  0.27660397801E+02  0.48560275552E+02  0.44865890271E+02  0.71666910622E+02  0.00000000000E+00 0. -1.
</event>
<event>
 7    1  0.6273950E-006  0.7693008E+02  0.7818608E-02  0.1427782E+00
          2   -1    0    0  502    0  0.00000000000E+00  0.00000000000E+00  0.47627378211E+03  0.47627378211E+03  0.00000000000E+00 0. -1.
          1   -1    0    0  501    0 -0.00000000000E+00 -0.00000000000E+00 -0.14335521013E+04  0.14335521013E+04  0.00000000000E+00 0. -1.
         25    2    1    2    0    0  0.29664140948E+02 -0.10922310415E+03 -0.18980913709E+03  0.25389392330E+03  0.12499987211E+03 0.  0.
          2    1    1    2  501    0 -0.13354367731E+02  0.34589283049E+02 -0.12081296073E+04  0.12086984346E+04  0.00000000000E+00 0. -1.
          1    1    1    2  502    0 -0.16309773217E+02  0.74633821106E+02  0.44066042525E+03  0.44723352551E+03  0.00000000000E+00 0. -1.
         22    1    3    3    0    0  0.30097874671E+02 -0.68508009791E+02 -0.17510510755E+02  0.76849511724E+02  0.00000000000E+00 0. -1.
         22    1    3    3    0    0 -0.43373372309E+00 -0.40715094364E+02 -0.17229862633E+03  0.17704441158E+03  0.00000000000E+00 0. -1.
</event>
<event>
 7    1  0.6273950E-006  0.1892806E+03  0.7818608E-02  0.1260711E+00
          2   -1    0    0  502    0  0.00000000000E+00  0.00000000000E+00  0.32155584759E+04  0.32155584759E+04  0.00000000000E+00 0. -1.
          1   -1    0    0  501    0 -0.00000000000E+00 -0.00000000000E+00 -0.56335157703E+02  0.56335157703E+02  0.00000000000E+00 0. -1.
         25    2    1    2    0    0  0.79632936686E+02 -0.13874457208E+03  0.72868365697E+03  0.75643631639E+03  0.12499827171E+03 0.  0.
          2    1    1    2  501    0 -0.48296887079E+02  0.19436237328E+03  0.19672704500E+03  0.28073270505E+03  0.00000000000E+00 0. -1.
          1    1    1    2  502    0 -0.31336049607E+02 -0.55617801201E+02  0.22338126163E+04  0.22347246122E+04  0.00000000000E+00 0. -1.
         22    1    3    3    0    0  0.18605137090E+02  0.61805584585E+01  0.12633769108E+02  0.23323004756E+02  0.00000000000E+00 0.  1.
         22    1    3    3    0    0  0.61027799596E+02 -0.14492513054E+03  0.71604988786E+03  0.73311331163E+03  0.00000000000E+00 0.  1.
</event>
<event>
 7    1  0.6273950E-006  0.9669337E+02  0.7818608E-02  0.1305756E+00
          2   -1    0    0  502    0  0.00000000000E+00  0.00000000000E+00  0.38477681779E+03  0.38477681779E+03  0.00000000000E+00 0. -1.
          1   -1    0    0  501    0 -0.00000000000E+00 -0.00000000000E+00 -0.12094911749E+04  0.12094911749E+04  0.00000000000E+00 0. -1.
         25    2    1    2    0    0  0.35517948953E+02 -0.28115900278E+02 -0.11892981442E+03  0.17838285076E+03  0.12499644851E+03 0.  0.
          2    1    1    2  501    0 -0.16193688044E+01  0.10231082413E+03 -0.10536382053E+04  0.10585951043E+04  0.00000000000E+00 0. -1.
          1    1    1    2  502    0 -0.33898580148E+02 -0.74194923849E+02  0.34785366259E+03  0.35729003769E+03  0.00000000000E+00 0. -1.
         22    1    3    3    0    0  0.43925307647E+02 -0.73794144937E+02 -0.68747432428E+02  0.11000553597E+03  0.00000000000E+00 0.  1.
         22    1    3    3    0    0 -0.84073586946E+01  0.45678244659E+02 -0.50182381992E+02  0.68377314788E+02  0.00000000000E+00 0.  1.
</event>
<event>
 7    1  0.6273950E-006  0.1769934E+03  0.7818608E-02  0.1172462E+00
          2   -1    0    0  502    0  0.00000000000E+00  0.00000000000E+00  0.70069087961E+03  0.70069087961E+03  0.00000000000E+00 0. -1.
          1   -1    0    0  501    0 -0.00000000000E+00 -0.00000000000E+00 -0.41925632867E+03  0.41925632867E+03  0.00000000000E+00 0. -1.
         25    2    1    2    0    0 -0.27790803170E+02 -0.12265811276E+03 -0.18669877138E+03  0.25748656168E+03  0.12500222736E+03 0.  0.
          2    1    1    2  501    0 -0.15063314381E+03  0.92931736928E+02 -0.14147191041E+03  0.22658542137E+03  0.00000000000E+00 0. -1.
          1    1    1    2  502    0  0.17842394698E+03  0.29726375836E+02  0.60960523273E+03  0.63587522522E+03  0.00000000000E+00 0. -1.
         22    1    3    3    0    0 -0.55383968122E+02 -0.10419498986E+03 -0.19048328971E+03  0.22407111258E+03  0.00000000000E+00 0.  1.
         22    1    3    3    0    0  0.27593164952E+02 -0.18463122908E+02  0.37845183295E+01  0.33415449100E+02  0.00000000000E+00 0.  1.
</event>
<event>
 7    1  0.6273950E-006  0.5542461E+02  0.7818608E-02  0.1495716E+00
          2   -1    0    0  502    0  0.00000000000E+00  0.00000000000E+00  0.23475101459E+04  0.23475101459E+04  0.00000000000E+00 0. -1.
          1   -1    0    0  501    0 -0.00000000000E+00 -0.00000000000E+00 -0.60188548134E+03  0.60188548134E+03  0.00000000000E+00 0. -1.
         25    2    1    2    0    0 -0.48377789199E+02  0.14615107311E+02  0.27980258475E+03  0.31057510015E+03  0.12495356957E+03 0.  0.
          2    1    1    2  501    0  0.52976014416E+02  0.16495773994E+02 -0.58506613509E+03  0.58769120386E+03  0.00000000000E+00 0. -1.
          1    1    1    2  502    0 -0.45982252176E+01 -0.31110881304E+02  0.20508882149E+04  0.20511293232E+04  0.00000000000E+00 0. -1.
         22    1    3    3    0    0  0.44664449728E+01 -0.23692329958E+02  0.22225724371E+03  0.22356108340E+03  0.00000000000E+00 0. -1.
         22    1    3    3    0    0 -0.52844234171E+02  0.38307437268E+02  0.57545341042E+02  0.87014016750E+02  0.00000000000E+00 0. -1.
</event>
<event>
 7    1  0.6273950E-006  0.6279191E+02  0.7818608E-02  0.1422991E+00
          2   -1    0    0  502    0  0.00000000000E+00  0.00000000000E+00  0.11118274572E+04  0.11118274572E+04  0.00000000000E+00 0. -1.
          1   -1    0    0  501    0 -0.00000000000E+00 -0.00000000000E+00 -0.38354045279E+03  0.38354045279E+03  0.00000000000E+00 0. -1.
         25    2    1    2    0    0 -0.33381329524E+02 -0.92368889962E+02 -0.11615847787E+02  0.15939376327E+03  0.12500047542E+03 0.  0.
          2    1    1    2  501    0  0.41037249367E+02  0.45877192056E+02 -0.29431541586E+03  0.30068311659E+03  0.00000000000E+00 0. -1.
          1    1    1    2  502    0 -0.76559198425E+01  0.46491697906E+02  0.10342182681E+04  0.10352910301E+04  0.00000000000E+00 0. -1.
         22    1    3    3    0    0 -0.46162673614E+02 -0.98460782077E+02 -0.49106342658E+02  0.11931869481E+03  0.00000000000E+00 0. -1.
         22    1    3    3    0    0  0.12781344089E+02  0.60918921144E+01  0.37490494870E+02  0.40075068458E+02  0.00000000000E+00 0. -1.
</event>
<event>
 7    1  0.6273950E-006  0.6612473E+02  0.7818608E-02  0.1416283E+00
          2   -1    0    0  502    0  0.00000000000E+00  0.00000000000E+00  0.24769150676E+04  0.24769150676E+04  0.00000000000E+00 0. -1.
          1   -1    0    0  501    0 -0.00000000000E+00 -0.00000000000E+00 -0.47532953836E+02  0.47532953836E+02  0.00000000000E+00 0. -1.
         25    2    1    2    0    0 -0.83702826716E+02 -0.59966706869E+02  0.12752211828E+04  0.12854634339E+04  0.12500002221E+03 0.  0.
          2    1    1    2  501    0  0.26508175109E+02  0.38947994140E+02 -0.28296965326E+02  0.54957691380E+02  0.00000000000E+00 0. -1.
          1    1    1    2  502    0  0.57194651608E+02  0.21018712728E+02  0.11824578962E+04  0.11840268961E+04  0.00000000000E+00 0. -1.
         22    1    3    3    0    0 -0.80343498781E+02 -0.89854855390E+02  0.11647792894E+04  0.11709994731E+04  0.00000000000E+00 0.  1.
         22    1    3    3    0    0 -0.33593279352E+01  0.29888148521E+02  0.11044189342E+03  0.11446396083E+03  0.00000000000E+00 0.  1.
</event>
<event>
 7    1  0.6273950E-006  0.1602668E+03  0.7818608E-02  0.1331164E+00
          2   -1    0    0  502    0  0.00000000000E+00  0.00000000000E+00  0.14143410993E+04  0.14143410993E+04  0.00000000000E+00 0. -1.
          1   -1    0    0  501    0 -0.00000000000E+00 -0.00000000000E+00 -0.23215113344E+03  0.23215113344E+03  0.00000000000E+00 0. -1.
         25    2    1    2    0    0  0.96466221361E+02 -0.94826559573E+02  0.82906981427E+02  0.20198074413E+03  0.12499938065E+03 0.  0.
          2    1    1    2  501    0 -0.13544165162E+03  0.99001811648E+02 -0.13146438411E+03  0.21314005722E+03  0.00000000000E+00 0. -1.
          1    1    1    2  502    0  0.38975430261E+02 -0.41752520752E+01  0.12307473686E+04  0.12313714314E+04  0.00000000000E+00 0. -1.
         22    1    3    3    0    0  0.91041662541E+02 -0.18694508778E+01  0.41729958046E+02  0.10016720303E+03  0.00000000000E+00 0.  1.
         22    1    3    3    0    0  0.54245588195E+01 -0.92957108695E+02  0.41177023381E+02  0.10181354109E+03  0.00000000000E+00 0.  1.
</event>
<event>
 7    1  0.6273950E-006  0.3337762E+02  0.7818608E-02  0.1565716E+00
          2   -1    0    0  502    0  0.00000000000E+00  0.00000000000E+00  0.66384107375E+02  0.66384107375E+02  0.00000000000E+00 0. -1.
          1   -1    0    0  501    0 -0.00000000000E+00 -0.00000000000E+00 -0.26625415521E+03  0.26625415521E+03  0.00000000000E+00 0. -1.
         25    2    1    2    0    0 -0.63171298314E+00 -0.11141627743E+02 -0.93363435995E+02  0.15641315242E+03  0.12499523247E+03 0.  0.
          2    1    1    2  501    0 -0.32903369550E+02 -0.85429532659E+00 -0.12964166614E+03  0.13375471262E+03  0.00000000000E+00 0. -1.
          1    1    1    2  502    0  0.33535082533E+02  0.11995923069E+02  0.23135054295E+02  0.42470397549E+02  0.00000000000E+00 0. -1.
         22    1    3    3    0    0  0.27472972059E+02 -0.31578058767E+01 -0.11612771705E+03  0.11937496638E+03  0.00000000000E+00 0.  1.
         22    1    3    3    0    0 -0.28104685043E+02 -0.79838218662E+01  0.22764281057E+02  0.37038186038E+02  0.00000000000E+00 0.  1.
</event>
<event>
 7    1  0.6273950E-006  0.2814769E+03  0.7818608E-02  0.1163999E+00
          2   -1    0    0  502    0  0.00000000000E+00  0.00000000000E+00  0.53694426240E+03  0.53694426240E+03  0.00000000000E+00 0. -1.
          1   -1    0    0  501    0 -0.00000000000E+00 -0.00000000000E+00 -0.65902555190E+03  0.65902555190E+03  0.00000000000E+00 0. -1.
         25    2    1    2    0    0 -0.16755469581E+03 -0.14856777176E+03  0.33296534881E+02  0.25861419214E+03  0.12500272897E+03 0.  0.
          2    1    1    2  501    0 -0.41224683860E+01 -0.12019221451E+03 -0.47252679216E+03  0.48759074282E+03  0.00000000000E+00 0. -1.
          1    1    1    2  502    0  0.17167716419E+03  0.26875998626E+03  0.31714896778E+03  0.44976487934E+03  0.00000000000E+00 0. -1.
         22    1    3    3    0    0 -0.65663210330E+02 -0.47577289745E+02 -0.47489853819E+02  0.93970963100E+02  0.00000000000E+00 0.  1.
         22    1    3    3    0    0 -0.10189148548E+03 -0.10099048201E+03  0.80786388699E+02  0.16464322904E+03  0.00000000000E+00 0.  1.
</event>
<event>
 7    1  0.6273950E-006  0.8823197E+02  0.7818608E-02  0.1384008E+00
          2   -1    0    0  502    0  0.00000000000E+00  0.00000000000E+00  0.47345977178E+03  0.47345977178E+03  0.00000000000E+00 0. -1.
          1   -1    0    0  501    0 -0.00000000000E+00 -0.00000000000E+00 -0.23546034713E+03  0.23546034713E+03  0.00000000000E+00 0. -1.
         25    2    1    2    0    0  0.72975896327E+02  0.10460813981E+03  0.81982055709E+02  0.19651050605E+03  0.12500790843E+03 0.  0.
          2    1    1    2  501    0 -0.35337163458E+02 -0.28802454906E+02 -0.16978225949E+03  0.17579622341E+03  0.00000000000E+00 0. -1.
          1    1    1    2  502    0 -0.37638732869E+02 -0.75805684901E+02  0.32579962843E+03  0.33661338945E+03  0.00000000000E+00 0. -1.
         22    1    3    3    0    0  0.90106177598E+02  0.11150507872E+03  0.37257747048E+02  0.14812375075E+03  0.00000000000E+00 0.  1.
         22    1    3    3    0    0 -0.17130281271E+02 -0.68969389161E+01  0.44724308661E+02  0.48386755295E+02  0.00000000000E+00 0.  1.
</event>
<event>
 7    1  0.6273950E-006  0.1344440E+03  0.7818608E-02  0.1309300E+00
          2   -1    0    0  502    0  0.00000000000E+00  0.00000000000E+00  0.18341556188E+04  0.18341556188E+04  0.00000000000E+00 0. -1.
          1   -1    0    0  501    0 -0.00000000000E+00 -0.00000000000E+00 -0.18447416827E+03  0.18447416827E+03  0.00000000000E+00 0. -1.
         25    2    1    2    0    0 -0.40465103133E+02 -0.14398282687E+03  0.21625576451E+02  0.19607714594E+03  0.12494039618E+03 0.  0.
          2    1    1    2  501    0 -0.42148326906E+02  0.38080738353E+02 -0.86096241156E+02  0.10314643395E+03  0.00000000000E+00 0. -1.
          1    1    1    2  502    0  0.82613430038E+02  0.10590208852E+03  0.17141521152E+04  0.17194062072E+04  0.00000000000E+00 0. -1.
         22    1    3    3    0    0 -0.62322632866E+02 -0.94152419803E+02  0.61541608309E+02  0.12859299466E+03  0.00000000000E+00 0.  1.
         22    1    3    3    0    0  0.21857529733E+02 -0.49830407066E+02 -0.39916031858E+02  0.67484151278E+02  0.00000000000E+00 0.  1.
</event>
<event>
 7    1  0.6273950E-006  0.7284770E+02  0.7818608E-02  0.1404182E+00
          2   -1    0    0  502    0  0.00000000000E+00  0.00000000000E+00  0.29298838685E+03  0.29298838685E+03  0.00000000000E+00 0. -1.
          1   -1    0    0  501    0 -0.00000000000E+00 -0.00000000000E+00 -0.15897971518E+03  0.15897971518E+03  0.00000000000E+00 0. -1.
         25    2    1    2    0    0 -0.12952163487E+02  0.28687127659E+02 -0.64506245511E+02  0.14414477616E+03  0.12500380375E+03 0.  0.
          2    1    1    2  501    0  0.75191800341E+01  0.46392993255E+02 -0.37480201778E+02  0.60113338094E+02  0.00000000000E+00 0. -1.
          1    1    1    2  502    0  0.54329834533E+01 -0.75080120914E+02  0.23599511897E+03  0.24770998777E+03  0.00000000000E+00 0. -1.
         22    1    3    3    0    0  0.56858408501E+01  0.65978721925E+02  0.13094579948E+01  0.66236207721E+02  0.00000000000E+00 0.  1.
         22    1    3    3    0    0 -0.18638004337E+02 -0.37291594266E+02 -0.65815703506E+02  0.77908568441E+02  0.00000000000E+00 0.  1.
</event>
<event>
 7    1  0.6273950E-006  0.3009662E+03  0.7818608E-02  0.1266809E+00
          2   -1    0    0  502    0  0.00000000000E+00  0.00000000000E+00  0.16252803251E+03  0.16252803251E+03  0.00000000000E+00 0. -1.
          1   -1    0    0  501    0 -0.00000000000E+00 -0.00000000000E+00 -0.13034581522E+04  0.13034581522E+04  0.00000000000E+00 0. -1.
         25    2    1    2    0    0  0.20092288854E+03  0.22798043537E+03 -0.43822057696E+03  0.54772861696E+03  0.12499711082E+03 0.  0.
          2    1    1    2  501    0  0.24213626818E+02 -0.29061172307E+02 -0.59936019118E+03  0.60055265400E+03  0.00000000000E+00 0. -1.
          1    1    1    2  502    0 -0.22513651536E+03 -0.19891926306E+03 -0.10334935159E+03  0.31770491378E+03  0.00000000000E+00 0. -1.
         22    1    3    3    0    0  0.16001926732E+03  0.18927321411E+03 -0.25315765984E+03  0.35428705343E+03  0.00000000000E+00 0. -1.
         22    1    3    3    0    0  0.40903621219E+02  0.38707221259E+02 -0.18506291712E+03  0.19344156353E+03  0.00000000000E+00 0. -1.
</event>
<event>
 7    1  0.6273950E-006  0.3967777E+02  0.7818608E-02  0.1569916E+00
          2   -1    0    0  502    0  0.00000000000E+00  0.00000000000E+00  0.62674664533E+02  0.62674664533E+02  0.00000000000E+00 0. -1.
          1   -1    0    0  501    0 -0.00000000000E+00 -0.00000000000E+00 -0.61875788037E+03  0.61875788037E+03  0.00000000000E+00 0. -1.
         25    2    1    2    0    0  0.39274410070E+02 -0.19287292462E+02 -0.51325792275E+03  0.53006990074E+03  0.12500370180E+03 0.  0.
          2    1    1    2  501    0 -0.21509022670E+02 -0.16267965429E+02 -0.87502675039E+02  0.91564200943E+02  0.00000000000E+00 0. -1.
          1    1    1    2  502    0 -0.17765387399E+02  0.35555257891E+02  0.44677381955E+02  0.59798443220E+02  0.00000000000E+00 0. -1.
         22    1    3    3    0    0  0.46363454377E+02 -0.37624498846E+02 -0.50537267056E+03  0.50888771744E+03  0.00000000000E+00 0.  1.
         22    1    3    3    0    0 -0.70890443074E+01  0.18337206384E+02 -0.78852521983E+01  0.21182183301E+02  0.00000000000E+00 0.  1.
</event>
<event>
 7    1  0.6273950E-006  0.1167707E+03  0.7818608E-02  0.1249499E+00
          2   -1    0    0  502    0  0.00000000000E+00  0.00000000000E+00  0.14367477541E+04  0.14367477541E+04  0.00000000000E+00 0. -1.
          1   -1    0    0  501    0 -0.00000000000E+00 -0.00000000000E+00 -0.30508500521E+03  0.30508500521E+03  0.00000000000E+00 0. -1.
         25    2    1    2    0    0 -0.10853874837E+03  0.43129606549E+02  0.10317035147E+03  0.19978024488E+03  0.12500880755E+03 0.  0.
          2    1    1    2  501    0  0.88019935991E+02  0.74992318166E+02 -0.24079215698E+03  0.26711836287E+03  0.00000000000E+00 0. -1.
          1    1    1    2  502    0  0.20518812378E+02 -0.11812192472E+03  0.12692845544E+04  0.12749341516E+04  0.00000000000E+00 0. -1.
         22    1    3    3    0    0 -0.29644825961E+02  0.69980491433E+02  0.13191669817E+02  0.77136923973E+02  0.00000000000E+00 0.  1.
         22    1    3    3    0    0 -0.78893922408E+02 -0.26850884884E+02  0.89978681654E+02  0.12264332091E+03  0.00000000000E+00 0.  1.
</event>
<event>
 7    1  0.6273950E-006  0.7645776E+02  0.7818608E-02  0.1450030E+00
          2   -1    0    0  502    0  0.00000000000E+00  0.00000000000E+00  0.25446607333E+03  0.25446607333E+03  0.00000000000E+00 0. -1.
          1   -1    0    0  501    0 -0.00000000000E+00 -0.00000000000E+00 -0.41144731480E+03  0.41144731480E+03  0.00000000000E+00 0. -1.
         25    2    1    2    0    0  0.20986941635E+02  0.10310744583E+03 -0.16610375807E+02  0.16423491135E+03  0.12500241764E+03 0.  0.
          2    1    1    2  501    0 -0.20799553755E+01 -0.31515486836E+02 -0.31260780591E+03  0.31419928778E+03  0.00000000000E+00 0. -1.
          1    1    1    2  502    0 -0.18906986260E+02 -0.71591958992E+02  0.17223694026E+03  0.18747918901E+03  0.00000000000E+00 0. -1.
         22    1    3    3    0    0 -0.34206811623E+02  0.73473623126E+02 -0.47969651244E+02  0.94178377015E+02  0.00000000000E+00 0. -1.
         22    1    3    3    0    0  0.55193753259E+02  0.29633822702E+02  0.31359275436E+02  0.70056534332E+02  0.00000000000E+00 0. -1.
</event>
<event>
 7    1  0.6273950E-006  0.8063588E+02  0.7818608E-02  0.1416154E+00
          2   -1    0    0  502    0  0.00000000000E+00  0.00000000000E+00  0.24945559338E+03  0.24945559338E+03  0.00000000000E+00 0. -1.
          1   -1    0    0  501    0 -0.00000000000E+00 -0.00000000000E+00 -0.41775664837E+03  0.41775664837E+03  0.00000000000E+00 0. -1.
         25    2    1    2    0    0  0.47747798005E+02  0.75513622279E+02 -0.10456465457E+02  0.15400213193E+03  0.12500063842E+03 0.  0.
          2    1    1    2  501    0 -0.68320943645E+02 -0.42766802934E+02 -0.32849157821E+03  0.33823581674E+03  0.00000000000E+00 0. -1.
          1    1    1    2  502    0  0.20573145639E+02 -0.32746819345E+02  0.17064698867E+03  0.17497429308E+03  0.00000000000E+00 0. -1.
         22    1    3    3    0    0 -0.32594650328E+02 -0.10543131873E+02  0.70528586884E+01  0.34975872760E+02  0.00000000000E+00 0. -1.
         22    1    3    3    0    0  0.80342448333E+02  0.86056754152E+02 -0.17509324145E+02  0.11902625917E+03  0.00000000000E+00 0. -1.
</event>
<event>
 7    1  0.6273950E-006  0.9546558E+02  0.7818608E-02  0.1315518E+00
          2   -1    0    0  502    0  0.00000000000E+00  0.00000000000E+00  0.37837855867E+03  0.37837855867E+03  0.00000000000E+00 0. -1.
          1   -1    0    0  501    0 -0.00000000000E+00 -0.00000000000E+00 -0.15928151819E+04  0.15928151819E+04  0.00000000000E+00 0. -1.
         25    2    1    2    0    0  0.53162877985E+02 -0.15749360617E+03 -0.39112745768E+02  0.21162900301E+03  0.12500600167E+03 0.  0.
          2    1    1    2  501    0 -0.31964572134E+02  0.68535710889E+02 -0.14592841114E+04  0.14612422781E+04  0.00000000000E+00 0. -1.
          1    1    1    2  502    0 -0.21198305851E+02  0.88957895278E+02  0.28396023399E+03  0.29832245941E+03  0.00000000000E+00 0. -1.
         22    1    3    3    0    0  0.81271076642E+02 -0.16006943475E+03 -0.30294387256E+02  0.18205757809E+03  0.00000000000E+00 0. -1.
         22    1    3    3    0    0 -0.28108198657E+02  0.25758285868E+01 -0.88183585126E+01  0.29571424915E+02  0.00000000000E+00 0. -1.
</event>
<event>
 7    1  0.6273950E-006  0.3762133E+02  0.7818608E-02  0.1606497E+00
          2   -1    0    0  502    0  0.00000000000E+00  0.00000000000E+00  0.20776468033E+04  0.20776468033E+04  0.00000000000E+00 0. -1.
          1   -1    0    0  501    0 -0.00000000000E+00 -0.00000000000E+00 -0.30991188652E+02  0.30991188652E+02  0.00000000000E+00 0. -1.
         25    2    1    2    0    0 -0.29231606539E+01  0.21662618831E+02  0.81276614674E+03  0.82261209314E+03  0.12499613023E+03 0.  0.
          2    1    1    2  501    0  0.17844077040E+02  0.14105504656E+02 -0.20749631171E+02  0.30788366971E+02  0.00000000000E+00 0. -1.
          1    1    1    2  502    0 -0.14920916386E+02 -0.35768123487E+02  0.12546390991E+04  0.12552375318E+04  0.00000000000E+00 0. -1.
         22    1    3    3    0    0 -0.16399183210E+02  0.40257207882E+02  0.78659066580E+03  0.78779086789E+03  0.00000000000E+00 0. -1.
         22    1    3    3    0    0  0.13476022556E+02 -0.18594589051E+02  0.26175480937E+02  0.34821225254E+02  0.00000000000E+00 0. -1.
</event>
<event>
 7    1  0.6273950E-006  0.1454838E+03  0.7818608E-02  0.1224046E+00
          2   -1    0    0  502    0  0.00000000000E+00  0.00000000000E+00  0.50402824069E+03  0.50402824069E+03  0.00000000000E+00 0. -1.
          1   -1    0    0  501    0 -0.00000000000E+00 -0.00000000000E+00 -0.20322765100E+04  0.20322765100E+04  0.00000000000E+00 0. -1.
         25    2    1    2    0    0  0.64297385001E+02 -0.57266538356E+01 -0.20603492001E+03  0.24948631636E+03  0.12500434195E+03 0.  0.
          2    1    1    2  501    0  0.21442774518E+02 -0.11843062935E+03 -0.17906452399E+04  0.17946854827E+04  0.00000000000E+00 0. -1.
          1    1    1    2  502    0 -0.85740159519E+02  0.12415728318E+03  0.46843189062E+03  0.49213295162E+03  0.00000000000E+00 0. -1.
         22    1    3    3    0    0  0.40877298512E+02  0.24389710782E+02 -0.20590465429E+03  0.21133513240E+03  0.00000000000E+00 0.  1.
         22    1    3    3    0    0  0.23420086489E+02 -0.30116364618E+02 -0.13026571861E+00  0.38151183967E+02  0.00000000000E+00 0.  1.
</event>
<event>
 7    1  0.6273950E-006  0.3616089E+02  0.7818608E-02  0.1590467E+00
          2   -1    0    0  502    0  0.00000000000E+00  0.00000000000E+00  0.10648272161E+04  0.10648272161E+04  0.00000000000E+00 0. -1.
          1   -1    0    0  501    0 -0.00000000000E+00 -0.00000000000E+00 -0.10028935634E+02  0.10028935634E+02  0.00000000000E+00 0. -1.
         25    2    1    2    0    0  0.45639485528E+02  0.33594007194E+02  0.71169718149E+03  0.72480890560E+03  0.12499420601E+03 0.  0.
          2    1    1    2  501    0 -0.24959198290E+02 -0.75129705678E+01  0.66101654604E+02  0.71055154967E+02  0.00000000000E+00 0. -1.
          1    1    1    2  502    0 -0.20680287239E+02 -0.26081036626E+02  0.27699944440E+03  0.27899209120E+03  0.00000000000E+00 0. -1.
         22    1    3    3    0    0  0.63104299227E+02  0.62585736017E+02  0.63205623900E+03  0.63827440509E+03  0.00000000000E+00 0. -1.
         22    1    3    3    0    0 -0.17464813698E+02 -0.28991728823E+02  0.79640942493E+02  0.86534500512E+02  0.00000000000E+00 0. -1.
</event>
<event>
 7    1  0.6273950E-006  0.2087286E+03  0.7818608E-02  0.1360778E+00
          2   -1    0    0  502    0  0.00000000000E+00  0.00000000000E+00  0.14822368346E+04  0.14822368346E+04  0.00000000000E+00 0. -1.
          1   -1    0    0  501    0 -0.00000000000E+00 -0.00000000000E+00 -0.12501711709E+04  0.12501711709E+04  0.00000000000E+00 0. -1.
         25    2    1    2    0    0  0.19662214774E+02 -0.18512739934E+03  0.62398364560E+03  0.66305350257E+03  0.12500240242E+03 0.  0.
          2    1    1    2  501    0 -0.17166582608E+02  0.20833444869E+03 -0.12215938297E+04  0.12393504019E+04  0.00000000000E+00 0. -1.
          1    1    1    2  502    0 -0.24956321654E+01 -0.23207049350E+02  0.82967584775E+03  0.83000410099E+03  0.00000000000E+00 0. -1.
         22    1    3    3    0    0  0.11917891178E+02 -0.10611079359E+03  0.16020737727E+03  0.19253036222E+03  0.00000000000E+00 0. -1.
         22    1    3    3    0    0  0.77443235952E+01 -0.79016605755E+02  0.46377626833E+03  0.47052314035E+03  0.00000000000E+00 0. -1.
</event>
<event>
 7    1  0.6273950E-006  0.1272449E+03  0.7818608E-02  0.1364311E+00
          2   -1    0    0  502    0  0.00000000000E+00  0.00000000000E+00  0.21158184909E+04  0.21158184909E+04  0.00000000000E+00 0. -1.
          1   -1    0    0  501    0 -0.00000000000E+00 -0.00000000000E+00 -0.12293801829E+04  0.12293801829E+04  0.00000000000E+00 0. -1.
         25    2    1    2    0    0 -0.44501874006E+02 -0.14681898345E+03 -0.30207794899E+02  0.20018276056E+03  0.12499758423E+03 0.  0.
          2    1    1    2  501    0  0.57943992754E+02  0.11216265070E+03 -0.11104378119E+04  0.11175912046E+04  0.00000000000E+00 0. -1.
          1    1    1    2  502    0 -0.13442118749E+02  0.34656332747E+02  0.20270839147E+04  0.20274247087E+04  0.00000000000E+00 0. -1.
         22    1    3    3    0    0  0.21886416161E+02  0.10290535515E+02 -0.16070879483E+02  0.29037622164E+02  0.00000000000E+00 0.  1.
         22    1    3    3    0    0 -0.66388290167E+02 -0.15710951896E+03 -0.14136915416E+02  0.17114513840E+03  0.00000000000E+00 0.  1.
</event>
<event>
 7    1  0.6273950E-006  0.6088588E+02  0.7818608E-02  0.1402166E+00
          2   -1    0    0  502    0  0.00000000000E+00  0.00000000000E+00  0.31584495002E+04  0.31584495002E+04  0.00000000000E+00 0. -1.
          1   -1    0    0  501    0 -0.00000000000E+00 -0.00000000000E+00 -0.20710474688E+02  0.20710474688E+02  0.00000000000E+00 0. -1.
         25    2    1    2    0    0  0.73111237152E+01 -0.16249988014E+02  0.12752552676E+04  0.12814910324E+04  0.12500301564E+03 0.  0.
          2    1    1    2  501    0  0.53052876857E+02 -0.21201001633E+02  0.31370421839E+02  0.65178167966E+02  0.00000000000E+00 0. -1.
          1    1    1    2  502    0 -0.60364000572E+02  0.37450989647E+02  0.18311133360E+04  0.18324907745E+04  0.00000000000E+00 0. -1.
         22    1    3    3    0    0 -0.46944280863E+02 -0.33273381960E+02  0.36958127351E+03  0.37403368991E+03  0.00000000000E+00 0. -1.
         22    1    3    3    0    0  0.54255404579E+02  0.17023393946E+02  0.90567399411E+03  0.90745734251E+03  0.00000000000E+00 0. -1.
</event>
<event>
 7    1  0.6273950E-006  0.6215597E+02  0.7818608E-02  0.1503912E+00
          2   -1    0    0  502    0  0.00000000000E+00  0.00000000000E+00  0.71963262605E+02  0.71963262605E+02  0.00000000000E+00 0. -1.
          1   -1    0    0  501    0 -0.00000000000E+00 -0.00000000000E+00 -0.70109528721E+03  0.70109528721E+03  0.00000000000E+00 0. -1.
         25    2    1    2    0    0 -0.28663760989E+02  0.33113145890E+02 -0.40919616838E+03  0.43009806391E+03  0.12499899497E+03 0.  0.
          2    1    1    2  501    0  0.41304089250E+02 -0.56412092744E+02 -0.27398299438E+03  0.28276321049E+03  0.00000000000E+00 0. -1.
          1    1    1    2  502    0 -0.12640328261E+02  0.23298946854E+02  0.54047138158E+02  0.60197275405E+02  0.00000000000E+00 0. -1.
         22    1    3    3    0    0 -0.23831332518E+02 -0.31289007181E+02 -0.30489065702E+03  0.30741705729E+03  0.00000000000E+00 0. -1.
         22    1    3    3    0    0 -0.48324284711E+01  0.64402153070E+02 -0.10430551136E+03  0.12268100662E+03  0.00000000000E+00 0. -1.
</event>
<event>
 7    1  0.6273950E-006  0.1095122E+03  0.7818608E-02  0.1310677E+00
          2   -1    0    0  502    0  0.00000000000E+00  0.00000000000E+00  0.14837889014E+03  0.14837889014E+03  0.00000000000E+00 0. -1.
          1   -1    0    0  501    0 -0.00000000000E+00 -0.00000000000E+00 -0.42256781472E+03  0.42256781472E+03  0.00000000000E+00 0. -1.
         25    2    1    2    0    0  0.30316423605E+02  0.11667032567E+03 -0.29816716468E+03  0.34504941050E+03  0.12499754864E+03 0.  0.
          2    1    1    2  501    0  0.52781560060E+02 -0.44238980505E+02 -0.56770733658E+02  0.89251872129E+02  0.00000000000E+00 0. -1.
          1    1    1    2  502    0 -0.83097983665E+02 -0.72431345164E+02  0.80748973758E+02  0.13664542222E+03  0.00000000000E+00 0. -1.
         22    1    3    3    0    0 -0.47523555792E+01  0.16414547222E+02 -0.19902053417E+03  0.19975283544E+03  0.00000000000E+00 0. -1.
         22    1    3    3    0    0  0.35068779184E+02  0.10025577845E+03 -0.99146630506E+02  0.14529657507E+03  0.00000000000E+00 0. -1.
</event>
<event>
 7    1  0.6273950E-006  0.4479646E+02  0.7818608E-02  0.1591344E+00
          2   -1    0    0  502    0  0.00000000000E+00  0.00000000000E+00  0.94428584355E+03  0.94428584355E+03  0.00000000000E+00 0. -1.
          1   -1    0    0  501    0 -0.00000000000E+00 -0.00000000000E+00 -0.42324587389E+03  0.42324587389E+03  0.00000000000E+00 0. -1.
         25    2    1    2    0    0 -0.24543108892E+02  0.15088148792E+02  0.22033145725E+03  0.25495426028E+03  0.12500282937E+03 0.  0.
          2    1    1    2  501    0 -0.37734488801E+01  0.20585670618E+02 -0.40493003968E+03  0.40547052394E+03  0.00000000000E+00 0. -1.
          1    1    1    2  502    0  0.28316557772E+02 -0.35673819410E+02  0.70563855208E+03  0.70710693322E+03  0.00000000000E+00 0. -1.
         22    1    3    3    0    0 -0.65941979056E+02  0.35233561617E+02  0.91605551160E+02  0.11824265503E+03  0.00000000000E+00 0. -1.
         22    1    3    3    0    0  0.41398870163E+02 -0.20145412825E+02  0.12872590609E+03  0.13671160524E+03  0.00000000000E+00 0. -1.
</event>
<event>
 7    1  0.6273950E-006  0.5415028E+02  0.7818608E-02  0.1506852E+00
          2   -1    0    0  502    0  0.00000000000E+00  0.00000000000E+00  0.25851009636E+03  0.25851009636E+03  0.00000000000E+00 0. -1.
          1   -1    0    0  501    0 -0.00000000000E+00 -0.00000000000E+00 -0.15551972117E+03  0.15551972117E+03  0.00000000000E+00 0. -1.
         25    2    1    2    0    0 -0.45680524216E+01 -0.37938153513E+02  0.13464210372E+03  0.18765282967E+03  0.12499967118E+03 0.  0.
          2    1    1    2  501    0  0.33918515052E+02  0.43220035610E+02 -0.12062038406E+03  0.13254325404E+03  0.00000000000E+00 0. -1.
          1    1    1    2  502    0 -0.29350462630E+02 -0.52818820961E+01  0.88968655538E+02  0.93833733824E+02  0.00000000000E+00 0. -1.
         22    1    3    3    0    0 -0.15894761505E+01 -0.74060540662E+02  0.13193268457E+03  0.15130671953E+03  0.00000000000E+00 0. -1.
         22    1    3    3    0    0 -0.29785762711E+01  0.36122387149E+02  0.27094191444E+01  0.36346110136E+02  0.00000000000E+00 0. -1.
</event>
<event>
 7    1  0.6273950E-006  0.5216837E+02  0.7818608E-02  0.1504802E+00
          2   -1    0    0  502    0  0.00000000000E+00  0.00000000000E+00  0.91088647583E+03  0.91088647583E+03  0.00000000000E+00 0. -1.
          1   -1    0    0  501    0 -0.00000000000E+00 -0.00000000000E+00 -0.28461116538E+03  0.28461116538E+03  0.00000000000E+00 0. -1.
         25    2    1    2    0    0 -0.24865394775E+02 -0.89962701433E+01  0.87150609910E+02  0.15465944177E+03  0.12500037355E+03 0.  0.
          2    1    1    2  501    0  0.36560010756E+02  0.38126828245E+02 -0.24775958556E+03  0.25332805146E+03  0.00000000000E+00 0. -1.
          1    1    1    2  502    0 -0.11694615981E+02 -0.29130558101E+02  0.78688428610E+03  0.78751014798E+03  0.00000000000E+00 0. -1.
         22    1    3    3    0    0  0.40324107849E+02 -0.74487505841E+01  0.78915616578E+02  0.88933638737E+02  0.00000000000E+00 0. -1.
         22    1    3    3    0    0 -0.65189502624E+02 -0.15475195593E+01  0.82349933319E+01  0.65725803033E+02  0.00000000000E+00 0. -1.
</event>
<event>
 7    1  0.6273950E-006  0.8876499E+02  0.7818608E-02  0.1356715E+00
          2   -1    0    0  502    0  0.00000000000E+00  0.00000000000E+00  0.80839730431E+03  0.80839730431E+03  0.00000000000E+00 0. -1.
          1   -1    0    0  501    0 -0.00000000000E+00 -0.00000000000E+00 -0.56809770747E+03  0.56809770747E+03  0.00000000000E+00 0. -1.
         25    2    1    2    0    0 -0.21416416844E+02  0.65603812788E+02 -0.87557382896E+02  0.16748967833E+03  0.12499589547E+03 0.  0.
          2    1    1    2  501    0 -0.54034817674E+02 -0.17490487744E+02 -0.43612138467E+03  0.43980398003E+03  0.00000000000E+00 0. -1.
          1    1    1    2  502    0  0.75451234518E+02 -0.48113325044E+02  0.76397836441E+03  0.76920135343E+03  0.00000000000E+00 0. -1.
         22    1    3    3    0    0  0.20766765581E+02 -0.77404270337E+00 -0.86368193546E+02  0.88833116298E+02  0.00000000000E+00 0. -1.
         22    1    3    3    0    0 -0.42183182424E+02  0.66377855491E+02 -0.11891893494E+01  0.78656562030E+02  0.00000000000E+00 0. -1.
</event>
<event>
 7    1  0.6273950E-006  0.1527613E+03  0.7818608E-02  0.1381070E+00
          2   -1    0    0  502    0  0.00000000000E+00  0.00000000000E+00  0.22616746741E+04  0.22616746741E+04  0.00000000000E+00 0. -1.
          1   -1    0    0  501    0 -0.00000000000E+00 -0.00000000000E+00 -0.53075854929E+02  0.53075854929E+02  0.00000000000E+00 0. -1.
         25    2    1    2    0    0 -0.52879279994E+02  0.13201409613E+03  0.37615503892E+03  0.42111919081E+03  0.12499927893E+03 0.  0.
          2    1    1    2  501    0  0.19328472127E+02  0.18804852394E+02 -0.20738697759E+02  0.34019198889E+02  0.00000000000E+00 0. -1.
          1    1    1    2  502    0  0.33550807867E+02 -0.15081894853E+03  0.18531824780E+04  0.18596121393E+04  0.00000000000E+00 0. -1.
         22    1    3    3    0    0 -0.45827785370E+02  0.14072021549E+03  0.22352159073E+03  0.26807511351E+03  0.00000000000E+00 0.  1.
         22    1    3    3    0    0 -0.70514946245E+01 -0.87061193595E+01  0.15263344818E+03  0.15304407729E+03  0.00000000000E+00 0.  1.
</event>
<event>
 7    1  0.6273950E-006  0.5857862E+02  0.7818608E-02  0.1483969E+00
          2   -1    0    0  502    0  0.00000000000E+00  0.00000000000E+00  0.72760023680E+03  0.72760023680E+03  0.00000000000E+00 0. -1.
          1   -1    0    0  501    0 -0.00000000000E+00 -0.00000000000E+00 -0.12130408064E+04  0.12130408064E+04  0.00000000000E+00 0. -1.
         25    2    1    2    0    0 -0.39208835752E+02  0.20943560244E+01 -0.64675498211E+03  0.65989308435E+03  0.12500062705E+03 0.  0.
          2    1    1    2  501    0  0.58474217808E+02 -0.28012157829E+02 -0.55747531808E+03  0.56123314710E+03  0.00000000000E+00 0. -1.
          1    1    1    2  502    0 -0.19265382056E+02  0.25917801805E+02  0.71878973064E+03  0.71951481171E+03  0.00000000000E+00 0. -1.
         22    1    3    3    0    0 -0.70700372460E+02  0.40395229402E+02 -0.40604055515E+03  0.41412467887E+03  0.00000000000E+00 0. -1.
         22    1    3    3    0    0  0.31491536708E+02 -0.38300873377E+02 -0.24071442696E+03  0.24576840548E+03  0.00000000000E+00 0. -1.
</event>
<event>
 7    1  0.6273950E-006  0.5839607E+02  0.7818608E-02  0.1409534E+00
          2   -1    0    0  502    0  0.00000000000E+00  0.00000000000E+00  0.37938771199E+03  0.37938771199E+03  0.00000000000E+00 0. -1.
          1   -1    0    0  501    0 -0.00000000000E+00 -0.00000000000E+00 -0.12255991408E+04  0.12255991408E+04  0.00000000000E+00 0. -1.
         25    2    1    2    0    0 -0.97384172583E+02  0.38074927514E+02 -0.18175863958E+03  0.24412086709E+03  0.12500167004E+03 0.  0.
          2    1    1    2  501    0  0.39451070787E+02 -0.40054255120E+02 -0.10094593069E+04  0.10110236508E+04  0.00000000000E+00 0. -1.
          1    1    1    2  502    0  0.57933101796E+02  0.19793276065E+01  0.34500651766E+03  0.34984233484E+03  0.00000000000E+00 0. -1.
         22    1    3    3    0    0  0.24341126090E+02 -0.10724682558E+02 -0.10926331927E+02  0.28755764025E+02  0.00000000000E+00 0.  1.
         22    1    3    3    0    0 -0.12172529867E+03  0.48799610072E+02 -0.17083230765E+03  0.21536510306E+03  0.00000000000E+00 0.  1.
</event>
<event>
 7    1  0.6273950E-006  0.1474858E+03  0.7818608E-02  0.1305940E+00
          2   -1    0    0  502    0  0.00000000000E+00  0.00000000000E+00  0.78730612841E+03  0.78730612841E+03  0.00000000000E+00 0. -1.
          1   -1    0    0  501    0 -0.00000000000E+00 -0.00000000000E+00 -0.44002262337E+03  0.44002262337E+03  0.00000000000E+00 0. -1.
         25    2    1    2    0    0 -0.13997401807E+03 -0.99070967277E+02  0.22950764747E+02  0.21344942435E+03  0.12500454736E+03 0.  0.
          2    1    1    2  501    0  0.13782338815E+03  0.45724437585E+02 -0.32834501678E+03  0.35902153216E+03  0.00000000000E+00 0. -1.
          1    1    1    2  502    0  0.21506299198E+01  0.53346529691E+02  0.65267775708E+03  0.65485779527E+03  0.00000000000E+00 0. -1.
         22    1    3    3    0    0 -0.27144383507E+02 -0.93578507596E+02  0.24525747394E+02  0.10047520552E+03  0.00000000000E+00 0.  1.
         22    1    3    3    0    0 -0.11282963456E+03 -0.54924596803E+01 -0.15749826474E+01  0.11297421883E+03  0.00000000000E+00 0.  1.
</event>
<event>
 7    1  0.6273950E-006  0.1132147E+03  0.7818608E-02  0.1351236E+00
          2   -1    0    0  502    0  0.00000000000E+00  0.00000000000E+00  0.15869770580E+04  0.15869770580E+04  0.00000000000E+00 0. -1.
          1   -1    0    0  501    0 -0.00000000000E+00 -0.00000000000E+00 -0.50993050308E+03  0.50993050308E+03  0.00000000000E+00 0. -1.
         25    2    1    2    0    0 -0.15456045811E+03 -0.14308279141E+02  0.98489361337E+03  0.10048553716E+04  0.12500090446E+03 0.  0.
          2    1    1    2  501    0  0.11277300496E+03 -0.64235801357E+01 -0.49262881283E+03  0.50541286120E+03  0.00000000000E+00 0. -1.
          1    1    1    2  502    0  0.41787453146E+02  0.20731859276E+02  0.58478175439E+03  0.58663932829E+03  0.00000000000E+00 0. -1.
         22    1    3    3    0    0 -0.10786840413E+03 -0.68480151062E+02  0.62691579403E+03  0.63980351398E+03  0.00000000000E+00 0.  1.
         22    1    3    3    0    0 -0.46692053983E+02  0.54171871921E+02  0.35797781934E+03  0.36505185762E+03  0.00000000000E+00 0.  1.
</event>
<event>
 7    1  0.6273950E-006  0.5399774E+02  0.7818608E-02  0.1552207E+00
          2   -1    0    0  502    0  0.00000000000E+00  0.00000000000E+00  0.97875638005E+03  0.97875638005E+03  0.00000000000E+00 0. -1.
          1   -1    0    0  501    0 -0.00000000000E+00 -0.00000000000E+00 -0.19157725876E+04  0.19157725876E+04  0.00000000000E+00 0. -1.
         25    2    1    2    0    0 -0.49957305210E+02 -0.27508252596E+02 -0.34754336245E+03  0.37371676349E+03  0.12500157689E+03 0.  0.
          2    1    1    2  501    0  0.53745484149E+02  0.56673353661E+01 -0.15545456909E+04  0.15554848121E+04  0.00000000000E+00 0. -1.
          1    1    1    2  502    0 -0.37881789386E+01  0.21840917230E+02  0.96507284582E+03  0.96532739198E+03  0.00000000000E+00 0. -1.
         22    1    3    3    0    0 -0.69495929789E+02 -0.61627003482E+02 -0.28582675119E+03  0.30054035255E+03  0.00000000000E+00 0.  1.
         22    1    3    3    0    0  0.19538624578E+02  0.34118750886E+02 -0.61716611257E+02  0.73176410936E+02  0.00000000000E+00 0.  1.
</event>
<event>
 7    1  0.6273950E-006  0.1072599E+03  0.7818608E-02  0.1307730E+00
          2   -1    0    0  502    0  0.00000000000E+00  0.00000000000E+00  0.25860269165E+04  0.25860269165E+04  0.00000000000E+00 0. -1.
          1   -1    0    0  501    0 -0.00000000000E+00 -0.00000000000E+00 -0.45643489529E+03  0.45643489529E+03  0.00000000000E+00 0. -1.
         25    2    1    2    0    0  0.15574737194E+03  0.73703806682E+02  0.76555725063E+03  0.79460197020E+03  0.12499956823E+03 0.  0.
          2    1    1    2  501    0 -0.61096217431E+02 -0.38516224769E+02 -0.43753820874E+03  0.44345905275E+03  0.00000000000E+00 0. -1.
          1    1    1    2  502    0 -0.94651154510E+02 -0.35187581913E+02  0.18015729793E+04  0.18044007888E+04  0.00000000000E+00 0. -1.
         22    1    3    3    0    0  0.85338192320E+02  0.10507245837E+03  0.51161804799E+03  0.52922193417E+03  0.00000000000E+00 0. -1.
         22    1    3    3    0    0  0.70409179621E+02 -0.31368651684E+02  0.25393920264E+03  0.26538003602E+03  0.00000000000E+00 0. -1.
</event>
<event>
 7    1  0.6273950E-006  0.7222161E+02  0.7818608E-02  0.1378967E+00
          2   -1    0    0  502    0  0.00000000000E+00  0.00000000000E+00  0.64081177152E+03  0.64081177152E+03  0.00000000000E+00 0. -1.
          1   -1    0    0  501    0 -0.00000000000E+00 -0.00000000000E+00 -0.90867701353E+03  0.90867701353E+03  0.00000000000E+00 0. -1.
         25    2    1    2    0    0  0.49497996111E+02 -0.46948456763E+02  0.21110813525E+02  0.14396464330E+03  0.12500377139E+03 0.  0.
          2    1    1    2  501    0 -0.51742985082E+02 -0.26262749228E+02 -0.84384698605E+03  0.84583970371E+03  0.00000000000E+00 0. -1.
          1    1    1    2  502    0  0.22449889706E+01  0.73211205991E+02  0.55487093051E+03  0.55968443804E+03  0.00000000000E+00 0. -1.
         22    1    3    3    0    0  0.89840370101E+02 -0.28487954534E+02  0.29613385851E+02  0.98791741937E+02  0.00000000000E+00 0. -1.
         22    1    3    3    0    0 -0.40342373989E+02 -0.18460502229E+02 -0.85025723251E+01  0.45172901366E+02  0.00000000000E+00 0. -1.
</event>
<event>
 7    1  0.6273950E-006  0.8554119E+02  0.7818608E-02  0.1390193E+00
          2   -1    0    0  502    0  0.00000000000E+00  0.00000000000E+00  0.23790523252E+02  0.23790523252E+02  0.00000000000E+00 0. -1.
          1   -1    0    0  501    0 -0.00000000000E+00 -0.00000000000E+00 -0.11159077626E+04  0.11159077626E+04  0.00000000000E+00 0. -1.
         25    2    1    2    0    0 -0.53977129455E+02 -0.26511433370E+02 -0.43478119526E+03  0.45637171341E+03  0.12499626574E+03 0.  0.
          2    1    1    2  501    0 -0.16623739282E+02 -0.41529311158E+02 -0.46776710289E+03  0.46990115443E+03  0.00000000000E+00 0. -1.
          1    1    1    2  502    0  0.70600868737E+02  0.68040744527E+02 -0.18956894118E+03  0.21342541798E+03  0.00000000000E+00 0. -1.
         22    1    3    3    0    0 -0.19177756653E+02  0.18872658285E+02 -0.11527875529E+02  0.29272094137E+02  0.00000000000E+00 0.  1.
         22    1    3    3    0    0 -0.34799372802E+02 -0.45384091654E+02 -0.42325331973E+03  0.42709961928E+03  0.00000000000E+00 0.  1.
</event>
<event>
 7    1  0.6273950E-006  0.1302165E+03  0.7818608E-02  0.1383356E+00
          2   -1    0    0  502    0  0.00000000000E+00  0.00000000000E+00  0.17058118371E+04  0.17058118371E+04  0.00000000000E+00 0. -1.
          1   -1    0    0  501    0 -0.00000000000E+00 -0.00000000000E+00 -0.36925544899E+03  0.36925544899E+03  0.00000000000E+00 0. -1.
         25    2    1    2    0    0 -0.53852180487E+02 -0.92228637082E+02  0.34042066759E+03  0.37804610850E+03  0.12500580143E+03 0.  0.
          2    1    1    2  501    0 -0.27063783097E+02 -0.15226886357E+02 -0.34638714315E+03  0.34777630650E+03  0.00000000000E+00 0. -1.
          1    1    1    2  502    0  0.80915963585E+02  0.10745552344E+03  0.13425228636E+04  0.13492448711E+04  0.00000000000E+00 0. -1.
         22    1    3    3    0    0 -0.59560209623E+02 -0.12067279448E+03  0.29351272697E+03  0.32289171992E+03  0.00000000000E+00 0. -1.
         22    1    3    3    0    0  0.57080291353E+01  0.28444157402E+02  0.46907940624E+02  0.55154388588E+02  0.00000000000E+00 0. -1.
</event>
<event>
 7    1  0.6273950E-006  0.7820033E+02  0.7818608E-02  0.1407085E+00
          2   -1    0    0  502    0  0.00000000000E+00  0.00000000000E+00  0.22719639928E+04  0.22719639928E+04  0.00000000000E+00 0. -1.
          1   -1    0    0  501    0 -0.00000000000E+00 -0.00000000000E+00 -0.43078672753E+03  0.43078672753E+03  0.00000000000E+00 0. -1.
         25    2    1    2    0    0  0.97722534709E+02 -0.24660835449E+02  0.57573026352E+02  0.17057842665E+03  0.12499798270E+03 0.  0.
          2    1    1    2  501    0 -0.76657583013E+02 -0.12590375500E+02 -0.37003820159E+03  0.37810471199E+03  0.00000000000E+00 0. -1.
          1    1    1    2  502    0 -0.21064951696E+02  0.37251210949E+02  0.21536424405E+04  0.21540675816E+04  0.00000000000E+00 0. -1.
         22    1    3    3    0    0  0.48179622552E+02 -0.45096915971E+02 -0.26304379750E+02  0.71041735996E+02  0.00000000000E+00 0.  1.
         22    1    3    3    0    0  0.49542912157E+02  0.20436080522E+02  0.83877406101E+02  0.99536690654E+02  0.00000000000E+00 0.  1.
</event>
<event>
 7    1  0.6273950E-006  0.1443787E+03  0.7818608E-02  0.1282980E+00
          2   -1    0    0  502    0  0.00000000000E+00  0.00000000000E+00  0.27995400105E+04  0.27995400105E+04  0.00000000000E+00 0. -1.
          1   -1    0    0  501    0 -0.00000000000E+00 -0.00000000000E+00 -0.19954292545E+03  0.19954292545E+03  0.00000000000E+00 0. -1.
         25    2    1    2    0    0  0.38845656826E+02  0.12130039838E+03  0.21649072449E+03  0.28057977928E+03  0.12503602301E+03 0.  0.
          2    1    1    2  501    0 -0.10443713617E+03 -0.10527723175E+03 -0.13413501971E+03  0.19995653140E+03  0.00000000000E+00 0. -1.
          1    1    1    2  502    0  0.65591479347E+02 -0.16023166633E+02  0.25176413803E+04  0.25185466253E+04  0.00000000000E+00 0. -1.
         22    1    3    3    0    0  0.15199315987E+02 -0.10422084335E+02 -0.73033466328E+01  0.19823670709E+02  0.00000000000E+00 0. -1.
         22    1    3    3    0    0  0.23646340839E+02  0.13172248272E+03  0.22379407112E+03  0.26075610857E+03  0.00000000000E+00 0. -1.
</event>
<event>
 7    1  0.6273950E-006  0.1592254E+03  0.7818608E-02  0.1307694E+00
          2   -1    0    0  502    0  0.00000000000E+00  0.00000000000E+00  0.11713267779E+04  0.11713267779E+04  0.00000000000E+00 0. -1.
          1   -1    0    0  501    0 -0.00000000000E+00 -0.00000000000E+00 -0.46540577235E+03  0.46540577235E+03  0.00000000000E+00 0. -1.
         25    2    1    2    0    0 -0.19237367783E+03 -0.74787491066E+02 -0.17530614506E+03  0.29826075591E+03  0.12500573296E+03 0.  0.
          2    1    1    2  501    0  0.43190377788E+02  0.22432077452E+02 -0.22032250612E+03  0.22563380406E+03  0.00000000000E+00 0. -1.
          1    1    1    2  502    0  0.14918330004E+03  0.52355413614E+02  0.11015496567E+04  0.11128379903E+04  0.00000000000E+00 0. -1.
         22    1    3    3    0    0 -0.19394259951E+03 -0.37813991595E+02 -0.11831503556E+03  0.23030865704E+03  0.00000000000E+00 0. -1.
         22    1    3    3    0    0  0.15689216817E+01 -0.36973499471E+02 -0.56991109500E+02  0.67952098867E+02  0.00000000000E+00 0. -1.
</event>
<event>
 7    1  0.6273950E-006  0.6004582E+02  0.7818608E-02  0.1516463E+00
          2   -1    0    0  502    0  0.00000000000E+00  0.00000000000E+00  0.25835077707E+04  0.25835077707E+04  0.00000000000E+00 0. -1.
          1   -1    0    0  501    0 -0.00000000000E+00 -0.00000000000E+00 -0.16057043573E+02  0.16057043573E+02  0.00000000000E+00 0. -1.
         25    2    1    2    0    0 -0.24322585456E+02  0.30029835118E+02  0.52744556351E+03  0.54343200453E+03  0.12500456761E+03 0.  0.
          2    1    1    2  501    0 -0.23961720251E+02  0.78066494190E+01  0.13292614564E+02  0.28492128992E+02  0.00000000000E+00 0. -1.
          1    1    1    2  502    0  0.48284305707E+02 -0.37836484537E+02  0.20267125491E+04  0.20276406808E+04  0.00000000000E+00 0. -1.
         22    1    3    3    0    0 -0.16457216695E+02 -0.40065254245E+02  0.34696130709E+03  0.34965441968E+03  0.00000000000E+00 0. -1.
         22    1    3    3    0    0 -0.78653687606E+01  0.70095089364E+02  0.18048425642E+03  0.19377758486E+03  0.00000000000E+00 0. -1.
</event>
<event>
 7    1  0.6273950E-006  0.2330989E+03  0.7818608E-02  0.1177226E+00
          2   -1    0    0  502    0  0.00000000000E+00  0.00000000000E+00  0.18055466284E+04  0.18055466284E+04  0.00000000000E+00 0. -1.
          1   -1    0    0  501    0 -0.00000000000E+00 -0.00000000000E+00 -0.13196790699E+04  0.13196790699E+04  0.00000000000E+00 0. -1.
         25    2    1    2    0    0  0.16778573063E+03  0.15072287084E+03  0.13606205340E+03  0.29156040104E+03  0.12500059954E+03 0.  0.
          2    1    1    2  501    0 -0.23114426629E+03 -0.43138372808E+02 -0.12283125244E+04  0.12506159477E+04  0.00000000000E+00 0. -1.
          1    1    1    2  502    0  0.63358535664E+02 -0.10758449803E+03  0.15781180294E+04  0.15830493496E+04  0.00000000000E+00 0. -1.
         22    1    3    3    0    0  0.34484713491E+02  0.88763339737E+02  0.10418326050E+03  0.14114629897E+03  0.00000000000E+00 0. -1.
         22    1    3    3    0    0  0.13330101714E+03  0.61959531102E+02  0.31878792897E+02  0.15041410207E+03  0.00000000000E+00 0. -1.
</event>
<event>
 7    1  0.6273950E-006  0.3808650E+02  0.7818608E-02  0.1554898E+00
          2   -1    0    0  502    0  0.00000000000E+00  0.00000000000E+00  0.61541035481E+03  0.61541035481E+03  0.00000000000E+00 0. -1.
          1   -1    0    0  501    0 -0.00000000000E+00 -0.00000000000E+00 -0.87820440836E+02  0.87820440836E+02  0.00000000000E+00 0. -1.
         25    2    1    2    0    0  0.11390787585E+02 -0.65586249166E+02  0.12956091985E+03  0.19195713474E+03  0.12502081228E+03 0.  0.
          2    1    1    2  501    0 -0.12620429494E+02  0.28195986050E+02 -0.51573456828E+02  0.60117470997E+02  0.00000000000E+00 0. -1.
          1    1    1    2  502    0  0.12296419086E+01  0.37390263116E+02  0.44960245095E+03  0.45115618991E+03  0.00000000000E+00 0. -1.
         22    1    3    3    0    0  0.49108635651E+02 -0.64874978862E+02  0.13099198068E+03  0.15420544731E+03  0.00000000000E+00 0. -1.
         22    1    3    3    0    0 -0.37717848066E+02 -0.71127030413E+00 -0.14310608317E+01  0.37751687423E+02  0.00000000000E+00 0. -1.
</event>
<event>
 7    1  0.6273950E-006  0.7477426E+02  0.7818608E-02  0.1375330E+00
          2   -1    0    0  502    0  0.00000000000E+00  0.00000000000E+00  0.14673296195E+03  0.14673296195E+03  0.00000000000E+00 0. -1.
          1   -1    0    0  501    0 -0.00000000000E+00 -0.00000000000E+00 -0.56611632064E+03  0.56611632064E+03  0.00000000000E+00 0. -1.
         25    2    1    2    0    0  0.39346343699E+02 -0.11944921175E+03 -0.14547169806E+03  0.22935646985E+03  0.12500450542E+03 0.  0.
          2    1    1    2  501    0 -0.34355805641E+02  0.61925477438E+02 -0.36709896562E+03  0.37386727150E+03  0.00000000000E+00 0. -1.
          1    1    1    2  502    0 -0.49905380581E+01  0.57523734315E+02  0.93187304993E+02  0.10962554124E+03  0.00000000000E+00 0. -1.
         22    1    3    3    0    0  0.80805181675E+02 -0.10216376911E+03 -0.91730020692E+02  0.15931512734E+03  0.00000000000E+00 0.  1.
         22    1    3    3    0    0 -0.41458837975E+02 -0.17285442643E+02 -0.53741677371E+02  0.70041342508E+02  0.00000000000E+00 0.  1.
</event>
<event>
 7    1  0.6273950E-006  0.7319276E+02  0.7818608E-02  0.1358262E+00
          2   -1    0    0  502    0  0.00000000000E+00  0.00000000000E+00  0.31726640217E+03  0.31726640217E+03  0.00000000000E+00 0. -1.
          1   -1    0    0  501    0 -0.00000000000E+00 -0.00000000000E+00 -0.28249983988E+04  0.28249983988E+04  0.00000000000E+00 0. -1.
         25    2    1    2    0    0  0.18702371155E+02 -0.66764435817E+01 -0.39623605272E+02  0.13262950462E+03  0.12500480717E+03 0.  0.
          2    1    1    2  501    0  0.74387647508E+00 -0.67981629220E+02 -0.27329449492E+04  0.27337904365E+04  0.00000000000E+00 0. -1.
          1    1    1    2  502    0 -0.19446247630E+02  0.74658072802E+02  0.26483655780E+03  0.27584485989E+03  0.00000000000E+00 0. -1.
         22    1    3    3    0    0  0.24834149501E+02 -0.78704169171E+01  0.42726766567E+02  0.50042532162E+02  0.00000000000E+00 0. -1.
         22    1    3    3    0    0 -0.61317783467E+01  0.11939733353E+01 -0.82350371839E+02  0.82586972460E+02  0.00000000000E+00 0. -1.
</event>
<event>
 7    1  0.6273950E-006  0.1080897E+03  0.7818608E-02  0.1438776E+00
          2   -1    0    0  502    0  0.00000000000E+00  0.00000000000E+00  0.12126278529E+04  0.12126278529E+04  0.00000000000E+00 0. -1.
          1   -1    0    0  501    0 -0.00000000000E+00 -0.00000000000E+00 -0.25600296208E+03  0.25600296208E+03  0.00000000000E+00 0. -1.
         25    2    1    2    0    0 -0.85063541452E+01  0.90405483832E+02  0.36336830188E+03  0.39485042423E+03  0.12499930052E+03 0.  0.
          2    1    1    2  501    0  0.10416459324E+02  0.21941587572E+02 -0.23584856873E+03  0.23709593683E+03  0.00000000000E+00 0. -1.
          1    1    1    2  502    0 -0.19101051792E+01 -0.11234707140E+03  0.82910515766E+03  0.83668445391E+03  0.00000000000E+00 0. -1.
         22    1    3    3    0    0  0.19261078739E+02  0.78443016212E+02  0.35414607807E+03  0.36324060973E+03  0.00000000000E+00 0. -1.
         22    1    3    3    0    0 -0.27767432884E+02  0.11962467620E+02  0.92222238174E+01  0.31609814499E+02  0.00000000000E+00 0. -1.
</event>
<event>
 7    1  0.6273950E-006  0.9493756E+02  0.7818608E-02  0.1335726E+00
          2   -1    0    0  502    0  0.00000000000E+00  0.00000000000E+00  0.17069204560E+04  0.17069204560E+04  0.00000000000E+00 0. -1.
          1   -1    0    0  501    0 -0.00000000000E+00 -0.00000000000E+00 -0.10767483034E+03  0.10767483034E+03  0.00000000000E+00 0. -1.
         25    2    1    2    0    0 -0.10113891648E+03 -0.41425545026E+02  0.10131058648E+03  0.19449401570E+03  0.12497572166E+03 0.  0.
          2    1    1    2  501    0  0.92844216591E+02 -0.21613248058E+02 -0.22818029740E+02  0.98019607871E+02  0.00000000000E+00 0. -1.
          1    1    1    2  502    0  0.82946998925E+01  0.63038793083E+02  0.15207530689E+04  0.15220816628E+04  0.00000000000E+00 0. -1.
         22    1    3    3    0    0 -0.11609951455E+03 -0.30135965410E+02  0.11882702413E+03  0.16884056193E+03  0.00000000000E+00 0.  1.
         22    1    3    3    0    0  0.14960598064E+02 -0.11289579615E+02 -0.17516437655E+02  0.25653453772E+02  0.00000000000E+00 0.  1.
</event>
<event>
 7    1  0.6273950E-006  0.1090860E+03  0.7818608E-02  0.1358075E+00
          2   -1    0    0  502    0  0.00000000000E+00  0.00000000000E+00  0.13580712435E+03  0.13580712435E+03  0.00000000000E+00 0. -1.
          1   -1    0    0  501    0 -0.00000000000E+00 -0.00000000000E+00 -0.68654010805E+03  0.68654010805E+03  0.00000000000E+00 0. -1.
         25    2    1    2    0    0  0.11740324645E+02  0.80093876458E+02 -0.87651035879E+02  0.17280581158E+03  0.12500512052E+03 0.  0.
          2    1    1    2  501    0  0.21465994560E+02 -0.11147404152E+03 -0.54448502981E+03  0.55619349020E+03  0.00000000000E+00 0. -1.
          1    1    1    2  502    0 -0.33206319204E+02  0.31380165061E+02  0.81403081983E+02  0.93347930618E+02  0.00000000000E+00 0. -1.
         22    1    3    3    0    0  0.48420357841E+02  0.79980172987E+02 -0.97236680436E+02  0.13489377727E+03  0.00000000000E+00 0.  1.
         22    1    3    3    0    0 -0.36680033196E+02  0.11370347012E+00  0.95856445568E+01  0.37912034307E+02  0.00000000000E+00 0.  1.
</event>
<event>
 7    1  0.6273950E-006  0.1133785E+03  0.7818608E-02  0.1274488E+00
          2   -1    0    0  502    0  0.00000000000E+00  0.00000000000E+00  0.23279508737E+04  0.23279508737E+04  0.00000000000E+00 0. -1.
          1   -1    0    0  501    0 -0.00000000000E+00 -0.00000000000E+00 -0.12404185401E+04  0.12404185401E+04  0.00000000000E+00 0. -1.
         25    2    1    2    0    0  0.63763561403E+02  0.14310547477E+03  0.11516904805E+03  0.23115817389E+03  0.12500089221E+03 0.  0.
          2    1    1    2  501    0  0.23643785793E+02 -0.11066454012E+03 -0.11787043841E+04  0.11841240197E+04  0.00000000000E+00 0. -1.
          1    1    1    2  502    0 -0.87407347196E+02 -0.32440934658E+02  0.21510676696E+04  0.21530872202E+04  0.00000000000E+00 0. -1.
         22    1    3    3    0    0  0.46813097265E+02  0.12047546346E+03  0.14211506657E+03  0.19210022258E+03  0.00000000000E+00 0.  1.
         22    1    3    3    0    0  0.16950464138E+02  0.22630011310E+02 -0.26946018514E+02  0.39057951305E+02  0.00000000000E+00 0.  1.
</event>
<event>
 7    1  0.6273950E-006  0.4166866E+02  0.7818608E-02  0.1534427E+00
          2   -1    0    0  502    0  0.00000000000E+00  0.00000000000E+00  0.37053173078E+04  0.37053173078E+04  0.00000000000E+00 0. -1.
          1   -1    0    0  501    0 -0.00000000000E+00 -0.00000000000E+00 -0.19788761411E+02  0.19788761411E+02  0.00000000000E+00 0. -1.
         25    2    1    2    0    0  0.58722009383E+02  0.44061088966E+02  0.18096201942E+04  0.18154170314E+04  0.12499638645E+03 0.  0.
          2    1    1    2  501    0 -0.32197526784E+02 -0.25745126856E+02  0.86124256491E+01  0.42114916163E+02  0.00000000000E+00 0. -1.
          1    1    1    2  502    0 -0.26524482599E+02 -0.18315962110E+02  0.18672959265E+04  0.18675741216E+04  0.00000000000E+00 0. -1.
         22    1    3    3    0    0  0.73215054301E+02 -0.11670816957E+02  0.62223903371E+03  0.62664030130E+03  0.00000000000E+00 0.  1.
         22    1    3    3    0    0 -0.14493044918E+02  0.55731905923E+02  0.11873811605E+04  0.11887767301E+04  0.00000000000E+00 0.  1.
</event>
<event>
 7    1  0.6273950E-006  0.9541169E+02  0.7818608E-02  0.1336681E+00
          2   -1    0    0  502    0  0.00000000000E+00  0.00000000000E+00  0.17064483646E+03  0.17064483646E+03  0.00000000000E+00 0. -1.
          1   -1    0    0  501    0 -0.00000000000E+00 -0.00000000000E+00 -0.13708478648E+04  0.13708478648E+04  0.00000000000E+00 0. -1.
         25    2    1    2    0    0  0.11478611646E+03 -0.83773950588E+02 -0.16652836622E+03  0.25209208063E+03  0.12499917212E+03 0.  0.
          2    1    1    2  501    0 -0.52337880981E+02  0.77708570589E+02 -0.11518224870E+04  0.11556266340E+04  0.00000000000E+00 0. -1.
          1    1    1    2  502    0 -0.62448235480E+02  0.60653799995E+01  0.11814782491E+03  0.13377398656E+03  0.00000000000E+00 0. -1.
         22    1    3    3    0    0  0.70632565016E+02 -0.11435995750E+03 -0.10610725267E+03  0.17124808959E+03  0.00000000000E+00 0.  1.
         22    1    3    3    0    0  0.44153551446E+02  0.30586006912E+02 -0.60421113553E+02  0.80843991039E+02  0.00000000000E+00 0.  1.
</event>
<event>
 7    1  0.6273950E-006  0.1210490E+03  0.7818608E-02  0.1403483E+00
          2   -1    0    0  502    0  0.00000000000E+00  0.00000000000E+00  0.87556383256E+03  0.87556383256E+03  0.00000000000E+00 0. -1.
          1   -1    0    0  501    0 -0.00000000000E+00 -0.00000000000E+00 -0.67713473851E+03  0.67713473851E+03  0.00000000000E+00 0. -1.
         25    2    1    2    0    0 -0.45886324880E+02 -0.81513827436E+02 -0.11096558195E+03  0.19154329629E+03  0.12500166040E+03 0.  0.
          2    1    1    2  501    0 -0.16499617940E+02 -0.23164212335E+02 -0.52104595553E+03  0.52182152687E+03  0.00000000000E+00 0. -1.
          1    1    1    2  502    0  0.62385942820E+02  0.10467803977E+03  0.83044063154E+03  0.83933374791E+03  0.00000000000E+00 0. -1.
         22    1    3    3    0    0 -0.52613243675E+02 -0.27451765567E+02  0.87771839836E+01  0.59989930833E+02  0.00000000000E+00 0. -1.
         22    1    3    3    0    0  0.67269187947E+01 -0.54062061870E+02 -0.11974276593E+03  0.13155336546E+03  0.00000000000E+00 0. -1.
</event>
<event>
 7    1  0.6273950E-006  0.9668278E+02  0.7818608E-02  0.1410698E+00
          2   -1    0    0  502    0  0.00000000000E+00  0.00000000000E+00  0.55217840751E+03  0.55217840751E+03  0.00000000000E+00 0. -1.
          1   -1    0    0  501    0 -0.00000000000E+00 -0.00000000000E+00 -0.69509886265E+02  0.69509886265E+02  0.00000000000E+00 0. -1.
         25    2    1    2    0    0 -0.44091977768E+02  0.11654831627E+03  0.23228692223E+03  0.29173468578E+03  0.12499720044E+03 0.  0.
          2    1    1    2  501    0  0.31562255508E+02 -0.85318114756E+02  0.15022353467E+02  0.92201018334E+02  0.00000000000E+00 0. -1.
          1    1    1    2  502    0  0.12529722260E+02 -0.31230201516E+02  0.23535924555E+03  0.23775258966E+03  0.00000000000E+00 0. -1.
         22    1    3    3    0    0 -0.71521684705E+02  0.54502809277E+02  0.64238279493E+02  0.11051001834E+03  0.00000000000E+00 0.  1.
         22    1    3    3    0    0  0.27429706937E+02  0.62045506995E+02  0.16804864274E+03  0.18122466744E+03  0.00000000000E+00 0.  1.
</event>
<event>
 7    1  0.6273950E-006  0.7360569E+02  0.7818608E-02  0.1389162E+00
          2   -1    0    0  502    0  0.00000000000E+00  0.00000000000E+00  0.26133059605E+04  0.26133059605E+04  0.00000000000E+00 0. -1.
          1   -1    0    0  501    0 -0.00000000000E+00 -0.00000000000E+00 -0.54731411014E+02  0.54731411014E+02  0.00000000000E+00 0. -1.
         25    2    1    2    0    0  0.54265141271E+02  0.38409376568E+02  0.18158176994E+03  0.23024049735E+03  0.12497504423E+03 0.  0.
          2    1    1    2  501    0  0.19203965140E+02 -0.48774797866E+02 -0.67922381947E+01  0.52857427895E+02  0.00000000000E+00 0. -1.
          1    1    1    2  502    0 -0.73469106411E+02  0.10365421297E+02  0.23837850177E+04  0.23849394462E+04  0.00000000000E+00 0. -1.
         22    1    3    3    0    0 -0.12088462793E+02  0.52178758941E+02  0.14198845903E+03  0.15175465830E+03  0.00000000000E+00 0. -1.
         22    1    3    3    0    0  0.66353604065E+02 -0.13769382373E+02  0.39593310912E+02  0.78485839056E+02  0.00000000000E+00 0. -1.
</event>
<event>
 7    1  0.6273950E-006  0.3320910E+02  0.7818608E-02  0.1565875E+00
          2   -1    0    0  502    0  0.00000000000E+00  0.00000000000E+00  0.18866063347E+03  0.18866063347E+03  0.00000000000E+00 0. -1.
          1   -1    0    0  501    0 -0.00000000000E+00 -0.00000000000E+00 -0.17936186106E+03  0.17936186106E+03  0.00000000000E+00 0. -1.
         25    2    1    2    0    0  0.15210052615E+02 -0.37631519608E+02 -0.89700625122E+02  0.15909842864E+03  0.12497452092E+03 0.  0.
          2    1    1    2  501    0 -0.32659763747E+02  0.93763991503E+01 -0.47670780123E+02  0.58541270114E+02  0.00000000000E+00 0. -1.
          1    1    1    2  502    0  0.17449711132E+02  0.28255120458E+02  0.14667017766E+03  0.15038279578E+03  0.00000000000E+00 0. -1.
         22    1    3    3    0    0 -0.31145469618E+02 -0.51733807586E+02 -0.38375468233E+01  0.60507469710E+02  0.00000000000E+00 0. -1.
         22    1    3    3    0    0  0.46355522233E+02  0.14102287978E+02 -0.85863078299E+02  0.98590958929E+02  0.00000000000E+00 0. -1.
</event>
<event>
 7    1  0.6273950E-006  0.2116204E+03  0.7818608E-02  0.1248771E+00
          2   -1    0    0  502    0  0.00000000000E+00  0.00000000000E+00  0.14788973554E+04  0.14788973554E+04  0.00000000000E+00 0. -1.
          1   -1    0    0  501    0 -0.00000000000E+00 -0.00000000000E+00 -0.76093746920E+03  0.76093746920E+03  0.00000000000E+00 0. -1.
         25    2    1    2    0    0 -0.25333155594E+03 -0.56001572687E+02  0.22185543765E+03  0.36353535070E+03  0.12500025046E+03 0.  0.
          2    1    1    2  501    0  0.19351839103E+03  0.79524928260E+02 -0.67333701665E+03  0.70509312851E+03  0.00000000000E+00 0. -1.
          1    1    1    2  502    0  0.59813164904E+02 -0.23523355573E+02  0.11694414652E+04  0.11712063454E+04  0.00000000000E+00 0. -1.
         22    1    3    3    0    0 -0.28274913810E+02  0.78350101390E+01 -0.12962612910E+02  0.32076275786E+02  0.00000000000E+00 0. -1.
         22    1    3    3    0    0 -0.22505664213E+03 -0.63836582826E+02  0.23481805056E+03  0.33145907491E+03  0.00000000000E+00 0. -1.
</event>
<event>
 7    1  0.6273950E-006  0.1021319E+03  0.7818608E-02  0.1378845E+00
          2   -1    0    0  502    0  0.00000000000E+00  0.00000000000E+00  0.18877560765E+04  0.18877560765E+04  0.00000000000E+00 0. -1.
          1   -1    0    0  501    0 -0.00000000000E+00 -0.00000000000E+00 -0.11807844608E+03  0.11807844608E+03  0.00000000000E+00 0. -1.
         25    2    1    2    0    0  0.10949370008E+03  0.50589866228E+02  0.67103400520E+02  0.18621506085E+03  0.12499991041E+03 0.  0.
          2    1    1    2  501    0 -0.71545607043E+02 -0.66305730469E+02 -0.17458807401E+02  0.99096083354E+02  0.00000000000E+00 0. -1.
          1    1    1    2  502    0 -0.37948093037E+02  0.15715864241E+02  0.17200330373E+04  0.17205233784E+04  0.00000000000E+00 0. -1.
         22    1    3    3    0    0  0.58168884090E+02  0.70059717577E+02 -0.99559068096E+01  0.91602964929E+02  0.00000000000E+00 0. -1.
         22    1    3    3    0    0  0.51324815990E+02 -0.19469851349E+02  0.77059307330E+02  0.94612095919E+02  0.00000000000E+00 0. -1.
</event>
<event>
 7    1  0.6273950E-006  0.1017914E+03  0.7818608E-02  0.1313715E+00
          2   -1    0    0  502    0  0.00000000000E+00  0.00000000000E+00  0.38742555125E+02  0.38742555125E+02  0.00000000000E+00 0. -1.
          1   -1    0    0  501    0 -0.00000000000E+00 -0.00000000000E+00 -0.16143559321E+04  0.16143559321E+04  0.00000000000E+00 0. -1.
         25    2    1    2    0    0  0.30577033511E+02  0.77383572013E+02 -0.35658974671E+03  0.38689976254E+03  0.12494801560E+03 0.  0.
          2    1    1    2  501    0 -0.64387163778E+02  0.32413137231E+02 -0.10941310765E+04  0.10965031376E+04  0.00000000000E+00 0. -1.
          1    1    1    2  502    0  0.33810130267E+02 -0.10979670924E+03 -0.12489255376E+03  0.16969558702E+03  0.00000000000E+00 0. -1.
         22    1    3    3    0    0 -0.47436485006E+01  0.21190593228E+00  0.97567506478E+01  0.10850865791E+02  0.00000000000E+00 0. -1.
         22    1    3    3    0    0  0.35320682011E+02  0.77171666081E+02 -0.36634649735E+03  0.37604889675E+03  0.00000000000E+00 0. -1.
</event>
<event>
 7    1  0.6273950E-006  0.5517805E+02  0.7818608E-02  0.1453501E+00
          2   -1    0    0  502    0  0.00000000000E+00  0.00000000000E+00  0.24689882060E+04  0.24689882060E+04  0.00000000000E+00 0. -1.
          1   -1    0    0  501    0 -0.00000000000E+00 -0.00000000000E+00 -0.10795161166E+04  0.10795161166E+04  0.00000000000E+00 0. -1.
         25    2    1    2    0    0 -0.17169179665E+02  0.82782885381E+01  0.38194587513E+03  0.40233120950E+03  0.12499775923E+03 0.  0.
          2    1    1    2  501    0  0.22052916973E+02 -0.50660381372E+02 -0.10683904113E+04  0.10698181510E+04  0.00000000000E+00 0. -1.
          1    1    1    2  502    0 -0.48837373077E+01  0.42382092834E+02  0.20759166255E+04  0.20763549622E+04  0.00000000000E+00 0. -1.
         22    1    3    3    0    0  0.71209275366E+01  0.36177029583E+02  0.35414114648E+03  0.35605538432E+03  0.00000000000E+00 0. -1.
         22    1    3    3    0    0 -0.24290107202E+02 -0.27898741045E+02  0.27804728658E+02  0.46275825174E+02  0.00000000000E+00 0. -1.
</event>
<event>
 7    1  0.6273950E-006  0.4939825E+02  0.7818608E-02  0.1508548E+00
          2   -1    0    0  502    0  0.00000000000E+00  0.00000000000E+00  0.23278297989E+04  0.23278297989E+04  0.00000000000E+00 0. -1.
          1   -1    0    0  501    0 -0.00000000000E+00 -0.00000000000E+00 -0.71406390893E+02  0.71406390893E+02  0.00000000000E+00 0. -1.
         25    2    1    2    0    0 -0.12385593793E+02 -0.69842561015E+02  0.11933561612E+04  0.12019801642E+04  0.12500400556E+03 0.  0.
          2    1    1    2  501    0 -0.11381518214E+02  0.47946440791E+02 -0.57781544889E+02  0.75941471352E+02  0.00000000000E+00 0. -1.
          1    1    1    2  502    0  0.23767112007E+02  0.21896120225E+02  0.11208487917E+04  0.11213145543E+04  0.00000000000E+00 0. -1.
         22    1    3    3    0    0  0.46008624549E+02  0.34458389783E+01  0.53544189483E+03  0.53742598568E+03  0.00000000000E+00 0. -1.
         22    1    3    3    0    0 -0.58394218343E+02 -0.73288399993E+02  0.65791426636E+03  0.66455417852E+03  0.00000000000E+00 0. -1.
</event>
<event>
 7    1  0.6273950E-006  0.1072026E+03  0.7818608E-02  0.1300311E+00
          2   -1    0    0  502    0  0.00000000000E+00  0.00000000000E+00  0.93805262715E+03  0.93805262715E+03  0.00000000000E+00 0. -1.
          1   -1    0    0  501    0 -0.00000000000E+00 -0.00000000000E+00 -0.91738320755E+03  0.91738320755E+03  0.00000000000E+00 0. -1.
         25    2    1    2    0    0  0.23575347310E+02  0.59958639746E+02  0.13968554313E+03  0.19820999033E+03  0.12499725528E+03 0.  0.
          2    1    1    2  501    0  0.77265496912E+02 -0.34800301379E+01 -0.88207691445E+03  0.88546132080E+03  0.00000000000E+00 0. -1.
          1    1    1    2  502    0 -0.10084084422E+03 -0.56478609608E+02  0.76306079092E+03  0.77176452358E+03  0.00000000000E+00 0. -1.
         22    1    3    3    0    0 -0.17975305145E+01  0.87017142597E+02  0.48201216637E+02  0.99491565004E+02  0.00000000000E+00 0. -1.
         22    1    3    3    0    0  0.25372877825E+02 -0.27058502851E+02  0.91484326490E+02  0.98718425327E+02  0.00000000000E+00 0. -1.
</event>
<event>
 7    1  0.6273950E-006  0.1240285E+03  0.7818608E-02  0.1247563E+00
          2   -1    0    0  502    0  0.00000000000E+00  0.00000000000E+00  0.26927171916E+04  0.26927171916E+04  0.00000000000E+00 0. -1.
          1   -1    0    0  501    0 -0.00000000000E+00 -0.00000000000E+00 -0.27521822862E+03  0.27521822862E+03  0.00000000000E+00 0. -1.
         25    2    1    2    0    0  0.78388109325E+02 -0.12211521715E+03 -0.16684895005E+03  0.25399114053E+03  0.12496441650E+03 0.  0.
          2    1    1    2  501    0 -0.12027812204E+03  0.19325134538E+02 -0.52833946038E+01  0.12193523578E+03  0.00000000000E+00 0. -1.
          1    1    1    2  502    0  0.41890012715E+02  0.10279008261E+03  0.25896313076E+04  0.25920090439E+04  0.00000000000E+00 0. -1.
         22    1    3    3    0    0  0.88425154308E+02 -0.11064801277E+03 -0.73821117997E+02  0.15972334866E+03  0.00000000000E+00 0. -1.
         22    1    3    3    0    0 -0.10037044984E+02 -0.11467204380E+02 -0.93027832048E+02  0.94267791869E+02  0.00000000000E+00 0. -1.
</event>
<event>
 7    1  0.6273950E-006  0.5637950E+02  0.7818608E-02  0.1554512E+00
          2   -1    0    0  502    0  0.00000000000E+00  0.00000000000E+00  0.31039213650E+03  0.31039213650E+03  0.00000000000E+00 0. -1.
          1   -1    0    0  501    0 -0.00000000000E+00 -0.00000000000E+00 -0.71755557942E+03  0.71755557942E+03  0.00000000000E+00 0. -1.
         25    2    1    2    0    0  0.27281797098E+02 -0.34310694002E+02  0.61381959160E+02  0.14599662181E+03  0.12500299394E+03 0.  0.
          2    1    1    2  501    0  0.20794390247E+02  0.22875732244E+01 -0.67104631368E+03  0.67137232201E+03  0.00000000000E+00 0. -1.
          1    1    1    2  502    0 -0.48076187345E+02  0.32023120778E+02  0.20250091160E+03  0.21057877209E+03  0.00000000000E+00 0. -1.
         22    1    3    3    0    0 -0.40530497919E+02  0.19217170463E+02  0.11778885287E+02  0.46376319828E+02  0.00000000000E+00 0.  1.
         22    1    3    3    0    0  0.67812295017E+02 -0.53527864465E+02  0.49603073872E+02  0.99620301983E+02  0.00000000000E+00 0.  1.
</event>
<event>
 7    1  0.6273950E-006  0.5344186E+02  0.7818608E-02  0.1465778E+00
          2   -1    0    0  502    0  0.00000000000E+00  0.00000000000E+00  0.16374588384E+04  0.16374588384E+04  0.00000000000E+00 0. -1.
          1   -1    0    0  501    0 -0.00000000000E+00 -0.00000000000E+00 -0.59898007986E+03  0.59898007986E+03  0.00000000000E+00 0. -1.
         25    2    1    2    0    0 -0.34583656601E+02  0.84899004214E+01  0.11877681175E+03  0.17606954768E+03  0.12499778757E+03 0.  0.
          2    1    1    2  501    0  0.24872082824E+02 -0.47590300211E+02 -0.56879660695E+03  0.57132568405E+03  0.00000000000E+00 0. -1.
          1    1    1    2  502    0  0.97115737765E+01  0.39100399789E+02  0.14884985537E+04  0.14890436865E+04  0.00000000000E+00 0. -1.
         22    1    3    3    0    0  0.14075859283E+02 -0.86909856104E+01  0.12317309770E+03  0.12427902093E+03  0.00000000000E+00 0.  1.
         22    1    3    3    0    0 -0.48659515884E+02  0.17180886032E+02 -0.43962859503E+01  0.51790526750E+02  0.00000000000E+00 0.  1.
</event>
<event>
 7    1  0.6273950E-006  0.1466112E+03  0.7818608E-02  0.1365053E+00
          2   -1    0    0  502    0  0.00000000000E+00  0.00000000000E+00  0.16785606054E+04  0.16785606054E+04  0.00000000000E+00 0. -1.
          1   -1    0    0  501    0 -0.00000000000E+00 -0.00000000000E+00 -0.51302489820E+03  0.51302489820E+03  0.00000000000E+00 0. -1.
         25    2    1    2    0    0  0.41023789931E+02 -0.10855309646E+03  0.18208901511E+02  0.17152985801E+03  0.12499680797E+03 0.  0.
          2    1    1    2  501    0  0.14179223977E+02 -0.28756935100E+02 -0.43231211694E+03  0.43349945578E+03  0.00000000000E+00 0. -1.
          1    1    1    2  502    0 -0.55203013908E+02  0.13731003156E+03  0.15796389226E+04  0.15865561898E+04  0.00000000000E+00 0. -1.
         22    1    3    3    0    0  0.94891052025E+01 -0.11678280235E+03 -0.22575994148E+02  0.11932284590E+03  0.00000000000E+00 0. -1.
         22    1    3    3    0    0  0.31534684728E+02  0.82297058845E+01  0.40784895659E+02  0.52207012113E+02  0.00000000000E+00 0. -1.
</event>
<event>
 7    1  0.6273950E-006  0.1401414E+03  0.7818608E-02  0.1325222E+00
          2   -1    0    0  502    0  0.00000000000E+00  0.00000000000E+00  0.34989853821E+03  0.34989853821E+03  0.00000000000E+00 0. -1.
          1   -1    0    0  501    0 -0.00000000000E+00 -0.00000000000E+00 -0.53345838046E+03  0.53345838046E+03  0.00000000000E+00 0. -1.
         25    2    1    2    0    0  0.76696906759E+02  0.78354982621E+02  0.64318904615E+02  0.17827950518E+03  0.12499896668E+03 0.  0.
          2    1    1    2  501    0  0.43330912715E+02  0.18815575292E+02 -0.44901543215E+03  0.45149357933E+03  0.00000000000E+00 0. -1.
          1    1    1    2  502    0 -0.12002781947E+03 -0.97170557914E+02  0.20113668529E+03  0.25358383415E+03  0.00000000000E+00 0. -1.
         22    1    3    3    0    0  0.10043796130E+03  0.25696127109E+02  0.61294616397E+02  0.12043714135E+03  0.00000000000E+00 0. -1.
         22    1    3    3    0    0 -0.23741054538E+02  0.52658855513E+02  0.30242882183E+01  0.57842363832E+02  0.00000000000E+00 0. -1.
</event>
<event>
 7    1  0.6273950E-006  0.9273687E+02  0.7818608E-02  0.1422945E+00
          2   -1    0    0  502    0  0.00000000000E+00  0.00000000000E+00  0.17669873528E+04  0.17669873528E+04  0.00000000000E+00 0. -1.
          1   -1    0    0  501    0 -0.00000000000E+00 -0.00000000000E+00 -0.99437538267E+02  0.99437538267E+02  0.00000000000E+00 0. -1.
         25    2    1    2    0    0 -0.74962599414E+02 -0.17126262103E+02  0.97863406927E+03  0.98957650799E+03  0.12499729386E+03 0.  0.
          2    1    1    2  501    0 -0.28314312173E+02  0.14725411652E+02 -0.87733942507E+02  0.93358356294E+02  0.00000000000E+00 0. -1.
          1    1    1    2  502    0  0.10327691159E+03  0.24008504519E+01  0.77664968776E+03  0.78349002677E+03  0.00000000000E+00 0. -1.
         22    1    3    3    0    0 -0.99976235742E+02 -0.22506250445E+02  0.50722670042E+03  0.51747531790E+03  0.00000000000E+00 0. -1.
         22    1    3    3    0    0  0.25013636327E+02  0.53799883411E+01  0.47140736885E+03  0.47210119009E+03  0.00000000000E+00 0. -1.
</event>
<event>
 7    1  0.6273950E-006  0.1266502E+03  0.7818608E-02  0.1279973E+00
          2   -1    0    0  502    0  0.00000000000E+00  0.00000000000E+00  0.87976505336E+03  0.87976505336E+03  0.00000000000E+00 0. -1.
          1   -1    0    0  501    0 -0.00000000000E+00 -0.00000000000E+00 -0.62302433231E+03  0.62302433231E+03  0.00000000000E+00 0. -1.
         25    2    1    2    0    0 -0.47300190883E+02 -0.29810536637E+02  0.90214152228E+02  0.16398408138E+03  0.12500483803E+03 0.  0.
          2    1    1    2  501    0  0.12639259865E+03  0.33944231825E+02 -0.57670393280E+03  0.59136682861E+03  0.00000000000E+00 0. -1.
          1    1    1    2  502    0 -0.79092407772E+02 -0.41336951874E+01  0.74323050162E+03  0.74743847569E+03  0.00000000000E+00 0. -1.
         22    1    3    3    0    0 -0.80172026658E+02 -0.44799999159E+02  0.88919170770E+02  0.12783275290E+03  0.00000000000E+00 0. -1.
         22    1    3    3    0    0  0.32871835775E+02  0.14989462522E+02  0.12949814579E+01  0.36151328480E+02  0.00000000000E+00 0. -1.
</event>
<event>
 7    1  0.6273950E-006  0.3925298E+02  0.7818608E-02  0.1616827E+00
          2   -1    0    0  502    0  0.00000000000E+00  0.00000000000E+00  0.12297950490E+04  0.12297950490E+04  0.00000000000E+00 0. -1.
          1   -1    0    0  501    0 -0.00000000000E+00 -0.00000000000E+00 -0.55308183495E+03  0.55308183495E+03  0.00000000000E+00 0. -1.
         25    2    1    2    0    0  0.48786858030E+02 -0.32786842427E+02  0.33089570777E+03  0.35857023794E+03  0.12500204624E+03 0.  0.
          2    1    1    2  501    0 -0.15013620193E+02  0.13966900472E+02 -0.53862714673E+03  0.53901733395E+03  0.00000000000E+00 0. -1.
          1    1    1    2  502    0 -0.33773237837E+02  0.18819941955E+02  0.88444465297E+03  0.88528931202E+03  0.00000000000E+00 0. -1.
         22    1    3    3    0    0 -0.34253819260E+02  0.11378673815E+02  0.15456139512E+03  0.15871995216E+03  0.00000000000E+00 0. -1.
         22    1    3    3    0    0  0.83040677290E+02 -0.44165516242E+02  0.17633431265E+03  0.19985028578E+03  0.00000000000E+00 0. -1.
</event>
<event>
 7    1  0.6273950E-006  0.7438350E+02  0.7818608E-02  0.1353764E+00
          2   -1    0    0  502    0  0.00000000000E+00  0.00000000000E+00  0.42501833040E+03  0.42501833040E+03  0.00000000000E+00 0. -1.
          1   -1    0    0  501    0 -0.00000000000E+00 -0.00000000000E+00 -0.10458198745E+04  0.10458198745E+04  0.00000000000E+00 0. -1.
         25    2    1    2    0    0 -0.19765903755E+02 -0.39308782677E+02 -0.18976919477E+03  0.23146069327E+03  0.12500333556E+03 0.  0.
          2    1    1    2  501    0  0.79040271655E+02  0.30399720165E+01 -0.83032455618E+03  0.83408361365E+03  0.00000000000E+00 0. -1.
          1    1    1    2  502    0 -0.59274367900E+02  0.36268810661E+02  0.39929220682E+03  0.40529389799E+03  0.00000000000E+00 0. -1.
         22    1    3    3    0    0 -0.11112230529E+02 -0.12988562147E+02  0.16251148154E+02  0.23585678500E+02  0.00000000000E+00 0.  1.
         22    1    3    3    0    0 -0.86536732266E+01 -0.26320220531E+02 -0.20602034292E+03  0.20787501477E+03  0.00000000000E+00 0.  1.
</event>
<event>
 7    1  0.6273950E-006  0.2376962E+03  0.7818608E-02  0.1242747E+00
          2   -1    0    0  502    0  0.00000000000E+00  0.00000000000E+00  0.17311460716E+04  0.17311460716E+04  0.00000000000E+00 0. -1.
          1   -1    0    0  501    0 -0.00000000000E+00 -0.00000000000E+00 -0.30154208143E+03  0.30154208143E+03  0.00000000000E+00 0. -1.
         25    2    1    2    0    0 -0.11329059459E+03 -0.23243556691E+03 -0.24459797231E+01  0.28721442711E+03  0.12500037095E+03 0.  0.
          2    1    1    2  501    0  0.14130336550E+03  0.17847768248E+03 -0.73104105424E+02  0.23909231371E+03  0.00000000000E+00 0. -1.
          1    1    1    2  502    0 -0.28012770908E+02  0.53957884423E+02  0.15051540753E+04  0.15063814122E+04  0.00000000000E+00 0. -1.
         22    1    3    3    0    0 -0.51298335112E+02 -0.20431004336E+03 -0.31878333936E+02  0.21305009077E+03  0.00000000000E+00 0. -1.
         22    1    3    3    0    0 -0.61992259476E+02 -0.28125523546E+02  0.29432354213E+02  0.74164336336E+02  0.00000000000E+00 0. -1.
</event>
<event>
 7    1  0.6273950E-006  0.1365331E+03  0.7818608E-02  0.1295752E+00
          2   -1    0    0  502    0  0.00000000000E+00  0.00000000000E+00  0.14859988479E+04  0.14859988479E+04  0.00000000000E+00 0. -1.
          1   -1    0    0  501    0 -0.00000000000E+00 -0.00000000000E+00 -0.71302204538E+03  0.71302204538E+03  0.00000000000E+00 0. -1.
         25    2    1    2    0    0 -0.66156504299E+02 -0.72952849757E+02 -0.58465786933E+02  0.16953346806E+03  0.12499818880E+03 0.  0.
          2    1    1    2  501    0  0.12873800720E+03  0.63157868692E+02 -0.58972517894E+03  0.60690870611E+03  0.00000000000E+00 0. -1.
          1    1    1    2  502    0 -0.62581502903E+02  0.97949810653E+01  0.14211677684E+04  0.14225787191E+04  0.00000000000E+00 0. -1.
         22    1    3    3    0    0 -0.69411428387E+02 -0.31383502881E+02 -0.89519202042E+02  0.11754385640E+03  0.00000000000E+00 0. -1.
         22    1    3    3    0    0  0.32549240876E+01 -0.41569346876E+02  0.31053415109E+02  0.51989611659E+02  0.00000000000E+00 0. -1.
</event>
<event>
 7    1  0.6273950E-006  0.8817339E+02  0.7818608E-02  0.1389965E+00
          2   -1    0    0  502    0  0.00000000000E+00  0.00000000000E+00  0.12645891826E+04  0.12645891826E+04  0.00000000000E+00 0. -1.
          1   -1    0    0  501    0 -0.00000000000E+00 -0.00000000000E+00 -0.18832235146E+03  0.18832235146E+03  0.00000000000E+00 0. -1.
         25    2    1    2    0    0  0.89540880102E+02  0.39119981706E+02 -0.43814409574E+02  0.16459751353E+03  0.12499878718E+03 0.  0.
          2    1    1    2  501    0 -0.56100449996E+02 -0.66904862013E+02 -0.60950482115E+02  0.10648230990E+03  0.00000000000E+00 0. -1.
          1    1    1    2  502    0 -0.33440430106E+02  0.27784880307E+02  0.11810317228E+04  0.11818317106E+04  0.00000000000E+00 0. -1.
         22    1    3    3    0    0  0.42172305193E+01  0.65546106545E+02 -0.36085289865E+02  0.74941478909E+02  0.00000000000E+00 0.  1.
         22    1    3    3    0    0  0.85323649583E+02 -0.26426124839E+02 -0.77291197089E+01  0.89656034619E+02  0.00000000000E+00 0.  1.
</event>
<event>
 7    1  0.6273950E-006  0.6857770E+02  0.7818608E-02  0.1384918E+00
          2   -1    0    0  502    0  0.00000000000E+00  0.00000000000E+00  0.11866177827E+04  0.11866177827E+04  0.00000000000E+00 0. -1.
          1   -1    0    0  501    0 -0.00000000000E+00 -0.00000000000E+00 -0.26622563325E+03  0.26622563325E+03  0.00000000000E+00 0. -1.
         25    2    1    2    0    0  0.26408376373E+02 -0.68271256112E+02  0.23414378542E+03  0.27532999549E+03  0.12499970966E+03 0.  0.
          2    1    1    2  501    0 -0.57908033251E+02  0.60483147866E+01 -0.24085409348E+03  0.24779147841E+03  0.00000000000E+00 0. -1.
          1    1    1    2  502    0  0.31499656879E+02  0.62222941325E+02  0.92710245748E+03  0.92972194202E+03  0.00000000000E+00 0. -1.
         22    1    3    3    0    0 -0.19876300857E+02 -0.16065158026E+01 -0.68130964669E+01  0.21072885713E+02  0.00000000000E+00 0. -1.
         22    1    3    3    0    0  0.46284677230E+02 -0.66664740309E+02  0.24095688188E+03  0.25425710978E+03  0.00000000000E+00 0. -1.
</event>
<event>
 7    1  0.6273950E-006  0.1709460E+03  0.7818608E-02  0.1245088E+00
          2   -1    0    0  502    0  0.00000000000E+00  0.00000000000E+00  0.29072188570E+04  0.29072188570E+04  0.00000000000E+00 0. -1.
          1   -1    0    0  501    0 -0.00000000000E+00 -0.00000000000E+00 -0.15819211178E+04  0.15819211178E+04  0.00000000000E+00 0. -1.
         25    2    1    2    0    0  0.11810404586E+03  0.89301141053E+02 -0.55642142207E+03  0.58919667307E+03  0.12499864469E+03 0.  0.
          2    1    1    2  501    0 -0.88551562569E+02 -0.16639322843E+03 -0.99971379322E+03  0.10173277515E+04  0.00000000000E+00 0. -1.
          1    1    1    2  502    0 -0.29552483295E+02  0.77092087382E+02  0.28814329545E+04  0.28826155502E+04  0.00000000000E+00 0. -1.
         22    1    3    3    0    0  0.87838830129E+02  0.41258991081E+02 -0.49934297155E+03  0.50868592241E+03  0.00000000000E+00 0.  1.
         22    1    3    3    0    0  0.30265215735E+02  0.48042149972E+02 -0.57078450518E+02  0.80510750655E+02  0.00000000000E+00 0.  1.
</event>
<event>
 7    1  0.6273950E-006  0.1264723E+03  0.7818608E-02  0.1355590E+00
          2   -1    0    0  502    0  0.00000000000E+00  0.00000000000E+00  0.10703984043E+04  0.10703984043E+04  0.00000000000E+00 0. -1.
          1   -1    0    0  501    0 -0.00000000000E+00 -0.00000000000E+00 -0.64359583475E+03  0.64359583475E+03  0.00000000000E+00 0. -1.
         25    2    1    2    0    0  0.77104686605E+02 -0.13150168597E+03  0.59863331876E+03  0.63025686443E+03  0.12499615483E+03 0.  0.
          2    1    1    2  501    0 -0.86140265212E+02  0.92286323276E+02 -0.62052793161E+03  0.63323915282E+03  0.00000000000E+00 0. -1.
          1    1    1    2  502    0  0.90355786069E+01  0.39215362693E+02  0.44869718236E+03  0.45049822176E+03  0.00000000000E+00 0. -1.
         22    1    3    3    0    0  0.10729006642E+03 -0.11926322117E+03  0.53826488085E+03  0.56166178100E+03  0.00000000000E+00 0.  1.
         22    1    3    3    0    0 -0.30185379820E+02 -0.12238464794E+02  0.60368437915E+02  0.68595083437E+02  0.00000000000E+00 0.  1.
</event>
<event>
 7    1  0.6273950E-006  0.1061557E+03  0.7818608E-02  0.1404782E+00
          2   -1    0    0  502    0  0.00000000000E+00  0.00000000000E+00  0.55236220525E+03  0.55236220525E+03  0.00000000000E+00 0. -1.
          1   -1    0    0  501    0 -0.00000000000E+00 -0.00000000000E+00 -0.87624560603E+03  0.87624560603E+03  0.00000000000E+00 0. -1.
         25    2    1    2    0    0 -0.98949930806E+01 -0.75024701966E+02  0.27605451492E+02  0.14870797464E+03  0.12500153589E+03 0.  0.
          2    1    1    2  501    0  0.81195553876E+01  0.10707560226E+03 -0.81159858652E+03  0.81867171529E+03  0.00000000000E+00 0. -1.
          1    1    1    2  502    0  0.17754376930E+01 -0.32050900297E+02  0.46010973424E+03  0.46122812136E+03  0.00000000000E+00 0. -1.
         22    1    3    3    0    0  0.53974078185E+02 -0.48969302697E+02  0.31989074389E+02  0.79589538275E+02  0.00000000000E+00 0.  1.
         22    1    3    3    0    0 -0.63869071266E+02 -0.26055399269E+02 -0.43836228970E+01  0.69118436362E+02  0.00000000000E+00 0.  1.
</event>
<event>
 7    1  0.6273950E-006  0.1449516E+03  0.7818608E-02  0.1283889E+00
          2   -1    0    0  502    0  0.00000000000E+00  0.00000000000E+00  0.26997601487E+04  0.26997601487E+04  0.00000000000E+00 0. -1.
          1   -1    0    0  501    0 -0.00000000000E+00 -0.00000000000E+00 -0.73462246733E+03  0.73462246733E+03  0.00000000000E+00 0. -1.
         25    2    1    2    0    0  0.21032705958E+02  0.20352247878E+03  0.31678912046E+02  0.24184733335E+03  0.12499122005E+03 0.  0.
          2    1    1    2  501    0  0.35038303040E+01 -0.14152385473E+03 -0.62113902089E+03  0.63706747018E+03  0.00000000000E+00 0. -1.
          1    1    1    2  502    0 -0.24536536262E+02 -0.61998624052E+02  0.25545977902E+04  0.25554678125E+04  0.00000000000E+00 0. -1.
         22    1    3    3    0    0  0.40134654940E+02  0.32949938496E+02  0.46320677476E+02  0.69585157440E+02  0.00000000000E+00 0. -1.
         22    1    3    3    0    0 -0.19101948982E+02  0.17057254028E+03 -0.14641765430E+02  0.17226217591E+03  0.00000000000E+00 0. -1.
</event>
<event>
 7    1  0.6273950E-006  0.3037717E+02  0.7818608E-02  0.1615530E+00
          2   -1    0    0  502    0  0.00000000000E+00  0.00000000000E+00  0.80684635145E+03  0.80684635145E+03  0.00000000000E+00 0. -1.
          1   -1    0    0  501    0 -0.00000000000E+00 -0.00000000000E+00 -0.24832112387E+02  0.24832112387E+02  0.00000000000E+00 0. -1.
         25    2    1    2    0    0 -0.18851063637E+02  0.53138698413E+02  0.53114977197E+03  0.54856531217E+03  0.12499895033E+03 0.  0.
          2    1    1    2  501    0  0.10309373455E+02 -0.27841433504E+02 -0.11278044970E+01  0.29710276734E+02  0.00000000000E+00 0. -1.
          1    1    1    2  502    0  0.85416901816E+01 -0.25297264909E+02  0.25199227158E+03  0.25340287493E+03  0.00000000000E+00 0. -1.
         22    1    3    3    0    0 -0.38830827188E+02  0.44238488933E+02  0.52123911579E+03  0.52455227850E+03  0.00000000000E+00 0. -1.
         22    1    3    3    0    0  0.19979763551E+02  0.89002094802E+01  0.99106561781E+01  0.24013033674E+02  0.00000000000E+00 0. -1.
</event>
<event>
 7    1  0.6273950E-006  0.7899546E+02  0.7818608E-02  0.1377856E+00
          2   -1    0    0  502    0  0.00000000000E+00  0.00000000000E+00  0.53936103975E+03  0.53936103975E+03  0.00000000000E+00 0. -1.
          1   -1    0    0  501    0 -0.00000000000E+00 -0.00000000000E+00 -0.95197464034E+02  0.95197464034E+02  0.00000000000E+00 0. -1.
         25    2    1    2    0    0 -0.46649076156E+02 -0.26271429602E+02  0.41764288778E+03  0.43922286781E+03  0.12499928629E+03 0.  0.
          2    1    1    2  501    0  0.27261607146E+02  0.76172176097E+02 -0.54985624108E+02  0.97820317389E+02  0.00000000000E+00 0. -1.
          1    1    1    2  502    0  0.19387469009E+02 -0.49900746495E+02  0.81506312036E+02  0.97515318576E+02  0.00000000000E+00 0. -1.
         22    1    3    3    0    0 -0.10297098619E+02  0.39951403181E+02  0.54772992147E+02  0.68572775392E+02  0.00000000000E+00 0. -1.
         22    1    3    3    0    0 -0.36351977536E+02 -0.66222832783E+02  0.36286989564E+03  0.37065009242E+03  0.00000000000E+00 0. -1.
</event>
<event>
 7    1  0.6273950E-006  0.1102336E+03  0.7818608E-02  0.1400292E+00
          2   -1    0    0  502    0  0.00000000000E+00  0.00000000000E+00  0.12112299482E+04  0.12112299482E+04  0.00000000000E+00 0. -1.
          1   -1    0    0  501    0 -0.00000000000E+00 -0.00000000000E+00 -0.27531148524E+03  0.27531148524E+03  0.00000000000E+00 0. -1.
         25    2    1    2    0    0  0.30039818277E+02 -0.13190403828E+03 -0.36205956959E+02  0.18771661995E+03  0.12500236834E+03 0.  0.
          2    1    1    2  501    0 -0.31476672442E+02  0.99909303988E+02 -0.14630422734E+03  0.17993770274E+03  0.00000000000E+00 0. -1.
          1    1    1    2  502    0  0.14368541646E+01  0.31994734295E+02  0.11184286472E+04  0.11188871107E+04  0.00000000000E+00 0. -1.
         22    1    3    3    0    0 -0.19798349136E+02  0.17535624328E+02 -0.84063978767E+01  0.27751401304E+02  0.00000000000E+00 0. -1.
         22    1    3    3    0    0  0.49838167413E+02 -0.14943966261E+03 -0.27799559082E+02  0.15996521865E+03  0.00000000000E+00 0. -1.
</event>
<event>
 7    1  0.6273950E-006  0.1470714E+03  0.7818608E-02  0.1293728E+00
          2   -1    0    0  502    0  0.00000000000E+00  0.00000000000E+00  0.62439445982E+03  0.62439445982E+03  0.00000000000E+00 0. -1.
          1   -1    0    0  501    0 -0.00000000000E+00 -0.00000000000E+00 -0.10210745708E+03  0.10210745708E+03  0.00000000000E+00 0. -1.
         25    2    1    2    0    0 -0.31493049546E+02 -0.12774390539E+03  0.92893945578E+02  0.20387514257E+03  0.12500188438E+03 0.  0.
          2    1    1    2  501    0  0.89717979019E+02  0.14190098360E+03  0.11722715013E+03  0.20476183637E+03  0.00000000000E+00 0. -1.
          1    1    1    2  502    0 -0.58224929473E+02 -0.14157078210E+02  0.31216590704E+03  0.31786493797E+03  0.00000000000E+00 0. -1.
         22    1    3    3    0    0 -0.80069542227E+02 -0.76864846907E+02  0.60814423085E+02  0.12656117231E+03  0.00000000000E+00 0. -1.
         22    1    3    3    0    0  0.48576492681E+02 -0.50879058483E+02  0.32079522492E+02  0.77313970256E+02  0.00000000000E+00 0. -1.
</event>
<event>
 7    1  0.6273950E-006  0.5813466E+02  0.7818608E-02  0.1448548E+00
          2   -1    0    0  502    0  0.00000000000E+00  0.00000000000E+00  0.75233879006E+03  0.75233879006E+03  0.00000000000E+00 0. -1.
          1   -1    0    0  501    0 -0.00000000000E+00 -0.00000000000E+00 -0.30757667152E+03  0.30757667152E+03  0.00000000000E+00 0. -1.
         25    2    1    2    0    0  0.30828226290E+02 -0.50385523718E+02 -0.72596043996E+02  0.15616105821E+03  0.12500803959E+03 0.  0.
          2    1    1    2  501    0  0.25022204040E+02  0.33726713030E+02 -0.18970276331E+03  0.19429549730E+03  0.00000000000E+00 0. -1.
          1    1    1    2  502    0 -0.55850430330E+02  0.16658810688E+02  0.70706092584E+03  0.70945890606E+03  0.00000000000E+00 0. -1.
         22    1    3    3    0    0  0.78045718253E+02 -0.43595837530E+02 -0.37523298150E+02  0.96952200035E+02  0.00000000000E+00 0.  1.
         22    1    3    3    0    0 -0.47217491963E+02 -0.67896861879E+01 -0.35072745846E+02  0.59208858180E+02  0.00000000000E+00 0.  1.
</event>
<event>
 7    1  0.6273950E-006  0.1655532E+03  0.7818608E-02  0.1187660E+00
          2   -1    0    0  502    0  0.00000000000E+00  0.00000000000E+00  0.35059927465E+03  0.35059927465E+03  0.00000000000E+00 0. -1.
          1   -1    0    0  501    0 -0.00000000000E+00 -0.00000000000E+00 -0.95960331012E+03  0.95960331012E+03  0.00000000000E+00 0. -1.
         25    2    1    2    0    0  0.98784298833E+02 -0.66224763231E+02 -0.85436144415E+02  0.19253129077E+03  0.12499962477E+03 0.  0.
          2    1    1    2  501    0  0.33729764655E+01  0.18467676699E+03 -0.78858938183E+03  0.80993215665E+03  0.00000000000E+00 0. -1.
          1    1    1    2  502    0 -0.10215727530E+03 -0.11845200375E+03  0.26502149078E+03  0.30773913736E+03  0.00000000000E+00 0. -1.
         22    1    3    3    0    0  0.17706834499E+02 -0.60177778109E+02 -0.91572510205E+02  0.11099739453E+03  0.00000000000E+00 0. -1.
         22    1    3    3    0    0  0.81077464334E+02 -0.60469851224E+01  0.61363657896E+01  0.81533896245E+02  0.00000000000E+00 0. -1.
</event>
<event>
 7    1  0.6273950E-006  0.7524598E+02  0.7818608E-02  0.1426680E+00
          2   -1    0    0  502    0  0.00000000000E+00  0.00000000000E+00  0.11122031983E+04  0.11122031983E+04  0.00000000000E+00 0. -1.
          1   -1    0    0  501    0 -0.00000000000E+00 -0.00000000000E+00 -0.86563233425E+03  0.86563233425E+03  0.00000000000E+00 0. -1.
         25    2    1    2    0    0  0.10477843802E+03  0.39481159937E+02 -0.15249122404E+03  0.22675472082E+03  0.12500738754E+03 0.  0.
          2    1    1    2  501    0 -0.37790321334E+02 -0.57599790447E+01 -0.67415930344E+03  0.67524221740E+03  0.00000000000E+00 0. -1.
          1    1    1    2  502    0 -0.66988116685E+02 -0.33721180892E+02  0.10732213915E+04  0.10758385943E+04  0.00000000000E+00 0. -1.
         22    1    3    3    0    0  0.27797787375E+02 -0.33266097728E+02 -0.28799776932E+01  0.43447031112E+02  0.00000000000E+00 0. -1.
         22    1    3    3    0    0  0.76980650645E+02  0.72747257665E+02 -0.14961124635E+03  0.18330768971E+03  0.00000000000E+00 0. -1.
</event>
<event>
 7    1  0.6273950E-006  0.6117197E+02  0.7818608E-02  0.1540662E+00
          2   -1    0    0  502    0  0.00000000000E+00  0.00000000000E+00  0.29664671581E+03  0.29664671581E+03  0.00000000000E+00 0. -1.
          1   -1    0    0  501    0 -0.00000000000E+00 -0.00000000000E+00 -0.99613009211E+03  0.99613009211E+03  0.00000000000E+00 0. -1.
         25    2    1    2    0    0  0.30134875202E+02  0.27836873980E+02 -0.12825861758E+03  0.18372170638E+03  0.12498155927E+03 0.  0.
          2    1    1    2  501    0 -0.47221834065E+02 -0.40183427006E+02 -0.83858041757E+03  0.84086962494E+03  0.00000000000E+00 0. -1.
          1    1    1    2  502    0  0.17086958862E+02  0.12346553026E+02  0.26735565885E+03  0.26818547659E+03  0.00000000000E+00 0. -1.
         22    1    3    3    0    0 -0.32880999912E+02  0.36767878864E+02 -0.11355421471E+02  0.50616031731E+02  0.00000000000E+00 0.  1.
         22    1    3    3    0    0  0.63015875115E+02 -0.89310048840E+01 -0.11690319611E+03  0.13310567465E+03  0.00000000000E+00 0.  1.
</event>
<event>
 7    1  0.6273950E-006  0.1081363E+03  0.7818608E-02  0.1319139E+00
          2   -1    0    0  502    0  0.00000000000E+00  0.00000000000E+00  0.89888117874E+03  0.89888117874E+03  0.00000000000E+00 0. -1.
          1   -1    0    0  501    0 -0.00000000000E+00 -0.00000000000E+00 -0.11202915110E+04  0.11202915110E+04  0.00000000000E+00 0. -1.
         25    2    1    2    0    0  0.65183538128E+02 -0.14287306005E+03  0.26418988122E+03  0.33179281567E+03  0.12501429624E+03 0.  0.
          2    1    1    2  501    0  0.92936365210E+00  0.64621848262E+02 -0.10811519549E+04  0.10830818974E+04  0.00000000000E+00 0. -1.
          1    1    1    2  502    0 -0.66112901780E+02  0.78251211784E+02  0.59555174138E+03  0.60429797665E+03  0.00000000000E+00 0. -1.
         22    1    3    3    0    0 -0.15159222462E+02 -0.10357623484E+03  0.99706039726E+02  0.14456532367E+03  0.00000000000E+00 0. -1.
         22    1    3    3    0    0  0.80342760589E+02 -0.39296825208E+02  0.16448384150E+03  0.18722749201E+03  0.00000000000E+00 0. -1.
</event>
<event>
 7    1  0.6273950E-006  0.1493526E+03  0.7818608E-02  0.1353113E+00
          2   -1    0    0  502    0  0.00000000000E+00  0.00000000000E+00  0.23264629198E+04  0.23264629198E+04  0.00000000000E+00 0. -1.
          1   -1    0    0  501    0 -0.00000000000E+00 -0.00000000000E+00 -0.31351132279E+03  0.31351132279E+03  0.00000000000E+00 0. -1.
         25    2    1    2    0    0 -0.11285487028E+03 -0.48221737375E+02  0.30580507715E+03  0.35242811761E+03  0.12500910037E+03 0.  0.
          2    1    1    2  501    0  0.14614264056E+03  0.38072481669E+02 -0.27038850896E+03  0.30970490960E+03  0.00000000000E+00 0. -1.
          1    1    1    2  502    0 -0.33287770284E+02  0.10149255706E+02  0.19775350288E+04  0.19778412153E+04  0.00000000000E+00 0. -1.
         22    1    3    3    0    0 -0.10180365483E+03  0.78395109652E+01  0.11760314674E+03  0.15574319308E+03  0.00000000000E+00 0. -1.
         22    1    3    3    0    0 -0.11051215447E+02 -0.56061248341E+02  0.18820193041E+03  0.19668492453E+03  0.00000000000E+00 0. -1.
</event>
<event>
 7    1  0.6273950E-006  0.2533129E+03  0.7818608E-02  0.1197678E+00
          2   -1    0    0  502    0  0.00000000000E+00  0.00000000000E+00  0.12656816384E+04  0.12656816384E+04  0.00000000000E+00 0. -1.
          1   -1    0    0  501    0 -0.00000000000E+00 -0.00000000000E+00 -0.48783027674E+03  0.48783027674E+03  0.00000000000E+00 0. -1.
         25    2    1    2    0    0  0.17028031740E+03  0.96809472873E+02  0.53065908820E+03  0.57930294025E+03  0.12500147266E+03 0.  0.
          2    1    1    2  501    0 -0.25167874048E+03 -0.54875688364E+02 -0.42437134917E+03  0.49643183982E+03  0.00000000000E+00 0. -1.
          1    1    1    2  502    0  0.81398423087E+02 -0.41933784509E+02  0.67156362265E+03  0.67777713508E+03  0.00000000000E+00 0. -1.
         22    1    3    3    0    0  0.12399816201E+02  0.20487383750E+02  0.40805434137E+01  0.24292780189E+02  0.00000000000E+00 0. -1.
         22    1    3    3    0    0  0.15788050120E+03  0.76322089123E+02  0.52657854478E+03  0.55501016006E+03  0.00000000000E+00 0. -1.
</event>
<event>
 7    1  0.6273950E-006  0.1523670E+03  0.7818608E-02  0.1200221E+00
          2   -1    0    0  502    0  0.00000000000E+00  0.00000000000E+00  0.15294084243E+04  0.15294084243E+04  0.00000000000E+00 0. -1.
          1   -1    0    0  501    0 -0.00000000000E+00 -0.00000000000E+00 -0.46464235007E+02  0.46464235007E+02  0.00000000000E+00 0. -1.
         25    2    1    2    0    0 -0.57785048724E+02 -0.78427754034E+02  0.52206802157E+03  0.54559220873E+03  0.12500325846E+03 0.  0.
          2    1    1    2  501    0  0.20467347851E+03  0.59720690259E+02  0.44276912801E+03  0.49142882940E+03  0.00000000000E+00 0. -1.
          1    1    1    2  502    0 -0.14688842978E+03  0.18707063775E+02  0.51810703973E+03  0.53885162119E+03  0.00000000000E+00 0. -1.
         22    1    3    3    0    0 -0.58509131634E+02 -0.92419533716E+02  0.52005980799E+03  0.53143851252E+03  0.00000000000E+00 0.  1.
         22    1    3    3    0    0  0.72408290926E+00  0.13991779682E+02  0.20082135751E+01  0.14153696213E+02  0.00000000000E+00 0.  1.
</event>
<event>
 7    1  0.6273950E-006  0.4313307E+02  0.7818608E-02  0.1562773E+00
          2   -1    0    0  502    0  0.00000000000E+00  0.00000000000E+00  0.34551549083E+04  0.34551549083E+04  0.00000000000E+00 0. -1.
          1   -1    0    0  501    0 -0.00000000000E+00 -0.00000000000E+00 -0.80915246097E+01  0.80915246097E+01  0.00000000000E+00 0. -1.
         25    2    1    2    0    0  0.40056156969E+02 -0.93516327387E+01  0.24987818681E+04  0.25022444526E+04  0.12499810870E+03 0.  0.
          2    1    1    2  501    0 -0.28630438266E+02  0.32647743256E+02  0.70250031819E+02  0.82587190929E+02  0.00000000000E+00 0. -1.
          1    1    1    2  502    0 -0.11425718703E+02 -0.23296110517E+02  0.87803148374E+03  0.87841478940E+03  0.00000000000E+00 0. -1.
         22    1    3    3    0    0  0.45898892404E+02 -0.61306578883E+02  0.12264115142E+04  0.12288003935E+04  0.00000000000E+00 0.  1.
         22    1    3    3    0    0 -0.58427354343E+01  0.51954946144E+02  0.12723703539E+04  0.12734440590E+04  0.00000000000E+00 0.  1.
</event>
<event>
 7    1  0.6273950E-006  0.2476604E+03  0.7818608E-02  0.1213796E+00
          2   -1    0    0  502    0  0.00000000000E+00  0.00000000000E+00  0.24999868631E+03  0.24999868631E+03  0.00000000000E+00 0. -1.
          1   -1    0    0  501    0 -0.00000000000E+00 -0.00000000000E+00 -0.11025158122E+04  0.11025158122E+04  0.00000000000E+00 0. -1.
         25    2    1    2    0    0 -0.19010944869E+03 -0.10764946865E+03 -0.22680102140E+02  0.25272443335E+03  0.12500096638E+03 0.  0.
          2    1    1    2  501    0 -0.24216245175E+02 -0.74933352300E+02 -0.81399129903E+03  0.81779170253E+03  0.00000000000E+00 0. -1.
          1    1    1    2  502    0  0.21432569386E+03  0.18258282095E+03 -0.15845724736E+02  0.28199836267E+03  0.00000000000E+00 0. -1.
         22    1    3    3    0    0 -0.83057904455E+00 -0.14152597051E+02 -0.38493634590E+02  0.41021284338E+02  0.00000000000E+00 0.  1.
         22    1    3    3    0    0 -0.18927886964E+03 -0.93496871597E+02  0.15813532450E+02  0.21170314901E+03  0.00000000000E+00 0.  1.
</event>
<event>
 7    1  0.6273950E-006  0.1304764E+03  0.7818608E-02  0.1370338E+00
          2   -1    0    0  502    0  0.00000000000E+00  0.00000000000E+00  0.27755292400E+03  0.27755292400E+03  0.00000000000E+00 0. -1.
          1   -1    0    0  501    0 -0.00000000000E+00 -0.00000000000E+00 -0.42050091177E+03  0.42050091177E+03  0.00000000000E+00 0. -1.
         25    2    1    2    0    0 -0.94622148723E+02  0.33370674095E+02 -0.19699020439E+03  0.25396264317E+03  0.12499972233E+03 0.  0.
          2    1    1    2  501    0 -0.25773879425E+02  0.22903721688E+02 -0.17549854962E+03  0.17885361122E+03  0.00000000000E+00 0. -1.
          1    1    1    2  502    0  0.12039602815E+03 -0.56274395783E+02  0.22954076623E+03  0.26523758138E+03  0.00000000000E+00 0. -1.
         22    1    3    3    0    0 -0.94352701209E+02  0.60470869132E+02 -0.19724668250E+03  0.22685989508E+03  0.00000000000E+00 0. -1.
         22    1    3    3    0    0 -0.26944751356E+00 -0.27100195037E+02  0.25647811392E+00  0.27102748090E+02  0.00000000000E+00 0. -1.
</event>
<event>
 7    1  0.6273950E-006  0.1393616E+03  0.7818608E-02  0.1265069E+00
          2   -1    0    0  502    0  0.00000000000E+00  0.00000000000E+00  0.12138296500E+04  0.12138296500E+04  0.00000000000E+00 0. -1.
          1   -1    0    0  501    0 -0.00000000000E+00 -0.00000000000E+00 -0.16703694024E+03  0.16703694024E+03  0.00000000000E+00 0. -1.
         25    2    1    2    0    0  0.52401999131E+02  0.46338463135E+02  0.18812257009E+03  0.23644869852E+03  0.12499865190E+03 0.  0.
          2    1    1    2  501    0 -0.11873250079E+03 -0.96373731430E+02 -0.99635479471E+02  0.18251720912E+03  0.00000000000E+00 0. -1.
          1    1    1    2  502    0  0.66330501661E+02  0.50035268295E+02  0.95830561917E+03  0.96190068264E+03  0.00000000000E+00 0. -1.
         22    1    3    3    0    0  0.24517513518E+02 -0.23874450687E+02  0.14598939675E+03  0.14994666328E+03  0.00000000000E+00 0.  1.
         22    1    3    3    0    0  0.27884485613E+02  0.70212913822E+02  0.42133173334E+02  0.86502035239E+02  0.00000000000E+00 0.  1.
</event>
<event>
 7    1  0.6273950E-006  0.7886934E+02  0.7818608E-02  0.1350322E+00
          2   -1    0    0  502    0  0.00000000000E+00  0.00000000000E+00  0.16097760922E+04  0.16097760922E+04  0.00000000000E+00 0. -1.
          1   -1    0    0  501    0 -0.00000000000E+00 -0.00000000000E+00 -0.39396145356E+03  0.39396145356E+03  0.00000000000E+00 0. -1.
         25    2    1    2    0    0 -0.94982829395E+02  0.57808870009E+00  0.13816989068E+03  0.20913375995E+03  0.12499575510E+03 0.  0.
          2    1    1    2  501    0  0.56817007025E+02  0.55077652191E+02 -0.35330773454E+03  0.36206087243E+03  0.00000000000E+00 0. -1.
          1    1    1    2  502    0  0.38165822370E+02 -0.55655740891E+02  0.14309524825E+04  0.14325429134E+04  0.00000000000E+00 0. -1.
         22    1    3    3    0    0 -0.57424819276E+02  0.27049917866E+02  0.14897164058E+03  0.16193164491E+03  0.00000000000E+00 0. -1.
         22    1    3    3    0    0 -0.37558010119E+02 -0.26471829166E+02 -0.10801749902E+02  0.47202115042E+02  0.00000000000E+00 0. -1.
</event>
<event>
 7    1  0.6273950E-006  0.6568328E+02  0.7818608E-02  0.1400744E+00
          2   -1    0    0  502    0  0.00000000000E+00  0.00000000000E+00  0.22777632520E+04  0.22777632520E+04  0.00000000000E+00 0. -1.
          1   -1    0    0  501    0 -0.00000000000E+00 -0.00000000000E+00 -0.43401629456E+03  0.43401629456E+03  0.00000000000E+00 0. -1.
         25    2    1    2    0    0 -0.51275951927E+02  0.85671203606E+02  0.17482210172E+04  0.17555252572E+04  0.12499370111E+03 0.  0.
          2    1    1    2  501    0  0.57084532861E+02 -0.32429135210E+02 -0.42648214928E+03  0.43150587060E+03  0.00000000000E+00 0. -1.
          1    1    1    2  502    0 -0.58085809348E+01 -0.53242068397E+02  0.52200808946E+03  0.52474841870E+03  0.00000000000E+00 0. -1.
         22    1    3    3    0    0 -0.77461104750E+02  0.27460042762E+02  0.60938783846E+03  0.61490471974E+03  0.00000000000E+00 0.  1.
         22    1    3    3    0    0  0.26185152824E+02  0.58211160845E+02  0.11388331788E+04  0.11406205375E+04  0.00000000000E+00 0.  1.
</event>
<event>
 7    1  0.6273950E-006  0.2217425E+03  0.7818608E-02  0.1247780E+00
          2   -1    0    0  502    0  0.00000000000E+00  0.00000000000E+00  0.30584978649E+04  0.30584978649E+04  0.00000000000E+00 0. -1.
          1   -1    0    0  501    0 -0.00000000000E+00 -0.00000000000E+00 -0.35628941313E+03  0.35628941313E+03  0.00000000000E+00 0. -1.
         25    2    1    2    0    0 -0.56346449190E+02 -0.24117781532E+03  0.32006281502E+03  0.42356129182E+03  0.12498920529E+03 0.  0.
          2    1    1    2  501    0  0.58229023407E+02  0.21148325508E+02 -0.29683166821E+03  0.30322748901E+03  0.00000000000E+00 0. -1.
          1    1    1    2  502    0 -0.18825742166E+01  0.22002948981E+03  0.26789773050E+04  0.26879984972E+04  0.00000000000E+00 0. -1.
         22    1    3    3    0    0  0.22970330592E+02 -0.16386772707E+03  0.17222085722E+03  0.23883109455E+03  0.00000000000E+00 0. -1.
         22    1    3    3    0    0 -0.79316779782E+02 -0.77310088246E+02  0.14784195779E+03  0.18473019727E+03  0.00000000000E+00 0. -1.
</event>
<event>
 7    1  0.6273950E-006  0.1290448E+03  0.7818608E-02  0.1326390E+00
          2   -1    0    0  502    0  0.00000000000E+00  0.00000000000E+00  0.63505423120E+02  0.63505423120E+02  0.00000000000E+00 0. -1.
          1   -1    0    0  501    0 -0.00000000000E+00 -0.00000000000E+00 -0.20172626457E+04  0.20172626457E+04  0.00000000000E+00 0. -1.
         25    2    1    2    0    0 -0.12085848650E+03 -0.40034992628E+02 -0.26424072111E+03  0.31883803907E+03  0.12499984829E+03 0.  0.
          2    1    1    2  501    0  0.12964467141E+03 -0.99730814933E+01 -0.17041389254E+04  0.17090923557E+04  0.00000000000E+00 0. -1.
          1    1    1    2  502    0 -0.87861849109E+01  0.50008074121E+02  0.14622423908E+02  0.52837674093E+02  0.00000000000E+00 0. -1.
         22    1    3    3    0    0 -0.12160481682E+03 -0.30359143359E+02 -0.11757793804E+03  0.17185453317E+03  0.00000000000E+00 0.  1.
         22    1    3    3    0    0  0.74633031575E+00 -0.96758492689E+01 -0.14666278307E+03  0.14698350590E+03  0.00000000000E+00 0.  1.
</event>
<event>
 7    1  0.6273950E-006  0.8945176E+02  0.7818608E-02  0.1425850E+00
          2   -1    0    0  502    0  0.00000000000E+00  0.00000000000E+00  0.61652816254E+03  0.61652816254E+03  0.00000000000E+00 0. -1.
          1   -1    0    0  501    0 -0.00000000000E+00 -0.00000000000E+00 -0.21154991013E+03  0.21154991013E+03  0.00000000000E+00 0. -1.
         25    2    1    2    0    0  0.13536517084E+02  0.57573329243E+02  0.15846520625E+03  0.21031768106E+03  0.12499751933E+03 0.  0.
          2    1    1    2  501    0 -0.25170867297E+02 -0.87769677066E+02 -0.17373540579E+03  0.19626787816E+03  0.00000000000E+00 0. -1.
          1    1    1    2  502    0  0.11634350213E+02  0.30196347823E+02  0.42024845196E+03  0.42149251346E+03  0.00000000000E+00 0. -1.
         22    1    3    3    0    0  0.22792652080E+02  0.90070695848E+01  0.15899664706E+03  0.16087437977E+03  0.00000000000E+00 0.  1.
         22    1    3    3    0    0 -0.92561349958E+01  0.48566259658E+02 -0.53144081391E+00  0.49443301281E+02  0.00000000000E+00 0.  1.
</event>
<event>
 7    1  0.6273950E-006  0.9246371E+02  0.7818608E-02  0.1299259E+00
          2   -1    0    0  502    0  0.00000000000E+00  0.00000000000E+00  0.30965841397E+02  0.30965841397E+02  0.00000000000E+00 0. -1.
          1   -1    0    0  501    0 -0.00000000000E+00 -0.00000000000E+00 -0.21864866871E+04  0.21864866871E+04  0.00000000000E+00 0. -1.
         25    2    1    2    0    0 -0.68317320123E+02 -0.75509274917E+02 -0.59694231560E+03  0.61833110569E+03  0.12499728508E+03 0.  0.
          2    1    1    2  501    0  0.88228482714E+02 -0.20358946871E+02 -0.14503519432E+04  0.14531756642E+04  0.00000000000E+00 0. -1.
          1    1    1    2  502    0 -0.19911162592E+02  0.95868221788E+02 -0.10822658692E+03  0.14594575862E+03  0.00000000000E+00 0. -1.
         22    1    3    3    0    0 -0.91572890146E+02 -0.36507406905E+02 -0.25509356752E+03  0.27347963939E+03  0.00000000000E+00 0. -1.
         22    1    3    3    0    0  0.23255570023E+02 -0.39001868012E+02 -0.34184874808E+03  0.34485146630E+03  0.00000000000E+00 0. -1.
</event>
<event>
 7    1  0.6273950E-006  0.1137954E+03  0.7818608E-02  0.1420603E+00
          2   -1    0    0  502    0  0.00000000000E+00  0.00000000000E+00  0.63858122899E+03  0.63858122899E+03  0.00000000000E+00 0. -1.
          1   -1    0    0  501    0 -0.00000000000E+00 -0.00000000000E+00 -0.86536436942E+02  0.86536436942E+02  0.00000000000E+00 0. -1.
         25    2    1    2    0    0  0.12396621921E+03 -0.46497910702E+02  0.24516544487E+03  0.30539088459E+03  0.12501127080E+03 0.  0.
          2    1    1    2  501    0 -0.10715136147E+03  0.26041753698E+02 -0.14325502843E+01  0.11027982318E+03  0.00000000000E+00 0. -1.
          1    1    1    2  502    0 -0.16814857747E+02  0.20456157004E+02  0.30831189746E+03  0.30944695816E+03  0.00000000000E+00 0. -1.
         22    1    3    3    0    0  0.14735898052E+03 -0.24233526492E+02  0.19287357449E+03  0.24393062269E+03  0.00000000000E+00 0. -1.
         22    1    3    3    0    0 -0.23392761308E+02 -0.22264384209E+02  0.52291870377E+02  0.61460261904E+02  0.00000000000E+00 0. -1.
</event>
<event>
 7    1  0.6273950E-006  0.1194950E+03  0.7818608E-02  0.1286269E+00
          2   -1    0    0  502    0  0.00000000000E+00  0.00000000000E+00  0.82976220154E+03  0.82976220154E+03  0.00000000000E+00 0. -1.
          1   -1    0    0  501    0 -0.00000000000E+00 -0.00000000000E+00 -0.14149957577E+04  0.14149957577E+04  0.00000000000E+00 0. -1.
         25    2    1    2    0    0  0.18112816955E+03 -0.49231158235E+02  0.25283002322E+03  0.33880066004E+03  0.12502698051E+03 0.  0.
          2    1    1    2  501    0 -0.11895410410E+03  0.35503840059E+00 -0.13664838633E+04  0.13716516882E+04  0.00000000000E+00 0. -1.
          1    1    1    2  502    0 -0.62174065453E+02  0.48876119835E+02  0.52842028394E+03  0.53430561103E+03  0.00000000000E+00 0. -1.
         22    1    3    3    0    0  0.88331872716E+02 -0.85231038497E+02  0.16772543048E+03  0.20784289665E+03  0.00000000000E+00 0.  1.
         22    1    3    3    0    0  0.92796296833E+02  0.35999880262E+02  0.85104592748E+02  0.13095776339E+03  0.00000000000E+00 0.  1.
</event>
<event>
 7    1  0.6273950E-006  0.7740962E+02  0.7818608E-02  0.1361903E+00
          2   -1    0    0  502    0  0.00000000000E+00  0.00000000000E+00  0.27703983631E+03  0.27703983631E+03  0.00000000000E+00 0. -1.
          1   -1    0    0  501    0 -0.00000000000E+00 -0.00000000000E+00 -0.14793141027E+04  0.14793141027E+04  0.00000000000E+00 0. -1.
         25    2    1    2    0    0 -0.89712650840E+02 -0.14723590266E+02  0.53096970584E+02  0.16343048309E+03  0.12500036274E+03 0.  0.
          2    1    1    2  501    0  0.41049748285E+02 -0.46923961950E+02 -0.14142861609E+04  0.14156596642E+04  0.00000000000E+00 0. -1.
          1    1    1    2  502    0  0.48662902555E+02  0.61647552216E+02  0.15891492395E+03  0.17726379166E+03  0.00000000000E+00 0. -1.
         22    1    3    3    0    0 -0.53726138015E+02  0.48807096926E+02  0.53903064359E+02  0.90411121902E+02  0.00000000000E+00 0.  1.
         22    1    3    3    0    0 -0.35986512826E+02 -0.63530687192E+02 -0.80609377451E+00  0.73019361183E+02  0.00000000000E+00 0.  1.
</event>
<event>
 7    1  0.6273950E-006  0.9293099E+02  0.7818608E-02  0.1386319E+00
          2   -1    0    0  502    0  0.00000000000E+00  0.00000000000E+00  0.23072494962E+03  0.23072494962E+03  0.00000000000E+00 0. -1.
          1   -1    0    0  501    0 -0.00000000000E+00 -0.00000000000E+00 -0.44483515406E+03  0.44483515406E+03  0.00000000000E+00 0. -1.
         25    2    1    2    0    0 -0.57960748320E+02  0.10321949712E+03 -0.49280074106E+02  0.17907348100E+03  0.12500029184E+03 0.  0.
          2    1    1    2  501    0 -0.85882398181E+01 -0.41603764854E+02 -0.31673308187E+03  0.31956920419E+03  0.00000000000E+00 0. -1.
          1    1    1    2  502    0  0.66548988138E+02 -0.61615732270E+02  0.15190295153E+03  0.17691741850E+03  0.00000000000E+00 0. -1.
         22    1    3    3    0    0 -0.76004471236E+02  0.11492122598E+03 -0.65089534289E+02  0.15238180765E+03  0.00000000000E+00 0.  1.
         22    1    3    3    0    0  0.18043722916E+02 -0.11701728855E+02  0.15809460183E+02  0.26691673348E+02  0.00000000000E+00 0.  1.
</event>
<event>
 7    1  0.6273950E-006  0.1107374E+03  0.7818608E-02  0.1349312E+00
          2   -1    0    0  502    0  0.00000000000E+00  0.00000000000E+00  0.34781620564E+03  0.34781620564E+03  0.00000000000E+00 0. -1.
          1   -1    0    0  501    0 -0.00000000000E+00 -0.00000000000E+00 -0.46943153391E+03  0.46943153391E+03  0.00000000000E+00 0. -1.
         25    2    1    2    0    0  0.10774025116E+03  0.46793125885E+01  0.82764948374E+02  0.18468652538E+03  0.12501687202E+03 0.  0.
          2    1    1    2  501    0 -0.66593664821E+01  0.48020606793E+02 -0.40173519981E+03  0.40464984444E+03  0.00000000000E+00 0. -1.
          1    1    1    2  502    0 -0.10108088468E+03 -0.52699919382E+02  0.19735492318E+03  0.22791136973E+03  0.00000000000E+00 0. -1.
         22    1    3    3    0    0  0.40632462402E+02 -0.58573672372E+02  0.23478522279E+02  0.75054067874E+02  0.00000000000E+00 0. -1.
         22    1    3    3    0    0  0.67107788760E+02  0.63252984961E+02  0.59286426094E+02  0.10963245750E+03  0.00000000000E+00 0. -1.
</event>
<event>
 7    1  0.6273950E-006  0.8365554E+02  0.7818608E-02  0.1329669E+00
          2   -1    0    0  502    0  0.00000000000E+00  0.00000000000E+00  0.26271151513E+04  0.26271151513E+04  0.00000000000E+00 0. -1.
          1   -1    0    0  501    0 -0.00000000000E+00 -0.00000000000E+00 -0.35633794921E+02  0.35633794921E+02  0.00000000000E+00 0. -1.
         25    2    1    2    0    0 -0.30118811750E+02  0.15495158927E+02  0.11816878243E+04  0.11887632873E+04  0.12499918628E+03 0.  0.
          2    1    1    2  501    0  0.40712180212E+01 -0.86987203868E+02  0.30013923814E+02  0.92109630743E+02  0.00000000000E+00 0. -1.
          1    1    1    2  502    0  0.26047593729E+02  0.71492044940E+02  0.13797796083E+04  0.13818760281E+04  0.00000000000E+00 0. -1.
         22    1    3    3    0    0 -0.30076421907E+02  0.89214858304E+00  0.11690900024E+04  0.11694771570E+04  0.00000000000E+00 0.  1.
         22    1    3    3    0    0 -0.42389843322E-01  0.14603010344E+02  0.12597821911E+02  0.19286130377E+02  0.00000000000E+00 0.  1.
</event>
<event>
 7    1  0.6273950E-006  0.9904978E+02  0.7818608E-02  0.1431307E+00
          2   -1    0    0  502    0  0.00000000000E+00  0.00000000000E+00  0.10999574009E+04  0.10999574009E+04  0.00000000000E+00 0. -1.
          1   -1    0    0  501    0 -0.00000000000E+00 -0.00000000000E+00 -0.29624495071E+03  0.29624495071E+03  0.00000000000E+00 0. -1.
         25    2    1    2    0    0 -0.22561403357E+02  0.73753379913E+02  0.15123817445E+03  0.21082309369E+03  0.12499925381E+03 0.  0.
          2    1    1    2  501    0 -0.22355081555E+02  0.16922272945E+02 -0.26291911707E+03  0.26440986199E+03  0.00000000000E+00 0. -1.
          1    1    1    2  502    0  0.44916484911E+02 -0.90675652858E+02  0.91539339282E+03  0.92096939594E+03  0.00000000000E+00 0. -1.
         22    1    3    3    0    0 -0.45662806062E+02  0.79577456060E+02  0.16081485755E+03  0.18514610927E+03  0.00000000000E+00 0.  1.
         22    1    3    3    0    0  0.23101402705E+02 -0.58240761468E+01 -0.95766830964E+01  0.25676984423E+02  0.00000000000E+00 0.  1.
</event>
<event>
 7    1  0.6273950E-006  0.3836101E+02  0.7818608E-02  0.1539934E+00
          2   -1    0    0  502    0  0.00000000000E+00  0.00000000000E+00  0.13470668652E+04  0.13470668652E+04  0.00000000000E+00 0. -1.
          1   -1    0    0  501    0 -0.00000000000E+00 -0.00000000000E+00 -0.32759239938E+02  0.32759239938E+02  0.00000000000E+00 0. -1.
         25    2    1    2    0    0 -0.52832257059E+02  0.43231645600E+02  0.71057770821E+03  0.72470936426E+03  0.12499104235E+03 0.  0.
          2    1    1    2  501    0  0.34885106123E+02 -0.14618696146E+02 -0.11053431120E+02  0.39406284343E+02  0.00000000000E+00 0. -1.
          1    1    1    2  502    0  0.17947150936E+02 -0.28612949454E+02  0.61478334813E+03  0.61571045650E+03  0.00000000000E+00 0. -1.
         22    1    3    3    0    0 -0.37868619453E+02  0.83552984797E+02  0.36002027777E+03  0.37152353091E+03  0.00000000000E+00 0.  1.
         22    1    3    3    0    0 -0.14963637606E+02 -0.40321339197E+02  0.35055743044E+03  0.35318583335E+03  0.00000000000E+00 0.  1.
</event>
<event>
 7    1  0.6273950E-006  0.3600320E+02  0.7818608E-02  0.1577041E+00
          2   -1    0    0  502    0  0.00000000000E+00  0.00000000000E+00  0.23853237021E+02  0.23853237021E+02  0.00000000000E+00 0. -1.
          1   -1    0    0  501    0 -0.00000000000E+00 -0.00000000000E+00 -0.10043338095E+04  0.10043338095E+04  0.00000000000E+00 0. -1.
         25    2    1    2    0    0 -0.35970255406E+02 -0.15423016275E+02 -0.78616832638E+03  0.79700479986E+03  0.12499713956E+03 0.  0.
          2    1    1    2  501    0  0.21715420131E+01  0.28347821732E+02 -0.19288432541E+03  0.19496840149E+03  0.00000000000E+00 0. -1.
          1    1    1    2  502    0  0.33798713393E+02 -0.12924805458E+02 -0.14279206750E+01  0.36213845150E+02  0.00000000000E+00 0. -1.
         22    1    3    3    0    0 -0.23692908349E+02 -0.42706211492E+02 -0.11214657801E+03  0.12231937445E+03  0.00000000000E+00 0. -1.
         22    1    3    3    0    0 -0.12277347057E+02  0.27283195217E+02 -0.67402174837E+03  0.67468542542E+03  0.00000000000E+00 0. -1.
</event>
<event>
 7    1  0.6273950E-006  0.7390999E+02  0.7818608E-02  0.1384757E+00
          2   -1    0    0  502    0  0.00000000000E+00  0.00000000000E+00  0.55861278998E+03  0.55861278998E+03  0.00000000000E+00 0. -1.
          1   -1    0    0  501    0 -0.00000000000E+00 -0.00000000000E+00 -0.28800146318E+03  0.28800146318E+03  0.00000000000E+00 0. -1.
         25    2    1    2    0    0 -0.49351861164E+02 -0.19476414630E+02  0.23379392997E+03  0.27036311909E+03  0.12498670949E+03 0.  0.
          2    1    1    2  501    0 -0.30390145341E+02  0.44748871299E+02 -0.26118657103E+03  0.26672916470E+03  0.00000000000E+00 0. -1.
          1    1    1    2  502    0  0.79742006505E+02 -0.25272456669E+02  0.29800396785E+03  0.30952196937E+03  0.00000000000E+00 0. -1.
         22    1    3    3    0    0  0.25742509729E+02 -0.47507004873E+02  0.11493179757E+03  0.12699964729E+03  0.00000000000E+00 0. -1.
         22    1    3    3    0    0 -0.75094370893E+02  0.28030590243E+02  0.11886213240E+03  0.14336347181E+03  0.00000000000E+00 0. -1.
</event>
<event>
 7    1  0.6273950E-006  0.8767110E+02  0.7818608E-02  0.1424531E+00
          2   -1    0    0  502    0  0.00000000000E+00  0.00000000000E+00  0.37235258501E+03  0.37235258501E+03  0.00000000000E+00 0. -1.
          1   -1    0    0  501    0 -0.00000000000E+00 -0.00000000000E+00 -0.16578554101E+04  0.16578554101E+04  0.00000000000E+00 0. -1.
         25    2    1    2    0    0 -0.79734432394E+02  0.89343997502E+02 -0.63982847468E+02  0.18455123567E+03  0.12500169686E+03 0.  0.
          2    1    1    2  501    0  0.61897532377E+02 -0.61163110372E+02 -0.15314586250E+04  0.15339288611E+04  0.00000000000E+00 0. -1.
          1    1    1    2  502    0  0.17836900017E+02 -0.28180887130E+02  0.30993864747E+03  0.31172789833E+03  0.00000000000E+00 0. -1.
         22    1    3    3    0    0 -0.84602924368E+00  0.42267602867E+02 -0.80768049251E+02  0.91163280971E+02  0.00000000000E+00 0. -1.
         22    1    3    3    0    0 -0.78888403151E+02  0.47076394634E+02  0.16785201783E+02  0.93387954696E+02  0.00000000000E+00 0. -1.
</event>
<event>
 7    1  0.6273950E-006  0.3120935E+02  0.7818608E-02  0.1593877E+00
          2   -1    0    0  502    0  0.00000000000E+00  0.00000000000E+00  0.17276233853E+03  0.17276233853E+03  0.00000000000E+00 0. -1.
          1   -1    0    0  501    0 -0.00000000000E+00 -0.00000000000E+00 -0.10178449441E+04  0.10178449441E+04  0.00000000000E+00 0. -1.
         25    2    1    2    0    0  0.84140403489E+01 -0.59050230567E+02 -0.36237412103E+03  0.38794006342E+03  0.12499905362E+03 0.  0.
          2    1    1    2  501    0 -0.10594330566E+01  0.30397672531E+02 -0.64095666483E+03  0.64167794654E+03  0.00000000000E+00 0. -1.
          1    1    1    2  502    0 -0.73546072923E+01  0.28652558036E+02  0.15824818032E+03  0.16098927264E+03  0.00000000000E+00 0. -1.
         22    1    3    3    0    0  0.62704621181E+02 -0.27105678486E+02 -0.12611797633E+03  0.14343057999E+03  0.00000000000E+00 0.  1.
         22    1    3    3    0    0 -0.54290580832E+02 -0.31944552082E+02 -0.23625614470E+03  0.24450948342E+03  0.00000000000E+00 0.  1.
</event>
<event>
 7    1  0.6273950E-006  0.9980660E+02  0.7818608E-02  0.1342802E+00
          2   -1    0    0  502    0  0.00000000000E+00  0.00000000000E+00  0.85530481155E+02  0.85530481155E+02  0.00000000000E+00 0. -1.
          1   -1    0    0  501    0 -0.00000000000E+00 -0.00000000000E+00 -0.13304597008E+04  0.13304597008E+04  0.00000000000E+00 0. -1.
         25    2    1    2    0    0  0.24406516320E+02 -0.72541233923E+02 -0.68977342720E+03  0.70517411459E+03  0.12500096945E+03 0.  0.
          2    1    1    2  501    0 -0.78070571622E+02  0.91397511477E+02 -0.61594557535E+03  0.62756471464E+03  0.00000000000E+00 0. -1.
          1    1    1    2  502    0  0.53664055302E+02 -0.18856277554E+02  0.60789782874E+02  0.83251352761E+02  0.00000000000E+00 0. -1.
         22    1    3    3    0    0  0.19647910836E+02 -0.42450378541E+02 -0.66290619891E+03  0.66455451514E+03  0.00000000000E+00 0. -1.
         22    1    3    3    0    0  0.47586054840E+01 -0.30090855382E+02 -0.26867228285E+02  0.40619599450E+02  0.00000000000E+00 0. -1.
</event>
<event>
 7    1  0.6273950E-006  0.4707043E+02  0.7818608E-02  0.1537203E+00
          2   -1    0    0  502    0  0.00000000000E+00  0.00000000000E+00  0.89792096452E+03  0.89792096452E+03  0.00000000000E+00 0. -1.
          1   -1    0    0  501    0 -0.00000000000E+00 -0.00000000000E+00 -0.10092748264E+04  0.10092748264E+04  0.00000000000E+00 0. -1.
         25    2    1    2    0    0  0.39293232118E+02 -0.54051897383E+02 -0.24302238772E+03  0.28133698397E+03  0.12500020765E+03 0.  0.
          2    1    1    2  501    0 -0.38484656120E+02  0.26042575865E+02 -0.74614880518E+03  0.74759435791E+03  0.00000000000E+00 0. -1.
          1    1    1    2  502    0 -0.80857599732E+00  0.28009321517E+02  0.87781733100E+03  0.87826444906E+03  0.00000000000E+00 0. -1.
         22    1    3    3    0    0 -0.21352462680E+02  0.87217031507E+01 -0.15735633780E+03  0.15903777166E+03  0.00000000000E+00 0.  1.
         22    1    3    3    0    0  0.60645694797E+02 -0.62773600533E+02 -0.85666049918E+02  0.12229921230E+03  0.00000000000E+00 0.  1.
</event>
<event>
 7    1  0.6273950E-006  0.8808570E+02  0.7818608E-02  0.1403837E+00
          2   -1    0    0  502    0  0.00000000000E+00  0.00000000000E+00  0.27598693927E+03  0.27598693927E+03  0.00000000000E+00 0. -1.
          1   -1    0    0  501    0 -0.00000000000E+00 -0.00000000000E+00 -0.14025489934E+03  0.14025489934E+03  0.00000000000E+00 0. -1.
         25    2    1    2    0    0 -0.50457901683E+02  0.37923787235E+02 -0.14769334910E+01  0.14004968856E+03  0.12501008140E+03 0.  0.
          2    1    1    2  501    0  0.80064240377E+02 -0.63269563941E+02 -0.28508775941E+02  0.10595315292E+03  0.00000000000E+00 0. -1.
          1    1    1    2  502    0 -0.29606338694E+02  0.25345776706E+02  0.16571774937E+03  0.17023899713E+03  0.00000000000E+00 0. -1.
         22    1    3    3    0    0 -0.80464748444E+02  0.58304513420E+02 -0.16608509989E+02  0.10074638768E+03  0.00000000000E+00 0. -1.
         22    1    3    3    0    0  0.30006846761E+02 -0.20380726185E+02  0.15131576498E+02  0.39303300875E+02  0.00000000000E+00 0. -1.
</event>
<event>
 7    1  0.6273950E-006  0.3227830E+03  0.7818608E-02  0.1295106E+00
          2   -1    0    0  502    0  0.00000000000E+00  0.00000000000E+00  0.37886094931E+03  0.37886094931E+03  0.00000000000E+00 0. -1.
          1   -1    0    0  501    0 -0.00000000000E+00 -0.00000000000E+00 -0.11247321556E+04  0.11247321556E+04  0.00000000000E+00 0. -1.
         25    2    1    2    0    0  0.27307064788E+03  0.20923838586E+03 -0.80738688309E+03  0.88647990287E+03  0.12499903338E+03 0.  0.
          2    1    1    2  501    0 -0.10431301977E+02 -0.24854330484E+02 -0.20082517673E+03  0.20262601367E+03  0.00000000000E+00 0. -1.
          1    1    1    2  502    0 -0.26263934590E+03 -0.18438405538E+03  0.26234085354E+03  0.41448718838E+03  0.00000000000E+00 0. -1.
         22    1    3    3    0    0  0.30962138208E+02  0.70850679061E+02 -0.27256372279E+03  0.28331864694E+03  0.00000000000E+00 0.  1.
         22    1    3    3    0    0  0.24210850967E+03  0.13838770680E+03 -0.53482316031E+03  0.60316125592E+03  0.00000000000E+00 0.  1.
</event>
<event>
 7    1  0.6273950E-006  0.2865560E+02  0.7818608E-02  0.1661409E+00
          2   -1    0    0  502    0  0.00000000000E+00  0.00000000000E+00  0.90547400666E+03  0.90547400666E+03  0.00000000000E+00 0. -1.
          1   -1    0    0  501    0 -0.00000000000E+00 -0.00000000000E+00 -0.21042063780E+03  0.21042063780E+03  0.00000000000E+00 0. -1.
         25    2    1    2    0    0  0.67038679253E+01 -0.66924743263E+01  0.20368948963E+03  0.23916781313E+03  0.12498841385E+03 0.  0.
          2    1    1    2  501    0  0.21740146516E+02  0.95999366228E+00 -0.19175808724E+03  0.19298891051E+03  0.00000000000E+00 0. -1.
          1    1    1    2  502    0 -0.28444014441E+02  0.57324806640E+01  0.68312196647E+03  0.68373792082E+03  0.00000000000E+00 0. -1.
         22    1    3    3    0    0 -0.21168845364E+02  0.77287929280E-01 -0.10105483503E+02  0.23457339668E+02  0.00000000000E+00 0.  1.
         22    1    3    3    0    0  0.27872713289E+02 -0.67697622556E+01  0.21379497313E+03  0.21571047347E+03  0.00000000000E+00 0.  1.
</event>
<event>
 7    1  0.6273950E-006  0.4231794E+02  0.7818608E-02  0.1562009E+00
          2   -1    0    0  502    0  0.00000000000E+00  0.00000000000E+00  0.93773802850E+03  0.93773802850E+03  0.00000000000E+00 0. -1.
          1   -1    0    0  501    0 -0.00000000000E+00 -0.00000000000E+00 -0.33567688998E+03  0.33567688998E+03  0.00000000000E+00 0. -1.
         25    2    1    2    0    0 -0.19474277388E+01 -0.24837415545E+02  0.51115698975E+02  0.13732091142E+03  0.12499411324E+03 0.  0.
          2    1    1    2  501    0  0.27298612836E+02  0.32808914716E+02 -0.29080690918E+03  0.29392226451E+03  0.00000000000E+00 0. -1.
          1    1    1    2  502    0 -0.25351185097E+02 -0.79714991711E+01  0.84175234872E+03  0.84217174256E+03  0.00000000000E+00 0. -1.
         22    1    3    3    0    0  0.14372089532E+02  0.22670513070E+02 -0.31032926704E+02  0.41031106008E+02  0.00000000000E+00 0. -1.
         22    1    3    3    0    0 -0.16319517271E+02 -0.47507928615E+02  0.82148625679E+02  0.96289805411E+02  0.00000000000E+00 0. -1.
</event>
<event>
 7    1  0.6273950E-006  0.2538654E+02  0.7818608E-02  0.1658931E+00
          2   -1    0    0  502    0  0.00000000000E+00  0.00000000000E+00  0.17643842453E+04  0.17643842453E+04  0.00000000000E+00 0. -1.
          1   -1    0    0  501    0 -0.00000000000E+00 -0.00000000000E+00 -0.31029694122E+02  0.31029694122E+02  0.00000000000E+00 0. -1.
         25    2    1    2    0    0  0.41626719198E+02 -0.24850141184E+02  0.15437087045E+03  0.20446533836E+03  0.12500158271E+03 0.  0.
          2    1    1    2  501    0 -0.17295867494E+02  0.17920026975E+02  0.20493303616E+02  0.32252905175E+02  0.00000000000E+00 0. -1.
          1    1    1    2  502    0 -0.24330851703E+02  0.69301142092E+01  0.15584903771E+04  0.15586956959E+04  0.00000000000E+00 0. -1.
         22    1    3    3    0    0  0.60746332999E+02  0.35505670581E+02  0.89112309492E+02  0.11354194520E+03  0.00000000000E+00 0. -1.
         22    1    3    3    0    0 -0.19119613801E+02 -0.60355811765E+02  0.65258560959E+02  0.90923393162E+02  0.00000000000E+00 0. -1.
</event>
<event>
 7    1  0.6273950E-006  0.7953796E+02  0.7818608E-02  0.1374154E+00
          2   -1    0    0  502    0  0.00000000000E+00  0.00000000000E+00  0.13887028077E+04  0.13887028077E+04  0.00000000000E+00 0. -1.
          1   -1    0    0  501    0 -0.00000000000E+00 -0.00000000000E+00 -0.15742151798E+03  0.15742151798E+03  0.00000000000E+00 0. -1.
         25    2    1    2    0    0 -0.11965137177E+03  0.67068524741E+01  0.13133527700E+03  0.21733773583E+03  0.12500121517E+03 0.  0.
          2    1    1    2  501    0  0.48225998706E+02  0.26043618460E+02 -0.10650453248E+03  0.11977993343E+03  0.00000000000E+00 0. -1.
          1    1    1    2  502    0  0.71425373063E+02 -0.32750470934E+02  0.12064505452E+04  0.12090066564E+04  0.00000000000E+00 0. -1.
         22    1    3    3    0    0 -0.28895328612E+02  0.87027069077E+01 -0.23232302966E+02  0.38084340932E+02  0.00000000000E+00 0. -1.
         22    1    3    3    0    0 -0.90756043157E+02 -0.19958544335E+01  0.15456757997E+03  0.17925339490E+03  0.00000000000E+00 0. -1.
</event>
<event>
 7    1  0.6273950E-006  0.7107543E+02  0.7818608E-02  0.1373984E+00
          2   -1    0    0  502    0  0.00000000000E+00  0.00000000000E+00  0.22362628316E+03  0.22362628316E+03  0.00000000000E+00 0. -1.
          1   -1    0    0  501    0 -0.00000000000E+00 -0.00000000000E+00 -0.14832328022E+04  0.14832328022E+04  0.00000000000E+00 0. -1.
         25    2    1    2    0    0 -0.10078443599E+03  0.49864248493E+02 -0.27496898098E+03  0.32230074892E+03  0.12500354571E+03 0.  0.
          2    1    1    2  501    0  0.39824559786E+02 -0.57375975911E+02 -0.11788232312E+04  0.11808904303E+04  0.00000000000E+00 0. -1.
          1    1    1    2  502    0  0.60959876201E+02  0.75117274180E+01  0.19418569312E+03  0.20366790608E+03  0.00000000000E+00 0. -1.
         22    1    3    3    0    0 -0.62286373542E+02  0.90931618261E+02 -0.20233805316E+03  0.23041015447E+03  0.00000000000E+00 0.  1.
         22    1    3    3    0    0 -0.38498062445E+02 -0.41067369768E+02 -0.72630927819E+02  0.91890594445E+02  0.00000000000E+00 0.  1.
</event>
<event>
 7    1  0.6273950E-006  0.1064823E+03  0.7818608E-02  0.1302842E+00
          2   -1    0    0  502    0  0.00000000000E+00  0.00000000000E+00  0.81855810287E+03  0.81855810287E+03  0.00000000000E+00 0. -1.
          1   -1    0    0  501    0 -0.00000000000E+00 -0.00000000000E+00 -0.39250566633E+03  0.39250566633E+03  0.00000000000E+00 0. -1.
         25    2    1    2    0    0 -0.15745623430E+02 -0.82116978910E+02  0.16408265877E+03  0.22257607730E+03  0.12500347353E+03 0.  0.
          2    1    1    2  501    0 -0.74945994974E+02  0.13061456309E+02 -0.35398838545E+03  0.36207082296E+03  0.00000000000E+00 0. -1.
          1    1    1    2  502    0  0.90691618404E+02  0.69055522601E+02  0.61595816323E+03  0.62641686895E+03  0.00000000000E+00 0. -1.
         22    1    3    3    0    0 -0.32936065492E+02 -0.10591603906E+03  0.15724995727E+03  0.19243321128E+03  0.00000000000E+00 0. -1.
         22    1    3    3    0    0  0.17190442062E+02  0.23799060148E+02  0.68327014927E+01  0.30142866020E+02  0.00000000000E+00 0. -1.
</event>
<event>
 7    1  0.6273950E-006  0.3953264E+02  0.7818608E-02  0.1588892E+00
          2   -1    0    0  502    0  0.00000000000E+00  0.00000000000E+00  0.91501668463E+03  0.91501668463E+03  0.00000000000E+00 0. -1.
          1   -1    0    0  501    0 -0.00000000000E+00 -0.00000000000E+00 -0.60680981265E+02  0.60680981265E+02  0.00000000000E+00 0. -1.
         25    2    1    2    0    0  0.50269674586E+01 -0.58451747197E+02  0.15850649715E+03  0.21021859439E+03  0.12500268252E+03 0.  0.
          2    1    1    2  501    0  0.95807258682E+01  0.22083650118E+02 -0.30072258108E+02  0.38520366281E+02  0.00000000000E+00 0. -1.
          1    1    1    2  502    0 -0.14607693327E+02  0.36368097078E+02  0.72590146432E+03  0.72695870522E+03  0.00000000000E+00 0. -1.
         22    1    3    3    0    0  0.15676476157E+02 -0.70789426063E+02  0.26478008032E+02  0.77187950202E+02  0.00000000000E+00 0.  1.
         22    1    3    3    0    0 -0.10649508698E+02  0.12337678866E+02  0.13202848912E+03  0.13303064419E+03  0.00000000000E+00 0.  1.
</event>
<event>
 7    1  0.6273950E-006  0.1673162E+03  0.7818608E-02  0.1259253E+00
          2   -1    0    0  502    0  0.00000000000E+00  0.00000000000E+00  0.15471615899E+04  0.15471615899E+04  0.00000000000E+00 0. -1.
          1   -1    0    0  501    0 -0.00000000000E+00 -0.00000000000E+00 -0.28633641488E+03  0.28633641488E+03  0.00000000000E+00 0. -1.
         25    2    1    2    0    0  0.11637798857E+03 -0.60207712208E+02  0.10962239177E+03  0.21168606085E+03  0.12500045899E+03 0.  0.
          2    1    1    2  501    0 -0.71790694012E+01 -0.72908034002E+02 -0.22410143842E+03  0.23577229515E+03  0.00000000000E+00 0. -1.
          1    1    1    2  502    0 -0.10919891917E+03  0.13311574621E+03  0.13753042217E+04  0.13860396488E+04  0.00000000000E+00 0. -1.
         22    1    3    3    0    0  0.89201156567E+02 -0.25235766114E+02  0.13259915151E+03  0.16179068331E+03  0.00000000000E+00 0.  1.
         22    1    3    3    0    0  0.27176832008E+02 -0.34971946094E+02 -0.22976759745E+02  0.49895377541E+02  0.00000000000E+00 0.  1.
</event>
<event>
 7    1  0.6273950E-006  0.1605733E+03  0.7818608E-02  0.1249751E+00
          2   -1    0    0  502    0  0.00000000000E+00  0.00000000000E+00  0.50641172372E+03  0.50641172372E+03  0.00000000000E+00 0. -1.
          1   -1    0    0  501    0 -0.00000000000E+00 -0.00000000000E+00 -0.25110241063E+03  0.25110241063E+03  0.00000000000E+00 0. -1.
         25    2    1    2    0    0 -0.14030465234E+03  0.72967560390E+02  0.20925752116E+03  0.29055906410E+03  0.12500479682E+03 0.  0.
          2    1    1    2  501    0  0.87416851308E+02 -0.13807209834E+03 -0.16962704249E+03  0.23553968620E+03  0.00000000000E+00 0. -1.
          1    1    1    2  502    0  0.52887801031E+02  0.65104537948E+02  0.21567883441E+03  0.23141538404E+03  0.00000000000E+00 0. -1.
         22    1    3    3    0    0 -0.11288692689E+03  0.18068756638E+02  0.19731678998E+03  0.22804353496E+03  0.00000000000E+00 0. -1.
         22    1    3    3    0    0 -0.27417725451E+02  0.54898803751E+02  0.11940731182E+02  0.62515529138E+02  0.00000000000E+00 0. -1.
</event>
<event>
 7    1  0.6273950E-006  0.1259506E+03  0.7818608E-02  0.1395098E+00
          2   -1    0    0  502    0  0.00000000000E+00  0.00000000000E+00  0.16714865841E+04  0.16714865841E+04  0.00000000000E+00 0. -1.
          1   -1    0    0  501    0 -0.00000000000E+00 -0.00000000000E+00 -0.30965700665E+04  0.30965700665E+04  0.00000000000E+00 0. -1.
         25    2    1    2    0    0  0.68244632971E+01 -0.10464385688E+03 -0.27971742106E+03  0.32382618876E+03  0.12499861921E+03 0.  0.
          2    1    1    2  501    0  0.12163681592E+02  0.12684179321E+03 -0.27932163361E+04  0.27961212950E+04  0.00000000000E+00 0. -1.
          1    1    1    2  502    0 -0.18988144890E+02 -0.22197936338E+02  0.16478502748E+04  0.16481091669E+04  0.00000000000E+00 0. -1.
         22    1    3    3    0    0  0.58265236106E+02 -0.49856733594E+02 -0.81814191301E+02  0.11213426560E+03  0.00000000000E+00 0.  1.
         22    1    3    3    0    0 -0.51440772809E+02 -0.54787123283E+02 -0.19790322976E+03  0.21169192317E+03  0.00000000000E+00 0.  1.
</event>
<event>
 7    1  0.6273950E-006  0.6996936E+02  0.7818608E-02  0.1360576E+00
          2   -1    0    0  502    0  0.00000000000E+00  0.00000000000E+00  0.99868593916E+03  0.99868593916E+03  0.00000000000E+00 0. -1.
          1   -1    0    0  501    0 -0.00000000000E+00 -0.00000000000E+00 -0.50493048689E+03  0.50493048689E+03  0.00000000000E+00 0. -1.
         25    2    1    2    0    0 -0.70053070715E+02 -0.32731463416E+02  0.14383386100E+02  0.14767903135E+03  0.12499373220E+03 0.  0.
          2    1    1    2  501    0  0.96397941473E+01  0.69077545557E+02 -0.43414087788E+03  0.43970778340E+03  0.00000000000E+00 0. -1.
          1    1    1    2  502    0  0.60413276568E+02 -0.36346082141E+02  0.91351294406E+03  0.91622961131E+03  0.00000000000E+00 0. -1.
         22    1    3    3    0    0 -0.18209633168E+02  0.47683320514E+02  0.91690351635E+01  0.51859049366E+02  0.00000000000E+00 0. -1.
         22    1    3    3    0    0 -0.51843437547E+02 -0.80414783930E+02  0.52143509368E+01  0.95819981982E+02  0.00000000000E+00 0. -1.
</event>
<event>
 7    1  0.6273950E-006  0.1936500E+03  0.7818608E-02  0.1244709E+00
          2   -1    0    0  502    0  0.00000000000E+00  0.00000000000E+00  0.94186654331E+03  0.94186654331E+03  0.00000000000E+00 0. -1.
          1   -1    0    0  501    0 -0.00000000000E+00 -0.00000000000E+00 -0.38060675812E+04  0.38060675812E+04  0.00000000000E+00 0. -1.
         25    2    1    2    0    0  0.17244294737E+02  0.25694159636E+03 -0.33757103873E+03  0.44260409871E+03  0.12501132897E+03 0.  0.
          2    1    1    2  501    0  0.12529590923E+02 -0.19011267630E+03 -0.34118130749E+04  0.34171286599E+04  0.00000000000E+00 0. -1.
          1    1    1    2  502    0 -0.29773885661E+02 -0.66828920057E+02  0.88518307572E+03  0.88820136589E+03  0.00000000000E+00 0. -1.
         22    1    3    3    0    0 -0.14627234113E+02  0.55689747486E+02 -0.12450200121E+02  0.58909349309E+02  0.00000000000E+00 0. -1.
         22    1    3    3    0    0  0.31871528851E+02  0.20125184887E+03 -0.32512083861E+03  0.38369474941E+03  0.00000000000E+00 0. -1.
</event>
<event>
 7    1  0.6273950E-006  0.7013617E+02  0.7818608E-02  0.1378599E+00
          2   -1    0    0  502    0  0.00000000000E+00  0.00000000000E+00  0.40162624969E+03  0.40162624969E+03  0.00000000000E+00 0. -1.
          1   -1    0    0  501    0 -0.00000000000E+00 -0.00000000000E+00 -0.15490484898E+04  0.15490484898E+04  0.00000000000E+00 0. -1.
         25    2    1    2    0    0  0.10897849323E+02  0.12371272510E+03  0.36468781886E+02  0.17993935539E+03  0.12499839236E+03 0.  0.
          2    1    1    2  501    0  0.87420052919E+01 -0.59290437612E+02 -0.14728310390E+04  0.14740498798E+04  0.00000000000E+00 0. -1.
          1    1    1    2  502    0 -0.19639854615E+02 -0.64422287489E+02  0.28894001703E+03  0.29668550429E+03  0.00000000000E+00 0. -1.
         22    1    3    3    0    0 -0.22239343709E+02  0.84385313268E+02 -0.33180209166E+02  0.93361639790E+02  0.00000000000E+00 0. -1.
         22    1    3    3    0    0  0.33137193032E+02  0.39327411833E+02  0.69648991051E+02  0.86577715597E+02  0.00000000000E+00 0. -1.
</event>
<event>
 7    1  0.6273950E-006  0.2976441E+02  0.7818608E-02  0.1630867E+00
          2   -1    0    0  502    0  0.00000000000E+00  0.00000000000E+00  0.39921153209E+02  0.39921153209E+02  0.00000000000E+00 0. -1.
          1   -1    0    0  501    0 -0.00000000000E+00 -0.00000000000E+00 -0.14091117649E+04  0.14091117649E+04  0.00000000000E+00 0. -1.
         25    2    1    2    0    0  0.81623157148E+01 -0.49626319969E+02 -0.41641572998E+03  0.43767215631E+03  0.12500184481E+03 0.  0.
          2    1    1    2  501    0  0.56057264220E+01  0.28860758759E+02 -0.97650833571E+03  0.97695081620E+03  0.00000000000E+00 0. -1.
          1    1    1    2  502    0 -0.13768042137E+02  0.20765561210E+02  0.23733454003E+02  0.34409945591E+02  0.00000000000E+00 0. -1.
         22    1    3    3    0    0 -0.82179177249E+01  0.17036862703E+01 -0.35839055197E+03  0.35848880661E+03  0.00000000000E+00 0.  1.
         22    1    3    3    0    0  0.16380233440E+02 -0.51330006239E+02 -0.58025178010E+02  0.79183349709E+02  0.00000000000E+00 0.  1.
</event>
<event>
 7    1  0.6273950E-006  0.1026800E+03  0.7818608E-02  0.1421602E+00
          2   -1    0    0  502    0  0.00000000000E+00  0.00000000000E+00  0.96246306976E+03  0.96246306976E+03  0.00000000000E+00 0. -1.
          1   -1    0    0  501    0 -0.00000000000E+00 -0.00000000000E+00 -0.17302844259E+04  0.17302844259E+04  0.00000000000E+00 0. -1.
         25    2    1    2    0    0 -0.80139295744E+02 -0.60317908497E+02 -0.91249652824E+02  0.18441983256E+03  0.12499447464E+03 0.  0.
          2    1    1    2  501    0  0.18829755828E+02 -0.22215838048E+02 -0.15894304817E+04  0.15896972540E+04  0.00000000000E+00 0. -1.
          1    1    1    2  502    0  0.61309539917E+02  0.82533746545E+02  0.91285877846E+03  0.91863040904E+03  0.00000000000E+00 0. -1.
         22    1    3    3    0    0 -0.50790679645E+02  0.83890179377E+01  0.15824572956E+02  0.53856159072E+02  0.00000000000E+00 0. -1.
         22    1    3    3    0    0 -0.29348616099E+02 -0.68706926434E+02 -0.10707422578E+03  0.13056367348E+03  0.00000000000E+00 0. -1.
</event>
<event>
 7    1  0.6273950E-006  0.7781443E+02  0.7818608E-02  0.1345211E+00
          2   -1    0    0  502    0  0.00000000000E+00  0.00000000000E+00  0.91461451894E+02  0.91461451894E+02  0.00000000000E+00 0. -1.
          1   -1    0    0  501    0 -0.00000000000E+00 -0.00000000000E+00 -0.10266873130E+04  0.10266873130E+04  0.00000000000E+00 0. -1.
         25    2    1    2    0    0  0.89050450267E+02 -0.91971114022E+02 -0.23430647558E+03  0.29480995954E+03  0.12499887696E+03 0.  0.
          2    1    1    2  501    0 -0.68511262165E+02  0.20310961072E+02 -0.73704505961E+03  0.74050101153E+03  0.00000000000E+00 0. -1.
          1    1    1    2  502    0 -0.20539188102E+02  0.71660152950E+02  0.36125674030E+02  0.82837793868E+02  0.00000000000E+00 0. -1.
         22    1    3    3    0    0  0.11842989450E+03 -0.54920656493E+02 -0.15693663039E+03  0.20413481913E+03  0.00000000000E+00 0. -1.
         22    1    3    3    0    0 -0.29379444230E+02 -0.37050457529E+02 -0.77369845182E+02  0.90675140418E+02  0.00000000000E+00 0. -1.
</event>
<event>
 7    1  0.6273950E-006  0.1204543E+03  0.7818608E-02  0.1317678E+00
          2   -1    0    0  502    0  0.00000000000E+00  0.00000000000E+00  0.20495317068E+04  0.20495317068E+04  0.00000000000E+00 0. -1.
          1   -1    0    0  501    0 -0.00000000000E+00 -0.00000000000E+00 -0.47218765035E+03  0.47218765035E+03  0.00000000000E+00 0. -1.
         25    2    1    2    0    0 -0.31495403805E+02 -0.16880302515E+03 -0.36684389978E+02  0.21553989905E+03  0.12500112741E+03 0.  0.
          2    1    1    2  501    0  0.32395092598E+02  0.49051646601E+02 -0.34173453429E+03  0.34675351185E+03  0.00000000000E+00 0. -1.
          1    1    1    2  502    0 -0.89968879267E+00  0.11975137855E+03  0.19557629807E+04  0.19594259463E+04  0.00000000000E+00 0. -1.
         22    1    3    3    0    0  0.34598199399E+01 -0.16487540121E+03 -0.57522139919E+02  0.17465584691E+03  0.00000000000E+00 0. -1.
         22    1    3    3    0    0 -0.34955223745E+02 -0.39276239398E+01  0.20837749941E+02  0.40884052141E+02  0.00000000000E+00 0. -1.
</event>
<event>
 7    1  0.6273950E-006  0.1028289E+03  0.7818608E-02  0.1309299E+00
          2   -1    0    0  502    0  0.00000000000E+00  0.00000000000E+00  0.93596631075E+03  0.93596631075E+03  0.00000000000E+00 0. -1.
          1   -1    0    0  501    0 -0.00000000000E+00 -0.00000000000E+00 -0.24751598075E+03  0.24751598075E+03  0.00000000000E+00 0. -1.
         25    2    1    2    0    0  0.99504507214E+02 -0.13020952102E+03 -0.20894383157E+02  0.20716332266E+03  0.12499760272E+03 0.  0.
          2    1    1    2  501    0 -0.43183632289E+02  0.81796777109E+02 -0.11559297775E+03  0.14804484236E+03  0.00000000000E+00 0. -1.
          1    1    1    2  502    0 -0.56320874925E+02  0.48412743913E+02  0.82493769091E+03  0.82827412649E+03  0.00000000000E+00 0. -1.
         22    1    3    3    0    0  0.12163867389E+03 -0.10113296720E+03 -0.43667106699E+02  0.16410563746E+03  0.00000000000E+00 0.  1.
         22    1    3    3    0    0 -0.22134166677E+02 -0.29076553824E+02  0.22772723542E+02  0.43057685194E+02  0.00000000000E+00 0.  1.
</event>
<event>
 7    1  0.6273950E-006  0.1287935E+03  0.7818608E-02  0.1291927E+00
          2   -1    0    0  502    0  0.00000000000E+00  0.00000000000E+00  0.12960061512E+04  0.12960061512E+04  0.00000000000E+00 0. -1.
          1   -1    0    0  501    0 -0.00000000000E+00 -0.00000000000E+00 -0.58392298856E+03  0.58392298856E+03  0.00000000000E+00 0. -1.
         25    2    1    2    0    0 -0.78777546172E+02  0.10960360850E+03  0.30344233880E+03  0.35485374279E+03  0.12500029207E+03 0.  0.
          2    1    1    2  501    0 -0.40431883191E+02 -0.56631194566E+02 -0.55162154789E+03  0.55599295092E+03  0.00000000000E+00 0. -1.
          1    1    1    2  502    0  0.11920942936E+03 -0.52972413933E+02  0.96026237175E+03  0.96908244607E+03  0.00000000000E+00 0. -1.
         22    1    3    3    0    0 -0.42663452000E+01 -0.25404041381E+02  0.21741837886E+02  0.33708671503E+02  0.00000000000E+00 0. -1.
         22    1    3    3    0    0 -0.74511200971E+02  0.13500764988E+03  0.28170050091E+03  0.32114507128E+03  0.00000000000E+00 0. -1.
</event>
<event>
 7    1  0.6273950E-006  0.8357864E+02  0.7818608E-02  0.1329022E+00
          2   -1    0    0  502    0  0.00000000000E+00  0.00000000000E+00  0.10706029918E+03  0.10706029918E+03  0.00000000000E+00 0. -1.
          1   -1    0    0  501    0 -0.00000000000E+00 -0.00000000000E+00 -0.23025702541E+04  0.23025702541E+04  0.00000000000E+00 0. -1.
         25    2    1    2    0    0 -0.42032022194E+02  0.49487319543E+01 -0.54743258287E+03  0.56311686172E+03  0.12500794508E+03 0.  0.
          2    1    1    2  501    0  0.12545112323E+02  0.75559853501E+02 -0.17277647119E+04  0.17294616420E+04  0.00000000000E+00 0. -1.
          1    1    1    2  502    0  0.29486909871E+02 -0.80508585456E+02  0.79687339840E+02  0.11705204960E+03  0.00000000000E+00 0. -1.
         22    1    3    3    0    0 -0.72799722381E+02 -0.17828659024E+02 -0.47790951202E+03  0.48375113679E+03  0.00000000000E+00 0.  1.
         22    1    3    3    0    0  0.30767700186E+02  0.22777390978E+02 -0.69523070843E+02  0.79365724932E+02  0.00000000000E+00 0.  1.
</event>
<event>
 7    1  0.6273950E-006  0.9499281E+02  0.7818608E-02  0.1389231E+00
          2   -1    0    0  502    0  0.00000000000E+00  0.00000000000E+00  0.18151484508E+03  0.18151484508E+03  0.00000000000E+00 0. -1.
          1   -1    0    0  501    0 -0.00000000000E+00 -0.00000000000E+00 -0.75147211066E+03  0.75147211066E+03  0.00000000000E+00 0. -1.
         25    2    1    2    0    0 -0.27747581027E+02  0.11861652330E+03 -0.24867724975E+03  0.30381845214E+03  0.12500187784E+03 0.  0.
          2    1    1    2  501    0 -0.21874336986E+01 -0.91197014175E+02 -0.46806597912E+03  0.47687256272E+03  0.00000000000E+00 0. -1.
          1    1    1    2  502    0  0.29935014725E+02 -0.27419509121E+02  0.14678596330E+03  0.15229594088E+03  0.00000000000E+00 0. -1.
         22    1    3    3    0    0 -0.12518840157E+02 -0.26129666513E+02 -0.39427325025E+02  0.48928466045E+02  0.00000000000E+00 0.  1.
         22    1    3    3    0    0 -0.15228740870E+02  0.14474618981E+03 -0.20924992473E+03  0.25488998609E+03  0.00000000000E+00 0.  1.
</event>
<event>
 7    1  0.6273950E-006  0.9337802E+02  0.7818608E-02  0.1397583E+00
          2   -1    0    0  502    0  0.00000000000E+00  0.00000000000E+00  0.11007939942E+04  0.11007939942E+04  0.00000000000E+00 0. -1.
          1   -1    0    0  501    0 -0.00000000000E+00 -0.00000000000E+00 -0.26710790318E+03  0.26710790318E+03  0.00000000000E+00 0. -1.
         25    2    1    2    0    0 -0.54678748965E+02 -0.11849988672E+03  0.93610483439E+02  0.20351754873E+03  0.12499792514E+03 0.  0.
          2    1    1    2  501    0  0.16301140080E+02  0.35021167515E+02 -0.20815697364E+03  0.21171097046E+03  0.00000000000E+00 0. -1.
          1    1    1    2  502    0  0.38377608884E+02  0.83478719207E+02  0.94823258121E+03  0.95267337818E+03  0.00000000000E+00 0. -1.
         22    1    3    3    0    0 -0.48813683199E+02  0.26509456667E+01  0.60509111030E+02  0.77789174683E+02  0.00000000000E+00 0. -1.
         22    1    3    3    0    0 -0.58650657660E+01 -0.12115083239E+03  0.33101372410E+02  0.12572837405E+03  0.00000000000E+00 0. -1.
</event>
<event>
 7    1  0.6273950E-006  0.2827469E+03  0.7818608E-02  0.1213888E+00
          2   -1    0    0  502    0  0.00000000000E+00  0.00000000000E+00  0.10947993541E+04  0.10947993541E+04  0.00000000000E+00 0. -1.
          1   -1    0    0  501    0 -0.00000000000E+00 -0.00000000000E+00 -0.11111181031E+04  0.11111181031E+04  0.00000000000E+00 0. -1.
         25    2    1    2    0    0  0.49013051221E+01  0.26107161653E+03  0.58097395316E+02  0.29526705113E+03  0.12499964955E+03 0.  0.
          2    1    1    2  501    0  0.66534034395E+02  0.17939058257E+02 -0.96869217747E+03  0.97114011463E+03  0.00000000000E+00 0. -1.
          1    1    1    2  502    0 -0.71435339518E+02 -0.27901067479E+03  0.89427603309E+03  0.93951029145E+03  0.00000000000E+00 0. -1.
         22    1    3    3    0    0  0.10171934247E+02  0.17644213560E+02  0.47351455577E+02  0.51545580448E+02  0.00000000000E+00 0.  1.
         22    1    3    3    0    0 -0.52706291250E+01  0.24342740297E+03  0.10745939739E+02  0.24372147068E+03  0.00000000000E+00 0.  1.
</event>
<event>
 7    1  0.6273950E-006  0.1408101E+03  0.7818608E-02  0.1349996E+00
          2   -1    0    0  502    0  0.00000000000E+00  0.00000000000E+00  0.12086588998E+04  0.12086588998E+04  0.00000000000E+00 0. -1.
          1   -1    0    0  501    0 -0.00000000000E+00 -0.00000000000E+00 -0.52355627783E+03  0.52355627783E+03  0.00000000000E+00 0. -1.
         25    2    1    2    0    0 -0.10668413823E+03 -0.80987172406E+02 -0.92269606675E+02  0.20513227723E+03  0.12500057361E+03 0.  0.
          2    1    1    2  501    0  0.21262506951E+02 -0.31378917497E+02 -0.36955960568E+03  0.37149836180E+03  0.00000000000E+00 0. -1.
          1    1    1    2  502    0  0.85421631276E+02  0.11236608990E+03  0.11469318343E+04  0.11555845386E+04  0.00000000000E+00 0. -1.
         22    1    3    3    0    0 -0.99216358067E+02 -0.84182153116E+02 -0.11953092653E+03  0.17668662374E+03  0.00000000000E+00 0. -1.
         22    1    3    3    0    0 -0.74677801604E+01  0.31949807094E+01  0.27261319856E+02  0.28445653491E+02  0.00000000000E+00 0. -1.
</event>
<event>
 7    1  0.6273950E-006  0.1445270E+03  0.7818608E-02  0.1276010E+00
          2   -1    0    0  502    0  0.00000000000E+00  0.00000000000E+00  0.38258551132E+03  0.38258551132E+03  0.00000000000E+00 0. -1.
          1   -1    0    0  501    0 -0.00000000000E+00 -0.00000000000E+00 -0.14784933107E+04  0.14784933107E+04  0.00000000000E+00 0. -1.
         25    2    1    2    0    0 -0.11839192811E+02  0.75464850519E+02  0.33984673738E+02  0.15038786803E+03  0.12500577048E+03 0.  0.
          2    1    1    2  501    0  0.56225311615E+01 -0.14727627728E+03 -0.14119233624E+04  0.14195948351E+04  0.00000000000E+00 0. -1.
          1    1    1    2  502    0  0.62166616494E+01  0.71811426757E+02  0.28203088928E+03  0.29109611884E+03  0.00000000000E+00 0. -1.
         22    1    3    3    0    0 -0.41216853074E+02  0.35949426897E+02 -0.35516458774E+02  0.65212031983E+02  0.00000000000E+00 0. -1.
         22    1    3    3    0    0  0.29377660263E+02  0.39515423622E+02  0.69501132512E+02  0.85175836051E+02  0.00000000000E+00 0. -1.
</event>
<event>
 7    1  0.6273950E-006  0.1021305E+03  0.7818608E-02  0.1364347E+00
          2   -1    0    0  502    0  0.00000000000E+00  0.00000000000E+00  0.11866442688E+03  0.11866442688E+03  0.00000000000E+00 0. -1.
          1   -1    0    0  501    0 -0.00000000000E+00 -0.00000000000E+00 -0.54134221945E+03  0.54134221945E+03  0.00000000000E+00 0. -1.
         25    2    1    2    0    0 -0.12039697145E+03  0.51890540791E+01 -0.36354587430E+03  0.40288078093E+03  0.12499985561E+03 0.  0.
          2    1    1    2  501    0  0.84911438347E+02 -0.34926755263E+02 -0.13795287304E+03  0.16571308269E+03  0.00000000000E+00 0. -1.
          1    1    1    2  502    0  0.35485533105E+02  0.29737701184E+02  0.78820954772E+02  0.91412782710E+02  0.00000000000E+00 0. -1.
         22    1    3    3    0    0 -0.61573736114E+02 -0.33177497802E+02 -0.30040717124E+03  0.30844211754E+03  0.00000000000E+00 0. -1.
         22    1    3    3    0    0 -0.58823235337E+02  0.38366551881E+02 -0.63138703065E+02  0.94438663394E+02  0.00000000000E+00 0. -1.
</event>
<event>
 7    1  0.6273950E-006  0.6546926E+02  0.7818608E-02  0.1417819E+00
          2   -1    0    0  502    0  0.00000000000E+00  0.00000000000E+00  0.50769603003E+03  0.50769603003E+03  0.00000000000E+00 0. -1.
          1   -1    0    0  501    0 -0.00000000000E+00 -0.00000000000E+00 -0.35732392258E+03  0.35732392258E+03  0.00000000000E+00 0. -1.
         25    2    1    2    0    0 -0.53687392850E+01  0.87537227407E+02 -0.13163195370E+02  0.15326361535E+03  0.12499950614E+03 0.  0.
          2    1    1    2  501    0  0.37368529726E+02 -0.53081292351E+02 -0.26897483299E+03  0.27669747269E+03  0.00000000000E+00 0. -1.
          1    1    1    2  502    0 -0.31999790441E+02 -0.34455935056E+02  0.43251013581E+03  0.43505886456E+03  0.00000000000E+00 0. -1.
         22    1    3    3    0    0  0.44270318721E+02  0.84163167308E+02 -0.31592143758E+02  0.10020660357E+03  0.00000000000E+00 0.  1.
         22    1    3    3    0    0 -0.49639058006E+02  0.33740600991E+01  0.18428948387E+02  0.53057011789E+02  0.00000000000E+00 0.  1.
</event>
<event>
 7    1  0.6273950E-006  0.1463537E+03  0.7818608E-02  0.1261116E+00
          2   -1    0    0  502    0  0.00000000000E+00  0.00000000000E+00  0.18086636364E+04  0.18086636364E+04  0.00000000000E+00 0. -1.
          1   -1    0    0  501    0 -0.00000000000E+00 -0.00000000000E+00 -0.82636610653E+02  0.82636610653E+02  0.00000000000E+00 0. -1.
         25    2    1    2    0    0  0.19261792850E+03  0.67005714468E+02  0.79680821403E+03  0.83193824222E+03  0.12500590691E+03 0.  0.
          2    1    1    2  501    0 -0.82005112275E+02  0.61426185280E+01 -0.32587746620E+02  0.88456381519E+02  0.00000000000E+00 0. -1.
          1    1    1    2  502    0 -0.11061281622E+03 -0.73148332996E+02  0.96180655829E+03  0.97090562327E+03  0.00000000000E+00 0. -1.
         22    1    3    3    0    0  0.85289676132E+02 -0.30974238939E+02  0.24330222221E+03  0.25967230054E+03  0.00000000000E+00 0.  1.
         22    1    3    3    0    0  0.10732825237E+03  0.97979953407E+02  0.55350599182E+03  0.57226594168E+03  0.00000000000E+00 0.  1.
</event>
<event>
 7    1  0.7010339E-006  0.6784151E+02  0.7818608E-02  0.1374171E+00
          2   -1    0    0  502    0  0.00000000000E+00  0.00000000000E+00  0.90549192578E+03  0.90549192578E+03  0.00000000000E+00 0. -1.
          1   -1    0    0  501    0 -0.00000000000E+00 -0.00000000000E+00 -0.97480331291E+03  0.97480331291E+03  0.00000000000E+00 0. -1.
         25    2    1    2    0    0 -0.73792911805E+02  0.10289444023E+03 -0.21260103152E+03  0.27722979070E+03  0.12499799432E+03 0.  0.
          2    1    1    2  501    0  0.21031351931E+02 -0.60709685397E+02 -0.72716279768E+03  0.72999569724E+03  0.00000000000E+00 0. -1.
          1    1    1    2  502    0  0.52761559873E+02 -0.42184754832E+02  0.87045244208E+03  0.87306975074E+03  0.00000000000E+00 0. -1.
         22    1    3    3    0    0 -0.10653700803E+03  0.95601155015E+02 -0.15847572882E+03  0.21355156648E+03  0.00000000000E+00 0. -1.
         22    1    3    3    0    0  0.32744096229E+02  0.72932852137E+01 -0.54125302703E+02  0.63678224219E+02  0.00000000000E+00 0. -1.
</event>
<event>
 7    1  0.6273950E-006  0.6227319E+02  0.7818608E-02  0.1393863E+00
          2   -1    0    0  502    0  0.00000000000E+00  0.00000000000E+00  0.26024504191E+04  0.26024504191E+04  0.00000000000E+00 0. -1.
          1   -1    0    0  501    0 -0.00000000000E+00 -0.00000000000E+00 -0.34046973212E+02  0.34046973212E+02  0.00000000000E+00 0. -1.
         25    2    1    2    0    0 -0.60871073678E+02 -0.91245835813E+02  0.26859196542E+03  0.31590746481E+03  0.12499916906E+03 0.  0.
          2    1    1    2  501    0  0.51345951155E+02  0.30392174195E+02  0.79378292629E+02  0.99302589558E+02  0.00000000000E+00 0. -1.
          1    1    1    2  502    0  0.95251225233E+01  0.60853661617E+02  0.22204331878E+04  0.22212873379E+04  0.00000000000E+00 0. -1.
         22    1    3    3    0    0  0.46926061459E+01  0.27213158806E+02  0.72804626052E+02  0.77865847065E+02  0.00000000000E+00 0.  1.
         22    1    3    3    0    0 -0.65563679824E+02 -0.11845899462E+03  0.19578733937E+03  0.23804161774E+03  0.00000000000E+00 0.  1.
</event>
<event>
 7    1  0.6273950E-006  0.1043483E+03  0.7818608E-02  0.1368764E+00
          2   -1    0    0  502    0  0.00000000000E+00  0.00000000000E+00  0.20005297598E+03  0.20005297598E+03  0.00000000000E+00 0. -1.
          1   -1    0    0  501    0 -0.00000000000E+00 -0.00000000000E+00 -0.11777027059E+04  0.11777027059E+04  0.00000000000E+00 0. -1.
         25    2    1    2    0    0 -0.11656000042E+03  0.64873559568E+02 -0.26558777693E+02  0.18473025643E+03  0.12500034616E+03 0.  0.
          2    1    1    2  501    0  0.73616975161E+02 -0.72859690096E+02 -0.10655204694E+04  0.10705427895E+04  0.00000000000E+00 0. -1.
          1    1    1    2  502    0  0.42943025262E+02  0.79861305279E+01  0.11442951718E+03  0.12248263592E+03  0.00000000000E+00 0. -1.
         22    1    3    3    0    0 -0.11950840156E+03  0.50775433724E+02  0.24098738313E+02  0.13206495335E+03  0.00000000000E+00 0.  1.
         22    1    3    3    0    0  0.29484011395E+01  0.14098125844E+02 -0.50657516006E+02  0.52665303090E+02  0.00000000000E+00 0.  1.
</event>
<event>
 7    1  0.6273950E-006  0.6045417E+02  0.7818608E-02  0.1523275E+00
          2   -1    0    0  502    0  0.00000000000E+00  0.00000000000E+00  0.26325730779E+03  0.26325730779E+03  0.00000000000E+00 0. -1.
          1   -1    0    0  501    0 -0.00000000000E+00 -0.00000000000E+00 -0.56485716824E+03  0.56485716824E+03  0.00000000000E+00 0. -1.
         25    2    1    2    0    0 -0.37443774645E+02 -0.48290103323E+02 -0.59384290382E+02  0.15128211722E+03  0.12500325879E+03 0.  0.
          2    1    1    2  501    0  0.52735725620E+02  0.29901190248E+02 -0.45685747772E+03  0.46086211917E+03  0.00000000000E+00 0. -1.
          1    1    1    2  502    0 -0.15291950975E+02  0.18388913075E+02  0.21464190765E+03  0.21597023964E+03  0.00000000000E+00 0. -1.
         22    1    3    3    0    0 -0.53115553498E+02 -0.52782526319E+00  0.20467989518E+02  0.56925207227E+02  0.00000000000E+00 0. -1.
         22    1    3    3    0    0  0.15671778853E+02 -0.47762278060E+02 -0.79852279900E+02  0.94356909992E+02  0.00000000000E+00 0. -1.
</event>
<event>
 7    1  0.6273950E-006  0.8702657E+02  0.7818608E-02  0.1375364E+00
          2   -1    0    0  502    0  0.00000000000E+00  0.00000000000E+00  0.10821327150E+03  0.10821327150E+03  0.00000000000E+00 0. -1.
          1   -1    0    0  501    0 -0.00000000000E+00 -0.00000000000E+00 -0.12372684170E+04  0.12372684170E+04  0.00000000000E+00 0. -1.
         25    2    1    2    0    0 -0.44366193250E+02  0.38843766845E+02 -0.77039440025E+02  0.15823715147E+03  0.12500689365E+03 0.  0.
          2    1    1    2  501    0 -0.48306095387E+02 -0.11242354891E+02 -0.10841999015E+04  0.10853337255E+04  0.00000000000E+00 0. -1.
          1    1    1    2  502    0  0.92672288636E+02 -0.27601411954E+02  0.32184196024E+02  0.10191081148E+03  0.00000000000E+00 0. -1.
         22    1    3    3    0    0  0.24934705463E+02  0.57482899621E+02 -0.54424935771E+02  0.82994559575E+02  0.00000000000E+00 0. -1.
         22    1    3    3    0    0 -0.69300898713E+02 -0.18639132776E+02 -0.22614504254E+02  0.75242591899E+02  0.00000000000E+00 0. -1.
</event>
<event>
 7    1  0.6273950E-006  0.1317291E+03  0.7818608E-02  0.1291910E+00
          2   -1    0    0  502    0  0.00000000000E+00  0.00000000000E+00  0.30198259044E+04  0.30198259044E+04  0.00000000000E+00 0. -1.
          1   -1    0    0  501    0 -0.00000000000E+00 -0.00000000000E+00 -0.13762966667E+03  0.13762966667E+03  0.00000000000E+00 0. -1.
         25    2    1    2    0    0 -0.45328003827E+02 -0.52695193674E+02  0.39541978817E+03  0.42048646570E+03  0.12498258913E+03 0.  0.
          2    1    1    2  501    0  0.87273149296E+02  0.10627287698E+03 -0.86718357697E+02  0.16257490744E+03  0.00000000000E+00 0. -1.
          1    1    1    2  502    0 -0.41945145470E+02 -0.53577683302E+02  0.25734948072E+04  0.25743941979E+04  0.00000000000E+00 0. -1.
         22    1    3    3    0    0  0.23124548301E+01 -0.85185552023E+02  0.22700869157E+03  0.24247653859E+03  0.00000000000E+00 0.  1.
         22    1    3    3    0    0 -0.47640458657E+02  0.32490358348E+02  0.16841109661E+03  0.17800992710E+03  0.00000000000E+00 0.  1.
</event>
<event>
 7    1  0.6273950E-006  0.3953807E+02  0.7818608E-02  0.1549274E+00
          2   -1    0    0  502    0  0.00000000000E+00  0.00000000000E+00  0.29060572925E+03  0.29060572925E+03  0.00000000000E+00 0. -1.
          1   -1    0    0  501    0 -0.00000000000E+00 -0.00000000000E+00 -0.23398080568E+04  0.23398080568E+04  0.00000000000E+00 0. -1.
         25    2    1    2    0    0  0.87264640818E+01  0.15280782053E+02 -0.66141234412E+03  0.67335035761E+03  0.12499904664E+03 0.  0.
          2    1    1    2  501    0  0.30017547510E+02 -0.71132515427E+01 -0.16709066189E+04  0.16711913656E+04  0.00000000000E+00 0. -1.
          1    1    1    2  502    0 -0.38744011592E+02 -0.81675305102E+01  0.28311663549E+03  0.28587206278E+03  0.00000000000E+00 0. -1.
         22    1    3    3    0    0  0.25572367589E+02  0.48791142046E+02 -0.13789093366E+03  0.14848714123E+03  0.00000000000E+00 0.  1.
         22    1    3    3    0    0 -0.16845903507E+02 -0.33510359993E+02 -0.52352141047E+03  0.52486321638E+03  0.00000000000E+00 0.  1.
</event>
<event>
 7    1  0.6273950E-006  0.1761671E+03  0.7818608E-02  0.1272664E+00
          2   -1    0    0  502    0  0.00000000000E+00  0.00000000000E+00  0.22282273142E+04  0.22282273142E+04  0.00000000000E+00 0. -1.
          1   -1    0    0  501    0 -0.00000000000E+00 -0.00000000000E+00 -0.24380528737E+03  0.24380528737E+03  0.00000000000E+00 0. -1.
         25    2    1    2    0    0  0.52198224480E+01 -0.12045570374E+03  0.40492574142E+03  0.44059463175E+03  0.12498780081E+03 0.  0.
          2    1    1    2  501    0 -0.18877220086E+02  0.17997390386E+03 -0.18913004127E+03  0.26175776592E+03  0.00000000000E+00 0. -1.
          1    1    1    2  502    0  0.13657397638E+02 -0.59518200120E+02  0.17686263267E+04  0.17696802039E+04  0.00000000000E+00 0. -1.
         22    1    3    3    0    0 -0.28208697974E+02 -0.82185602659E+02  0.10451935284E+03  0.13592092938E+03  0.00000000000E+00 0.  1.
         22    1    3    3    0    0  0.33428520422E+02 -0.38270101076E+02  0.30040638858E+03  0.30467370237E+03  0.00000000000E+00 0.  1.
</event>
<event>
 7    1  0.6273950E-006  0.1435276E+03  0.7818608E-02  0.1307155E+00
          2   -1    0    0  502    0  0.00000000000E+00  0.00000000000E+00  0.48863970053E+03  0.48863970053E+03  0.00000000000E+00 0. -1.
          1   -1    0    0  501    0 -0.00000000000E+00 -0.00000000000E+00 -0.14550782459E+04  0.14550782459E+04  0.00000000000E+00 0. -1.
         25    2    1    2    0    0  0.13502572998E+03 -0.38394516181E+02  0.47002461642E+02  0.19375189847E+03  0.12499792051E+03 0.  0.
          2    1    1    2  501    0  0.10018658650E+02  0.53324289178E+02 -0.13667109561E+04  0.13677875167E+04  0.00000000000E+00 0. -1.
          1    1    1    2  502    0 -0.14504438863E+03 -0.14929772997E+02  0.35326994910E+03  0.38217853123E+03  0.00000000000E+00 0. -1.
         22    1    3    3    0    0  0.64304737386E+02  0.17725227387E+02  0.73896699497E+02  0.99549008698E+02  0.00000000000E+00 0. -1.
         22    1    3    3    0    0  0.70720992599E+02 -0.56119743568E+02 -0.26894237855E+02  0.94202889776E+02  0.00000000000E+00 0. -1.
</event>
<event>
 7    1  0.6273950E-006  0.1067332E+03  0.7818608E-02  0.1312516E+00
          2   -1    0    0  502    0  0.00000000000E+00  0.00000000000E+00  0.93062321215E+03  0.93062321215E+03  0.00000000000E+00 0. -1.
          1   -1    0    0  501    0 -0.00000000000E+00 -0.00000000000E+00 -0.13768917439E+04  0.13768917439E+04  0.00000000000E+00 0. -1.
         25    2    1    2    0    0 -0.15659486991E+03 -0.35874501331E+02 -0.29064351269E+03  0.35483402767E+03  0.12499841037E+03 0.  0.
          2    1    1    2  501    0  0.88974918785E+02  0.51914555904E+02 -0.10502855494E+04  0.10553252544E+04  0.00000000000E+00 0. -1.
          1    1    1    2  502    0  0.67619951121E+02 -0.16040054573E+02  0.89466053033E+03  0.89735567400E+03  0.00000000000E+00 0. -1.
         22    1    3    3    0    0 -0.13904972820E+03  0.23876966757E+02 -0.19440660121E+03  0.24020587638E+03  0.00000000000E+00 0. -1.
         22    1    3    3    0    0 -0.17545141703E+02 -0.59751468088E+02 -0.96236911479E+02  0.11462815129E+03  0.00000000000E+00 0. -1.
</event>
<event>
 7    1  0.6273950E-006  0.6566980E+02  0.7818608E-02  0.1401317E+00
          2   -1    0    0  502    0  0.00000000000E+00  0.00000000000E+00  0.82205443769E+03  0.82205443769E+03  0.00000000000E+00 0. -1.
          1   -1    0    0  501    0 -0.00000000000E+00 -0.00000000000E+00 -0.43194020667E+02  0.43194020667E+02  0.00000000000E+00 0. -1.
         25    2    1    2    0    0  0.24301933218E+01  0.61006141923E+02  0.17376615412E+03  0.22259874242E+03  0.12501147393E+03 0.  0.
          2    1    1    2  501    0 -0.54327080393E+02 -0.48740169913E+02  0.58709468266E+02  0.93668764758E+02  0.00000000000E+00 0. -1.
          1    1    1    2  502    0  0.51896887071E+02 -0.12265972010E+02  0.54638479463E+03  0.54898095118E+03  0.00000000000E+00 0. -1.
         22    1    3    3    0    0 -0.18453008462E+02  0.85694113648E+02  0.16836117145E+03  0.18981432687E+03  0.00000000000E+00 0.  1.
         22    1    3    3    0    0  0.20883201784E+02 -0.24687971725E+02  0.54049826757E+01  0.32784415541E+02  0.00000000000E+00 0.  1.
</event>
<event>
 7    1  0.6273950E-006  0.8288083E+02  0.7818608E-02  0.1377613E+00
          2   -1    0    0  502    0  0.00000000000E+00  0.00000000000E+00  0.28440762517E+03  0.28440762517E+03  0.00000000000E+00 0. -1.
          1   -1    0    0  501    0 -0.00000000000E+00 -0.00000000000E+00 -0.95870092021E+03  0.95870092021E+03  0.00000000000E+00 0. -1.
         25    2    1    2    0    0  0.33286364459E+02  0.12700350599E+03 -0.11828219432E+03  0.21646010823E+03  0.12500571333E+03 0.  0.
          2    1    1    2  501    0 -0.19312672334E+02 -0.47338816371E+02 -0.78352206556E+03  0.78518836598E+03  0.00000000000E+00 0. -1.
          1    1    1    2  502    0 -0.13973692126E+02 -0.79664689623E+02  0.22751096485E+03  0.24146007117E+03  0.00000000000E+00 0. -1.
         22    1    3    3    0    0  0.81219577116E+01 -0.14379875936E+02 -0.58710171463E+02  0.60988779806E+02  0.00000000000E+00 0. -1.
         22    1    3    3    0    0  0.25164406747E+02  0.14138338193E+03 -0.59572022861E+02  0.15547132842E+03  0.00000000000E+00 0. -1.
</event>
<event>
 7    1  0.6273950E-006  0.7980156E+02  0.7818608E-02  0.1353143E+00
          2   -1    0    0  502    0  0.00000000000E+00  0.00000000000E+00  0.11704647095E+04  0.11704647095E+04  0.00000000000E+00 0. -1.
          1   -1    0    0  501    0 -0.00000000000E+00 -0.00000000000E+00 -0.18043055549E+03  0.18043055549E+03  0.00000000000E+00 0. -1.
         25    2    1    2    0    0 -0.10275435821E+03 -0.14086999138E+02  0.26060041750E+03  0.30707425084E+03  0.12500046501E+03 0.  0.
          2    1    1    2  501    0  0.34594400863E+02  0.55164880927E+02 -0.14857277939E+03  0.16221531196E+03  0.00000000000E+00 0. -1.
          1    1    1    2  502    0  0.68159957349E+02 -0.41077881790E+02  0.87800651587E+03  0.88160570215E+03  0.00000000000E+00 0. -1.
         22    1    3    3    0    0 -0.79644430224E+02  0.31224293654E+02  0.23509041498E+03  0.25017133128E+03  0.00000000000E+00 0.  1.
         22    1    3    3    0    0 -0.23109927987E+02 -0.45311292791E+02  0.25510002520E+02  0.56902919561E+02  0.00000000000E+00 0.  1.
</event>
<event>
 7    1  0.6273950E-006  0.9912149E+02  0.7818608E-02  0.1409597E+00
          2   -1    0    0  502    0  0.00000000000E+00  0.00000000000E+00  0.19278743387E+04  0.19278743387E+04  0.00000000000E+00 0. -1.
          1   -1    0    0  501    0 -0.00000000000E+00 -0.00000000000E+00 -0.41123153480E+03  0.41123153480E+03  0.00000000000E+00 0. -1.
         25    2    1    2    0    0  0.40725116744E+02  0.11092220230E+03 -0.19071346700E+02  0.17306449607E+03  0.12500133375E+03 0.  0.
          2    1    1    2  501    0 -0.30643027954E+02 -0.12528277975E+02 -0.31296857364E+03  0.31471460245E+03  0.00000000000E+00 0. -1.
          1    1    1    2  502    0 -0.10082088790E+02 -0.98393924322E+02  0.18486827243E+04  0.18513267750E+04  0.00000000000E+00 0. -1.
         22    1    3    3    0    0  0.53289056705E+02  0.80785365059E+02 -0.65096332699E+02  0.11663417725E+03  0.00000000000E+00 0.  1.
         22    1    3    3    0    0 -0.12563939961E+02  0.30136837238E+02  0.46024985998E+02  0.56430318820E+02  0.00000000000E+00 0.  1.
</event>
<event>
 7    1  0.6273950E-006  0.2514407E+03  0.7818608E-02  0.1250542E+00
          2   -1    0    0  502    0  0.00000000000E+00  0.00000000000E+00  0.35898064887E+03  0.35898064887E+03  0.00000000000E+00 0. -1.
          1   -1    0    0  501    0 -0.00000000000E+00 -0.00000000000E+00 -0.79238370030E+03  0.79238370030E+03  0.00000000000E+00 0. -1.
         25    2    1    2    0    0 -0.66370726582E+02 -0.21604928761E+03 -0.75534776605E+02  0.26909536187E+03  0.12499777309E+03 0.  0.
          2    1    1    2  501    0  0.11727483684E+03  0.23131769214E+03 -0.58981280937E+03  0.64431390808E+03  0.00000000000E+00 0. -1.
          1    1    1    2  502    0 -0.50904110260E+02 -0.15268404526E+02  0.23194453455E+03  0.23795507922E+03  0.00000000000E+00 0. -1.
         22    1    3    3    0    0  0.14429162515E+02 -0.15570547574E+03 -0.57732847059E+02  0.16668976434E+03  0.00000000000E+00 0.  1.
         22    1    3    3    0    0 -0.80799889097E+02 -0.60343811867E+02 -0.17801929547E+02  0.10240559752E+03  0.00000000000E+00 0.  1.
</event>
<event>
 7    1  0.6273950E-006  0.1331849E+03  0.7818608E-02  0.1341139E+00
          2   -1    0    0  502    0  0.00000000000E+00  0.00000000000E+00  0.37914265331E+03  0.37914265331E+03  0.00000000000E+00 0. -1.
          1   -1    0    0  501    0 -0.00000000000E+00 -0.00000000000E+00 -0.32416395873E+04  0.32416395873E+04  0.00000000000E+00 0. -1.
         25    2    1    2    0    0  0.17348576362E+03 -0.76839984237E+01 -0.10919605464E+03  0.24021660456E+03  0.12499553890E+03 0.  0.
          2    1    1    2  501    0 -0.13123389980E+03  0.16884856742E+02 -0.30640081320E+04  0.30668637511E+04  0.00000000000E+00 0. -1.
          1    1    1    2  502    0 -0.42251863827E+02 -0.92008583178E+01  0.31070725264E+03  0.31370188497E+03  0.00000000000E+00 0. -1.
         22    1    3    3    0    0  0.17447495918E+03  0.26274516576E+02 -0.10660105133E+03  0.20614472039E+03  0.00000000000E+00 0. -1.
         22    1    3    3    0    0 -0.98919555325E+00 -0.33958514999E+02 -0.25950033186E+01  0.34071884172E+02  0.00000000000E+00 0. -1.
</event>
<event>
 7    1  0.6273950E-006  0.1062973E+03  0.7818608E-02  0.1387739E+00
          2   -1    0    0  502    0  0.00000000000E+00  0.00000000000E+00  0.46563894448E+03  0.46563894448E+03  0.00000000000E+00 0. -1.
          1   -1    0    0  501    0 -0.00000000000E+00 -0.00000000000E+00 -0.28247606082E+03  0.28247606082E+03  0.00000000000E+00 0. -1.
         25    2    1    2    0    0 -0.11243208185E+03  0.62811481292E+02  0.98203672222E+02  0.20458564332E+03  0.12500027602E+03 0.  0.
          2    1    1    2  501    0  0.36120526870E+02  0.65863806242E+01 -0.21925289678E+03  0.22230588300E+03  0.00000000000E+00 0. -1.
          1    1    1    2  502    0  0.76311554977E+02 -0.69397861917E+02  0.30421210821E+03  0.32122347897E+03  0.00000000000E+00 0. -1.
         22    1    3    3    0    0 -0.11433282449E+03  0.21561908151E+02  0.22720609734E+02  0.11854592674E+03  0.00000000000E+00 0. -1.
         22    1    3    3    0    0  0.19007426465E+01  0.41249573141E+02  0.75483062488E+02  0.86039716582E+02  0.00000000000E+00 0. -1.
</event>
<event>
 7    1  0.6273950E-006  0.1027976E+03  0.7818608E-02  0.1335111E+00
          2   -1    0    0  502    0  0.00000000000E+00  0.00000000000E+00  0.24867757980E+04  0.24867757980E+04  0.00000000000E+00 0. -1.
          1   -1    0    0  501    0 -0.00000000000E+00 -0.00000000000E+00 -0.21351914131E+04  0.21351914131E+04  0.00000000000E+00 0. -1.
         25    2    1    2    0    0 -0.33757758667E+02  0.10187704852E+03  0.90831680293E+03  0.92313712833E+03  0.12499689568E+03 0.  0.
          2    1    1    2  501    0  0.79760780385E+02 -0.64876783875E+02 -0.21259838787E+04  0.21284685179E+04  0.00000000000E+00 0. -1.
          1    1    1    2  502    0 -0.46003021717E+02 -0.37000264646E+02  0.15692514607E+04  0.15703615649E+04  0.00000000000E+00 0. -1.
         22    1    3    3    0    0 -0.32085369986E+02 -0.22997559905E+02  0.19217319133E+03  0.19618586645E+03  0.00000000000E+00 0.  1.
         22    1    3    3    0    0 -0.16723886810E+01  0.12487460843E+03  0.71614361160E+03  0.72695126188E+03  0.00000000000E+00 0.  1.
</event>
<event>
 7    1  0.6273950E-006  0.8563549E+02  0.7818608E-02  0.1368992E+00
          2   -1    0    0  502    0  0.00000000000E+00  0.00000000000E+00  0.16195150075E+04  0.16195150075E+04  0.00000000000E+00 0. -1.
          1   -1    0    0  501    0 -0.00000000000E+00 -0.00000000000E+00 -0.10414612403E+03  0.10414612403E+03  0.00000000000E+00 0. -1.
         25    2    1    2    0    0 -0.11817112052E+03 -0.40064432082E+02  0.72983480475E+03  0.75090186683E+03  0.12500079575E+03 0.  0.
          2    1    1    2  501    0  0.38702511255E+02  0.36389876316E+02 -0.84111305562E+02  0.99482758300E+02  0.00000000000E+00 0. -1.
          1    1    1    2  502    0  0.79468609269E+02  0.36745557659E+01  0.86964538427E+03  0.87327650638E+03  0.00000000000E+00 0. -1.
         22    1    3    3    0    0 -0.99629890905E+02 -0.55418445438E+02  0.71167132776E+03  0.72074502982E+03  0.00000000000E+00 0. -1.
         22    1    3    3    0    0 -0.18541229619E+02  0.15354013356E+02  0.18163476990E+02  0.30156837008E+02  0.00000000000E+00 0. -1.
</event>
<event>
 7    1  0.6273950E-006  0.5778479E+02  0.7818608E-02  0.1417357E+00
          2   -1    0    0  502    0  0.00000000000E+00  0.00000000000E+00  0.40071211723E+04  0.40071211723E+04  0.00000000000E+00 0. -1.
          1   -1    0    0  501    0 -0.00000000000E+00 -0.00000000000E+00 -0.41565812011E+03  0.41565812011E+03  0.00000000000E+00 0. -1.
         25    2    1    2    0    0  0.43711326980E+02  0.92142098864E+02  0.92518666125E+03  0.93914661261E+03  0.12500062137E+03 0.  0.
          2    1    1    2  501    0 -0.39619466874E+02 -0.35903271194E+02 -0.40666960944E+03  0.41016937755E+03  0.00000000000E+00 0. -1.
          1    1    1    2  502    0 -0.40918601053E+01 -0.56238827670E+02  0.30729460004E+04  0.30734633023E+04  0.00000000000E+00 0. -1.
         22    1    3    3    0    0 -0.33669876733E+02  0.10486573931E+02  0.94288994656E+02  0.10066798570E+03  0.00000000000E+00 0.  1.
         22    1    3    3    0    0  0.77381203712E+02  0.81655524933E+02  0.83089766659E+03  0.83847862691E+03  0.00000000000E+00 0.  1.
</event>
<event>
 7    1  0.6273950E-006  0.6639605E+02  0.7818608E-02  0.1394209E+00
          2   -1    0    0  502    0  0.00000000000E+00  0.00000000000E+00  0.46917009634E+03  0.46917009634E+03  0.00000000000E+00 0. -1.
          1   -1    0    0  501    0 -0.00000000000E+00 -0.00000000000E+00 -0.76668898830E+03  0.76668898830E+03  0.00000000000E+00 0. -1.
         25    2    1    2    0    0  0.83760519425E+02  0.36192528800E+01  0.20763909534E+03  0.25645309059E+03  0.12500108062E+03 0.  0.
          2    1    1    2  501    0 -0.32273746842E+02 -0.45528682974E+02 -0.73655902277E+03  0.73867019010E+03  0.00000000000E+00 0. -1.
          1    1    1    2  502    0 -0.51486772583E+02  0.41909430094E+02  0.23140103548E+03  0.24073580395E+03  0.00000000000E+00 0. -1.
         22    1    3    3    0    0 -0.16038666300E+02  0.43227269287E+01  0.12717336122E+03  0.12825361043E+03  0.00000000000E+00 0. -1.
         22    1    3    3    0    0  0.99799185725E+02 -0.70347404873E+00  0.80465734118E+02  0.12819948016E+03  0.00000000000E+00 0. -1.
</event>
<event>
 7    1  0.6273950E-006  0.6325933E+02  0.7818608E-02  0.1488372E+00
          2   -1    0    0  502    0  0.00000000000E+00  0.00000000000E+00  0.71779337820E+03  0.71779337820E+03  0.00000000000E+00 0. -1.
          1   -1    0    0  501    0 -0.00000000000E+00 -0.00000000000E+00 -0.13978972040E+03  0.13978972040E+03  0.00000000000E+00 0. -1.
         25    2    1    2    0    0 -0.71012270513E+02 -0.35877150608E+02  0.26358629239E+03  0.30237781131E+03  0.12499877895E+03 0.  0.
          2    1    1    2  501    0  0.97824332619E+01  0.27296153800E+02 -0.11640852493E+03  0.11996549791E+03  0.00000000000E+00 0. -1.
          1    1    1    2  502    0  0.61229837251E+02  0.85809968085E+01  0.43082589033E+03  0.43523978938E+03  0.00000000000E+00 0. -1.
         22    1    3    3    0    0 -0.81683768277E+02  0.23240672119E+02  0.18410020955E+03  0.20274430694E+03  0.00000000000E+00 0.  1.
         22    1    3    3    0    0  0.10671497764E+02 -0.59117822727E+02  0.79486082839E+02  0.99633504372E+02  0.00000000000E+00 0.  1.
</event>
<event>
 7    1  0.6273950E-006  0.3682191E+03  0.7818608E-02  0.1312788E+00
          2   -1    0    0  502    0  0.00000000000E+00  0.00000000000E+00  0.69240023436E+03  0.69240023436E+03  0.00000000000E+00 0. -1.
          1   -1    0    0  501    0 -0.00000000000E+00 -0.00000000000E+00 -0.55381750648E+03  0.55381750648E+03  0.00000000000E+00 0. -1.
         25    2    1    2    0    0 -0.21091594093E+03  0.29909526261E+03 -0.47184573460E+02  0.38960826546E+03  0.12499882514E+03 0.  0.
          2    1    1    2  501    0  0.14861059671E+02  0.13526160636E+02 -0.26968347337E+03  0.27043110754E+03  0.00000000000E+00 0. -1.
          1    1    1    2  502    0  0.19605488125E+03 -0.31262142325E+03  0.45545077471E+03  0.58617836784E+03  0.00000000000E+00 0. -1.
         22    1    3    3    0    0 -0.21929536706E+03  0.26117026943E+03 -0.18882552444E+02  0.34155075529E+03  0.00000000000E+00 0. -1.
         22    1    3    3    0    0  0.83794261391E+01  0.37924993182E+02 -0.28302021016E+02  0.48057510171E+02  0.00000000000E+00 0. -1.
</event>
<event>
 7    1  0.6273950E-006  0.4353532E+02  0.7818608E-02  0.1534514E+00
          2   -1    0    0  502    0  0.00000000000E+00  0.00000000000E+00  0.68225719676E+02  0.68225719676E+02  0.00000000000E+00 0. -1.
          1   -1    0    0  501    0 -0.00000000000E+00 -0.00000000000E+00 -0.25981787707E+03  0.25981787707E+03  0.00000000000E+00 0. -1.
         25    2    1    2    0    0  0.36307503428E+02 -0.45228584039E+02 -0.10500845559E+03  0.17326753855E+03  0.12502401590E+03 0.  0.
          2    1    1    2  501    0 -0.56111917671E+01  0.42316034463E+02 -0.10873253641E+03  0.11681137239E+03  0.00000000000E+00 0. -1.
          1    1    1    2  502    0 -0.30696311661E+02  0.29125495766E+01  0.22148834595E+02  0.37964685808E+02  0.00000000000E+00 0. -1.
         22    1    3    3    0    0  0.38014492517E+02 -0.87389297732E+02 -0.67181858841E+02  0.11659928455E+03  0.00000000000E+00 0. -1.
         22    1    3    3    0    0 -0.17069890890E+01  0.42160713693E+02 -0.37826596746E+02  0.56668254007E+02  0.00000000000E+00 0. -1.
</event>
<event>
 7    1  0.6273950E-006  0.2363439E+03  0.7818608E-02  0.1169063E+00
          2   -1    0    0  502    0  0.00000000000E+00  0.00000000000E+00  0.67682230537E+03  0.67682230537E+03  0.00000000000E+00 0. -1.
          1   -1    0    0  501    0 -0.00000000000E+00 -0.00000000000E+00 -0.86536780203E+03  0.86536780203E+03  0.00000000000E+00 0. -1.
         25    2    1    2    0    0 -0.19368261592E+03  0.70248823363E+02 -0.14088146240E+03  0.27914139639E+03  0.12499791934E+03 0.  0.
          2    1    1    2  501    0  0.49131136846E+02  0.12587321515E+03 -0.62340434930E+03  0.63788001820E+03  0.00000000000E+00 0. -1.
          1    1    1    2  502    0  0.14455147907E+03 -0.19612203851E+03  0.57574031504E+03  0.62516869280E+03  0.00000000000E+00 0. -1.
         22    1    3    3    0    0 -0.15257580476E+03 -0.50507827549E+01 -0.70389899966E+02  0.16810599222E+03  0.00000000000E+00 0.  1.
         22    1    3    3    0    0 -0.41106811163E+02  0.75299606118E+02 -0.70491562433E+02  0.11103540417E+03  0.00000000000E+00 0.  1.
</event>
<event>
 7    1  0.6273950E-006  0.7624086E+02  0.7818608E-02  0.1344298E+00
          2   -1    0    0  502    0  0.00000000000E+00  0.00000000000E+00  0.26905824335E+04  0.26905824335E+04  0.00000000000E+00 0. -1.
          1   -1    0    0  501    0 -0.00000000000E+00 -0.00000000000E+00 -0.74632994618E+02  0.74632994618E+02  0.00000000000E+00 0. -1.
         25    2    1    2    0    0  0.74172540326E+02 -0.12445585292E+03  0.52521571419E+03  0.55898795191E+03  0.12500063553E+03 0.  0.
          2    1    1    2  501    0 -0.48281720227E+02  0.55429004915E+02 -0.33452423126E+02  0.80762390424E+02  0.00000000000E+00 0. -1.
          1    1    1    2  502    0 -0.25890820099E+02  0.69026848009E+02  0.21241861478E+04  0.21254650858E+04  0.00000000000E+00 0. -1.
         22    1    3    3    0    0  0.27834069179E+02 -0.10126239766E+03  0.16863668543E+03  0.19866338429E+03  0.00000000000E+00 0. -1.
         22    1    3    3    0    0  0.46338471147E+02 -0.23193455268E+02  0.35657902876E+03  0.36032456762E+03  0.00000000000E+00 0. -1.
</event>
<event>
 7    1  0.6273950E-006  0.4303081E+02  0.7818608E-02  0.1517144E+00
          2   -1    0    0  502    0  0.00000000000E+00  0.00000000000E+00  0.97164774409E+02  0.97164774409E+02  0.00000000000E+00 0. -1.
          1   -1    0    0  501    0 -0.00000000000E+00 -0.00000000000E+00 -0.17267471282E+03  0.17267471282E+03  0.00000000000E+00 0. -1.
         25    2    1    2    0    0  0.40643870800E+02 -0.38518338963E+02 -0.47539025791E+02  0.14497665921E+03  0.12499074394E+03 0.  0.
          2    1    1    2  501    0 -0.58433872519E+01  0.42305758528E+02 -0.62496764339E+02  0.75695230577E+02  0.00000000000E+00 0. -1.
          1    1    1    2  502    0 -0.34800483548E+02 -0.37874195655E+01  0.34525851717E+02  0.49167597449E+02  0.00000000000E+00 0. -1.
         22    1    3    3    0    0  0.42288957933E+01  0.35982828281E+02 -0.50319388939E+02  0.62005551315E+02  0.00000000000E+00 0. -1.
         22    1    3    3    0    0  0.36414975006E+02 -0.74501167243E+02  0.27803631481E+01  0.82971107890E+02  0.00000000000E+00 0. -1.
</event>
<event>
 7    1  0.6273950E-006  0.4134919E+02  0.7818608E-02  0.1531597E+00
          2   -1    0    0  502    0  0.00000000000E+00  0.00000000000E+00  0.24309751283E+04  0.24309751283E+04  0.00000000000E+00 0. -1.
          1   -1    0    0  501    0 -0.00000000000E+00 -0.00000000000E+00 -0.26147737475E+04  0.26147737475E+04  0.00000000000E+00 0. -1.
         25    2    1    2    0    0 -0.97983970809E+01  0.53298281084E+02  0.84833159252E+03  0.85920255252E+03  0.12500328009E+03 0.  0.
          2    1    1    2  501    0 -0.18880613985E+02 -0.36786583595E+02 -0.26090008443E+04  0.26093284837E+04  0.00000000000E+00 0. -1.
          1    1    1    2  502    0  0.28679011066E+02 -0.16511697489E+02  0.15768706325E+04  0.15772178396E+04  0.00000000000E+00 0. -1.
         22    1    3    3    0    0 -0.23395801725E+02 -0.12723277758E+02  0.39935160292E+02  0.48000649608E+02  0.00000000000E+00 0. -1.
         22    1    3    3    0    0  0.13597404644E+02  0.66021558842E+02  0.80839643223E+03  0.81120190291E+03  0.00000000000E+00 0. -1.
</event>
<event>
 7    1  0.6273950E-006  0.1314847E+03  0.7818608E-02  0.1401243E+00
          2   -1    0    0  502    0  0.00000000000E+00  0.00000000000E+00  0.15940636579E+04  0.15940636579E+04  0.00000000000E+00 0. -1.
          1   -1    0    0  501    0 -0.00000000000E+00 -0.00000000000E+00 -0.20262803727E+03  0.20262803727E+03  0.00000000000E+00 0. -1.
         25    2    1    2    0    0  0.91917676916E+02 -0.97917957381E+02  0.95473305173E+02  0.20682685990E+03  0.12500164906E+03 0.  0.
          2    1    1    2  501    0 -0.22747243453E+02 -0.13883918493E+02 -0.14272064612E+03  0.14518740684E+03  0.00000000000E+00 0. -1.
          1    1    1    2  502    0 -0.69170433464E+02  0.11180187587E+03  0.14386829616E+04  0.14446774284E+04  0.00000000000E+00 0. -1.
         22    1    3    3    0    0  0.50762254509E+02 -0.93078412177E+02  0.11883604680E+03  0.15925577953E+03  0.00000000000E+00 0. -1.
         22    1    3    3    0    0  0.41155422407E+02 -0.48395452041E+01 -0.23362741622E+02  0.47571080368E+02  0.00000000000E+00 0. -1.
</event>
<event>
 7    1  0.6273950E-006  0.1128741E+03  0.7818608E-02  0.1354197E+00
          2   -1    0    0  502    0  0.00000000000E+00  0.00000000000E+00  0.25875285007E+03  0.25875285007E+03  0.00000000000E+00 0. -1.
          1   -1    0    0  501    0 -0.00000000000E+00 -0.00000000000E+00 -0.30830178789E+03  0.30830178789E+03  0.00000000000E+00 0. -1.
         25    2    1    2    0    0 -0.12970207984E+03  0.30100931873E+02 -0.51302579184E+02  0.18969835710E+03  0.12499926576E+03 0.  0.
          2    1    1    2  501    0  0.10889369506E+03  0.10503710996E+02 -0.16860861045E+03  0.20099011987E+03  0.00000000000E+00 0. -1.
          1    1    1    2  502    0  0.20808384781E+02 -0.40604642869E+02  0.17036225181E+03  0.17636616099E+03  0.00000000000E+00 0. -1.
         22    1    3    3    0    0 -0.11847262437E+03 -0.13125947195E+02 -0.73280727491E+02  0.13992182903E+03  0.00000000000E+00 0.  1.
         22    1    3    3    0    0 -0.11229455468E+02  0.43226879068E+02  0.21978148307E+02  0.49776528074E+02  0.00000000000E+00 0.  1.
</event>
<event>
 7    1  0.6273950E-006  0.8215075E+02  0.7818608E-02  0.1335128E+00
          2   -1    0    0  502    0  0.00000000000E+00  0.00000000000E+00  0.57565962360E+03  0.57565962360E+03  0.00000000000E+00 0. -1.
          1   -1    0    0  501    0 -0.00000000000E+00 -0.00000000000E+00 -0.12921180137E+03  0.12921180137E+03  0.00000000000E+00 0. -1.
         25    2    1    2    0    0  0.79693509231E+00  0.25883332089E+02  0.11652722773E+03  0.17284174044E+03  0.12500036180E+03 0.  0.
          2    1    1    2  501    0  0.81631328075E+02 -0.92234777659E+01 -0.79345959238E+02  0.11421264165E+03  0.00000000000E+00 0. -1.
          1    1    1    2  502    0 -0.82428263168E+02 -0.16659854323E+02  0.40926655374E+03  0.41781704288E+03  0.00000000000E+00 0. -1.
         22    1    3    3    0    0 -0.27847381566E+01 -0.31857411808E+02 -0.10173564385E+02  0.33558171375E+02  0.00000000000E+00 0.  1.
         22    1    3    3    0    0  0.35816732489E+01  0.57740743897E+02  0.12670079212E+03  0.13928356907E+03  0.00000000000E+00 0.  1.
</event>
<event>
 7    1  0.6273950E-006  0.8787909E+02  0.7818608E-02  0.1366209E+00
          2   -1    0    0  502    0  0.00000000000E+00  0.00000000000E+00  0.10562264026E+04  0.10562264026E+04  0.00000000000E+00 0. -1.
          1   -1    0    0  501    0 -0.00000000000E+00 -0.00000000000E+00 -0.17222728588E+03  0.17222728588E+03  0.00000000000E+00 0. -1.
         25    2    1    2    0    0 -0.31937931212E+02  0.64585396810E+02  0.38807529634E+03  0.41402333710E+03  0.12498633166E+03 0.  0.
          2    1    1    2  501    0 -0.15890420795E+02 -0.87369988456E+02 -0.14569639204E+03  0.17062666558E+03  0.00000000000E+00 0. -1.
          1    1    1    2  502    0  0.47828352006E+02  0.22784591647E+02  0.64162021243E+03  0.64380368582E+03  0.00000000000E+00 0. -1.
         22    1    3    3    0    0 -0.60965736435E+02 -0.11729385605E+02  0.18544905101E+03  0.19556520659E+03  0.00000000000E+00 0. -1.
         22    1    3    3    0    0  0.29027805223E+02  0.76314782415E+02  0.20262624533E+03  0.21845813051E+03  0.00000000000E+00 0. -1.
</event>
<event>
 7    1  0.6273950E-006  0.5990077E+02  0.7818608E-02  0.1431652E+00
          2   -1    0    0  502    0  0.00000000000E+00  0.00000000000E+00  0.42808565237E+03  0.42808565237E+03  0.00000000000E+00 0. -1.
          1   -1    0    0  501    0 -0.00000000000E+00 -0.00000000000E+00 -0.36999178339E+02  0.36999178339E+02  0.00000000000E+00 0. -1.
         25    2    1    2    0    0 -0.48239086069E+02  0.97424389214E+01  0.22019612950E+03  0.25794071201E+03  0.12500060369E+03 0.  0.
          2    1    1    2  501    0  0.60951509782E+02  0.34717101605E+02  0.11372258947E+03  0.13361583381E+03  0.00000000000E+00 0. -1.
          1    1    1    2  502    0 -0.12712423713E+02 -0.44459540526E+02  0.57167755070E+02  0.73528284899E+02  0.00000000000E+00 0. -1.
         22    1    3    3    0    0 -0.87889447458E+02  0.23210011252E+02  0.16806763448E+03  0.19107587330E+03  0.00000000000E+00 0. -1.
         22    1    3    3    0    0  0.39650361389E+02 -0.13467572331E+02  0.52128495014E+02  0.66864838706E+02  0.00000000000E+00 0. -1.
</event>
<event>
 7    1  0.6273950E-006  0.1601636E+03  0.7818608E-02  0.1262541E+00
          2   -1    0    0  502    0  0.00000000000E+00  0.00000000000E+00  0.96473984900E+03  0.96473984900E+03  0.00000000000E+00 0. -1.
          1   -1    0    0  501    0 -0.00000000000E+00 -0.00000000000E+00 -0.66957614364E+03  0.66957614364E+03  0.00000000000E+00 0. -1.
         25    2    1    2    0    0 -0.38084383756E+02  0.92430779286E+02 -0.44203896291E+02  0.16602842598E+03  0.12497033464E+03 0.  0.
          2    1    1    2  501    0  0.77842464439E+02 -0.15496372680E+03 -0.54956242709E+03  0.57627429854E+03  0.00000000000E+00 0. -1.
          1    1    1    2  502    0 -0.39758080683E+02  0.62532947518E+02  0.88893002874E+03  0.89201326812E+03  0.00000000000E+00 0. -1.
         22    1    3    3    0    0  0.38618057884E+01  0.10899929529E+03 -0.51029464586E+02  0.12041497487E+03  0.00000000000E+00 0.  1.
         22    1    3    3    0    0 -0.41946189544E+02 -0.16568516001E+02  0.68255682948E+01  0.45613451111E+02  0.00000000000E+00 0.  1.
</event>
<event>
 7    1  0.6273950E-006  0.1725984E+03  0.7818608E-02  0.1269987E+00
          2   -1    0    0  502    0  0.00000000000E+00  0.00000000000E+00  0.13585146054E+04  0.13585146054E+04  0.00000000000E+00 0. -1.
          1   -1    0    0  501    0 -0.00000000000E+00 -0.00000000000E+00 -0.14906313903E+03  0.14906313903E+03  0.00000000000E+00 0. -1.
         25    2    1    2    0    0  0.18021704613E+03 -0.66916395066E+02  0.37245196884E+03  0.43738049111E+03  0.12500094907E+03 0.  0.
          2    1    1    2  501    0 -0.49008766742E+02 -0.41095336584E+02 -0.99565256283E+02  0.11833818558E+03  0.00000000000E+00 0. -1.
          1    1    1    2  502    0 -0.13120827939E+03  0.10801173165E+03  0.93656475386E+03  0.95185906779E+03  0.00000000000E+00 0. -1.
         22    1    3    3    0    0  0.84302044990E+02  0.32980637110E+02  0.13650523315E+03  0.16379327181E+03  0.00000000000E+00 0.  1.
         22    1    3    3    0    0  0.95915001139E+02 -0.99897032176E+02  0.23594673569E+03  0.27358721930E+03  0.00000000000E+00 0.  1.
</event>
<event>
 7    1  0.6273950E-006  0.1160466E+03  0.7818608E-02  0.1382858E+00
          2   -1    0    0  502    0  0.00000000000E+00  0.00000000000E+00  0.26908300955E+04  0.26908300955E+04  0.00000000000E+00 0. -1.
          1   -1    0    0  501    0 -0.00000000000E+00 -0.00000000000E+00 -0.11727547881E+03  0.11727547881E+03  0.00000000000E+00 0. -1.
         25    2    1    2    0    0 -0.24704886103E+02  0.99076209812E+02  0.61496799972E+03  0.63579513656E+03  0.12499355283E+03 0.  0.
          2    1    1    2  501    0 -0.34768974267E+02  0.38949548273E+01 -0.10223766986E+03  0.10805828697E+03  0.00000000000E+00 0. -1.
          1    1    1    2  502    0  0.59473860370E+02 -0.10297116464E+03  0.20608242868E+04  0.20642521507E+04  0.00000000000E+00 0. -1.
         22    1    3    3    0    0 -0.55878421116E+02 -0.85536053203E+00  0.18424460342E+03  0.19253364246E+03  0.00000000000E+00 0. -1.
         22    1    3    3    0    0  0.31173535013E+02  0.99931570344E+02  0.43072339630E+03  0.44326149410E+03  0.00000000000E+00 0. -1.
</event>
<event>
 7    1  0.6273950E-006  0.6391644E+02  0.7818608E-02  0.1477659E+00
          2   -1    0    0  502    0  0.00000000000E+00  0.00000000000E+00  0.53541757376E+02  0.53541757376E+02  0.00000000000E+00 0. -1.
          1   -1    0    0  501    0 -0.00000000000E+00 -0.00000000000E+00 -0.92263781835E+03  0.92263781835E+03  0.00000000000E+00 0. -1.
         25    2    1    2    0    0 -0.60658243610E+02  0.20913571463E+02 -0.30829957134E+03  0.33880783064E+03  0.12500128168E+03 0.  0.
          2    1    1    2  501    0  0.44248740563E+02 -0.47148409316E+02 -0.59076586093E+03  0.59429388856E+03  0.00000000000E+00 0. -1.
          1    1    1    2  502    0  0.16409503047E+02  0.26234837853E+02  0.29969371295E+02  0.43077856530E+02  0.00000000000E+00 0. -1.
         22    1    3    3    0    0 -0.63254856934E+02  0.48089559358E+02 -0.95363468283E+02  0.12412885937E+03  0.00000000000E+00 0. -1.
         22    1    3    3    0    0  0.25966133243E+01 -0.27175987895E+02 -0.21293610306E+03  0.21467897127E+03  0.00000000000E+00 0. -1.
</event>
<event>
 7    1  0.6273950E-006  0.7877024E+02  0.7818608E-02  0.1357168E+00
          2   -1    0    0  502    0  0.00000000000E+00  0.00000000000E+00  0.15352971955E+04  0.15352971955E+04  0.00000000000E+00 0. -1.
          1   -1    0    0  501    0 -0.00000000000E+00 -0.00000000000E+00 -0.10407036283E+03  0.10407036283E+03  0.00000000000E+00 0. -1.
         25    2    1    2    0    0 -0.11377843029E+03  0.38415474740E+02  0.11687321701E+03  0.20905957050E+03  0.12500110105E+03 0.  0.
          2    1    1    2  501    0  0.51767229525E+02 -0.53234155081E+02 -0.33134864936E+02  0.81311995389E+02  0.00000000000E+00 0. -1.
          1    1    1    2  502    0  0.62011200765E+02  0.14818680341E+02  0.13474884806E+04  0.13489959925E+04  0.00000000000E+00 0. -1.
         22    1    3    3    0    0 -0.41311072112E+02  0.34451727352E+02  0.12494901374E+03  0.13603595933E+03  0.00000000000E+00 0. -1.
         22    1    3    3    0    0 -0.72467358178E+02  0.39637473872E+01 -0.80757967338E+01  0.73023611164E+02  0.00000000000E+00 0. -1.
</event>
<event>
 7    1  0.6273950E-006  0.6599496E+02  0.7818608E-02  0.1392044E+00
          2   -1    0    0  502    0  0.00000000000E+00  0.00000000000E+00  0.10221721150E+04  0.10221721150E+04  0.00000000000E+00 0. -1.
          1   -1    0    0  501    0 -0.00000000000E+00 -0.00000000000E+00 -0.15190424781E+03  0.15190424781E+03  0.00000000000E+00 0. -1.
         25    2    1    2    0    0  0.52381563879E+02  0.30158943007E+02  0.15000717401E+03  0.20440087038E+03  0.12499669387E+03 0.  0.
          2    1    1    2  501    0 -0.43772826960E+02  0.36707564091E+02 -0.11673778003E+03  0.12996620687E+03  0.00000000000E+00 0. -1.
          1    1    1    2  502    0 -0.86087369191E+01 -0.66866507098E+02  0.83699847320E+03  0.83970928556E+03  0.00000000000E+00 0. -1.
         22    1    3    3    0    0 -0.34705730797E+02 -0.16730953035E+02  0.29646952734E+02  0.48614343007E+02  0.00000000000E+00 0. -1.
         22    1    3    3    0    0  0.87087294675E+02  0.46889896042E+02  0.12036022128E+03  0.15578652737E+03  0.00000000000E+00 0. -1.
</event>
<event>
 7    1  0.6273950E-006  0.1155725E+03  0.7818608E-02  0.1332646E+00
          2   -1    0    0  502    0  0.00000000000E+00  0.00000000000E+00  0.80152497923E+03  0.80152497923E+03  0.00000000000E+00 0. -1.
          1   -1    0    0  501    0 -0.00000000000E+00 -0.00000000000E+00 -0.89278831250E+03  0.89278831250E+03  0.00000000000E+00 0. -1.
         25    2    1    2    0    0 -0.48363800004E+02 -0.15457106935E+03 -0.94475880070E+02  0.22534378493E+03  0.12499142714E+03 0.  0.
          2    1    1    2  501    0  0.16494473031E+02  0.11140603496E+03 -0.72756255899E+03  0.73622730831E+03  0.00000000000E+00 0. -1.
          1    1    1    2  502    0  0.31869326972E+02  0.43165034396E+02  0.73077510579E+03  0.73274219849E+03  0.00000000000E+00 0. -1.
         22    1    3    3    0    0 -0.58324987872E+02 -0.14914373187E+02 -0.78761519087E+01  0.60714714088E+02  0.00000000000E+00 0.  1.
         22    1    3    3    0    0  0.99611878686E+01 -0.13965669616E+03 -0.86599728161E+02  0.16462907084E+03  0.00000000000E+00 0.  1.
</event>
<event>
 7    1  0.6273950E-006  0.4737759E+02  0.7818608E-02  0.1482540E+00
          2   -1    0    0  502    0  0.00000000000E+00  0.00000000000E+00  0.85591802261E+03  0.85591802261E+03  0.00000000000E+00 0. -1.
          1   -1    0    0  501    0 -0.00000000000E+00 -0.00000000000E+00 -0.92979943090E+02  0.92979943090E+02  0.00000000000E+00 0. -1.
         25    2    1    2    0    0  0.15732301984E+02 -0.85000382255E+02  0.19350452019E+03  0.24605209776E+03  0.12500026069E+03 0.  0.
          2    1    1    2  501    0 -0.79997773597E+01  0.39530571419E+02 -0.59687426588E+02  0.72036458875E+02  0.00000000000E+00 0. -1.
          1    1    1    2  502    0 -0.77325246242E+01  0.45469810836E+02  0.62912098592E+03  0.63080940906E+03  0.00000000000E+00 0. -1.
         22    1    3    3    0    0  0.64372708769E+02 -0.62761955517E+02  0.15821718974E+03  0.18197688816E+03  0.00000000000E+00 0. -1.
         22    1    3    3    0    0 -0.48640406785E+02 -0.22238426739E+02  0.35287330449E+02  0.64075209608E+02  0.00000000000E+00 0. -1.
</event>
<event>
 7    1  0.6273950E-006  0.1026581E+03  0.7818608E-02  0.1282632E+00
          2   -1    0    0  502    0  0.00000000000E+00  0.00000000000E+00  0.29330981595E+03  0.29330981595E+03  0.00000000000E+00 0. -1.
          1   -1    0    0  501    0 -0.00000000000E+00 -0.00000000000E+00 -0.45250385997E+03  0.45250385997E+03  0.00000000000E+00 0. -1.
         25    2    1    2    0    0  0.71659164709E+02 -0.30385093864E+02  0.22558282204E+02  0.14896113428E+03  0.12498901398E+03 0.  0.
          2    1    1    2  501    0 -0.45733529887E+02 -0.83579999028E+02 -0.36625607708E+03  0.37844508980E+03  0.00000000000E+00 0. -1.
          1    1    1    2  502    0 -0.25925634822E+02  0.11396509289E+03  0.18450375086E+03  0.21840745184E+03  0.00000000000E+00 0. -1.
         22    1    3    3    0    0  0.18811043959E+02  0.16224299474E+02  0.62996242562E+02  0.67717131106E+02  0.00000000000E+00 0. -1.
         22    1    3    3    0    0  0.52848120750E+02 -0.46609393338E+02 -0.40437960358E+02  0.81244003176E+02  0.00000000000E+00 0. -1.
</event>
<event>
 7    1  0.6273950E-006  0.9738605E+02  0.7818608E-02  0.1348566E+00
          2   -1    0    0  502    0  0.00000000000E+00  0.00000000000E+00  0.24276580046E+04  0.24276580046E+04  0.00000000000E+00 0. -1.
          1   -1    0    0  501    0 -0.00000000000E+00 -0.00000000000E+00 -0.48304824970E+03  0.48304824970E+03  0.00000000000E+00 0. -1.
         25    2    1    2    0    0 -0.30399594369E+02 -0.10913890175E+03  0.10526797363E+03  0.19884784232E+03  0.12499473154E+03 0.  0.
          2    1    1    2  501    0 -0.23121358069E+02  0.94529817885E+02 -0.43048803511E+03  0.44135069055E+03  0.00000000000E+00 0. -1.
          1    1    1    2  502    0  0.53520952438E+02  0.14609083863E+02  0.22698298164E+04  0.22705077214E+04  0.00000000000E+00 0. -1.
         22    1    3    3    0    0  0.33092366211E+02 -0.70077869158E+02  0.10396046557E+02  0.78192648191E+02  0.00000000000E+00 0. -1.
         22    1    3    3    0    0 -0.63491960579E+02 -0.39061032590E+02  0.94871927069E+02  0.12065519413E+03  0.00000000000E+00 0. -1.
</event>
<event>
 7    1  0.6273950E-006  0.1352687E+03  0.7818608E-02  0.1396752E+00
          2   -1    0    0  502    0  0.00000000000E+00  0.00000000000E+00  0.23584355933E+04  0.23584355933E+04  0.00000000000E+00 0. -1.
          1   -1    0    0  501    0 -0.00000000000E+00 -0.00000000000E+00 -0.67525940206E+02  0.67525940206E+02  0.00000000000E+00 0. -1.
         25    2    1    2    0    0 -0.22902922364E+02  0.15357103402E+03  0.96521483658E+03  0.98558237104E+03  0.12499729202E+03 0.  0.
          2    1    1    2  501    0  0.49156455605E+01 -0.13364595705E+03  0.20960721271E+02  0.13536896706E+03  0.00000000000E+00 0. -1.
          1    1    1    2  502    0  0.17987276803E+02 -0.19925076971E+02  0.13047340953E+04  0.13050101954E+04  0.00000000000E+00 0. -1.
         22    1    3    3    0    0  0.86829275094E+01  0.89104060420E+02  0.22903376800E+03  0.24590932007E+03  0.00000000000E+00 0. -1.
         22    1    3    3    0    0 -0.31585849873E+02  0.64466973598E+02  0.73618106858E+03  0.73967305098E+03  0.00000000000E+00 0. -1.
</event>
<event>
 7    1  0.6273950E-006  0.1179742E+03  0.7818608E-02  0.1391886E+00
          2   -1    0    0  502    0  0.00000000000E+00  0.00000000000E+00  0.57099374501E+03  0.57099374501E+03  0.00000000000E+00 0. -1.
          1   -1    0    0  501    0 -0.00000000000E+00 -0.00000000000E+00 -0.42114381884E+03  0.42114381884E+03  0.00000000000E+00 0. -1.
         25    2    1    2    0    0 -0.93655116056E+02  0.29196054932E+01  0.14721065875E+03  0.21466532871E+03  0.12502167987E+03 0.  0.
          2    1    1    2  501    0 -0.31191508461E+02  0.71360735822E+01 -0.37666580979E+03  0.37802244115E+03  0.00000000000E+00 0. -1.
          1    1    1    2  502    0  0.12484662452E+03 -0.10055679075E+02  0.37930507720E+03  0.39944979400E+03  0.00000000000E+00 0. -1.
         22    1    3    3    0    0 -0.75668018678E+02 -0.41388744644E+02  0.14256020895E+03  0.16661959791E+03  0.00000000000E+00 0.  1.
         22    1    3    3    0    0 -0.17987097378E+02  0.44308350137E+02  0.46504498070E+01  0.48045730792E+02  0.00000000000E+00 0.  1.
</event>
<event>
 7    1  0.6273950E-006  0.1053616E+03  0.7818608E-02  0.1287175E+00
          2   -1    0    0  502    0  0.00000000000E+00  0.00000000000E+00  0.73394862635E+03  0.73394862635E+03  0.00000000000E+00 0. -1.
          1   -1    0    0  501    0 -0.00000000000E+00 -0.00000000000E+00 -0.14169913689E+03  0.14169913689E+03  0.00000000000E+00 0. -1.
         25    2    1    2    0    0  0.16746792022E+03  0.17850883555E+02  0.32373493111E+03  0.38573776208E+03  0.12500062850E+03 0.  0.
          2    1    1    2  501    0 -0.84501550480E+02  0.27719981188E+02 -0.85555998514E+02  0.12340477411E+03  0.00000000000E+00 0. -1.
          1    1    1    2  502    0 -0.82966369744E+02 -0.45570864742E+02  0.35407055686E+03  0.36650522705E+03  0.00000000000E+00 0. -1.
         22    1    3    3    0    0  0.12266445406E+03 -0.37365167287E+02  0.26148015727E+03  0.29122945707E+03  0.00000000000E+00 0. -1.
         22    1    3    3    0    0  0.44803466168E+02  0.55216050842E+02  0.62254773840E+02  0.94508305017E+02  0.00000000000E+00 0. -1.
</event>
<event>
 7    1  0.6273950E-006  0.1521926E+03  0.7818608E-02  0.1326847E+00
          2   -1    0    0  502    0  0.00000000000E+00  0.00000000000E+00  0.63725010287E+03  0.63725010287E+03  0.00000000000E+00 0. -1.
          1   -1    0    0  501    0 -0.00000000000E+00 -0.00000000000E+00 -0.29595985402E+03  0.29595985402E+03  0.00000000000E+00 0. -1.
         25    2    1    2    0    0 -0.16969259843E+03  0.90324622526E+02 -0.10908293042E+03  0.25392488414E+03  0.12499858272E+03 0.  0.
          2    1    1    2  501    0  0.40457780573E+02 -0.14201340967E+02 -0.10001887918E+03  0.10882226926E+03  0.00000000000E+00 0. -1.
          1    1    1    2  502    0  0.12923481786E+03 -0.76123281558E+02  0.55039205845E+03  0.57046280348E+03  0.00000000000E+00 0. -1.
         22    1    3    3    0    0 -0.16636882586E+03  0.38353326451E+02 -0.56299650462E+02  0.17977545580E+03  0.00000000000E+00 0.  1.
         22    1    3    3    0    0 -0.33237725730E+01  0.51971296075E+02 -0.52783279962E+02  0.74149428341E+02  0.00000000000E+00 0.  1.
</event>
<event>
 7    1  0.6273950E-006  0.5897203E+02  0.7818608E-02  0.1471849E+00
          2   -1    0    0  502    0  0.00000000000E+00  0.00000000000E+00  0.20190276188E+03  0.20190276188E+03  0.00000000000E+00 0. -1.
          1   -1    0    0  501    0 -0.00000000000E+00 -0.00000000000E+00 -0.16573023851E+04  0.16573023851E+04  0.00000000000E+00 0. -1.
         25    2    1    2    0    0  0.60202962588E+01  0.38826915200E+02  0.30104861940E+02  0.13444338569E+03  0.12499979173E+03 0.  0.
          2    1    1    2  501    0  0.33468453184E+02  0.10082695547E+02 -0.15966707462E+04  0.15970533084E+04  0.00000000000E+00 0. -1.
          1    1    1    2  502    0 -0.39488749443E+02 -0.48909610747E+02  0.11116626102E+03  0.12770845291E+03  0.00000000000E+00 0. -1.
         22    1    3    3    0    0 -0.17018092524E+02  0.38475899502E+00  0.71461105749E+02  0.73460555045E+02  0.00000000000E+00 0. -1.
         22    1    3    3    0    0  0.23038388783E+02  0.38442156205E+02 -0.41356243808E+02  0.60982830644E+02  0.00000000000E+00 0. -1.
</event>
<event>
 7    1  0.6273950E-006  0.1059919E+03  0.7818608E-02  0.1293939E+00
          2   -1    0    0  502    0  0.00000000000E+00  0.00000000000E+00  0.25731695901E+04  0.25731695901E+04  0.00000000000E+00 0. -1.
          1   -1    0    0  501    0 -0.00000000000E+00 -0.00000000000E+00 -0.96154823039E+03  0.96154823039E+03  0.00000000000E+00 0. -1.
         25    2    1    2    0    0  0.17183749911E+03 -0.53113393664E+02 -0.37655531807E+02  0.22224556601E+03  0.12500397533E+03 0.  0.
          2    1    1    2  501    0 -0.66485112768E+02  0.49656488613E+02 -0.82840415583E+03  0.83254998798E+03  0.00000000000E+00 0. -1.
          1    1    1    2  502    0 -0.10535238635E+03  0.34569050513E+01  0.24776810473E+04  0.24799222665E+04  0.00000000000E+00 0. -1.
         22    1    3    3    0    0  0.46369742380E+02 -0.59117431480E+02 -0.58105599563E+02  0.94980442270E+02  0.00000000000E+00 0. -1.
         22    1    3    3    0    0  0.12546775673E+03  0.60040378155E+01  0.20450067756E+02  0.12726512374E+03  0.00000000000E+00 0. -1.
</event>
<event>
 7    1  0.6273950E-006  0.4658127E+02  0.7818608E-02  0.1502046E+00
          2   -1    0    0  502    0  0.00000000000E+00  0.00000000000E+00  0.27346636274E+02  0.27346636274E+02  0.00000000000E+00 0. -1.
          1   -1    0    0  501    0 -0.00000000000E+00 -0.00000000000E+00 -0.28138213962E+04  0.28138213962E+04  0.00000000000E+00 0. -1.
         25    2    1    2    0    0  0.11710931310E+02  0.20087283338E+02 -0.21833733096E+03  0.25266183583E+03  0.12500467323E+03 0.  0.
          2    1    1    2  501    0 -0.94024034899E+01  0.34568483958E+02 -0.25037975727E+04  0.25040538473E+04  0.00000000000E+00 0. -1.
          1    1    1    2  502    0 -0.23085278202E+01 -0.54655767296E+02 -0.64339856246E+02  0.84452349294E+02  0.00000000000E+00 0. -1.
         22    1    3    3    0    0  0.24432288910E+02 -0.66988919495E+00  0.74609809761E+01  0.25554876835E+02  0.00000000000E+00 0. -1.
         22    1    3    3    0    0 -0.12721357600E+02  0.20757172533E+02 -0.22579831194E+03  0.22710695900E+03  0.00000000000E+00 0. -1.
</event>
<event>
 7    1  0.6273950E-006  0.2495673E+03  0.7818608E-02  0.1285880E+00
          2   -1    0    0  502    0  0.00000000000E+00  0.00000000000E+00  0.29438530828E+04  0.29438530828E+04  0.00000000000E+00 0. -1.
          1   -1    0    0  501    0 -0.00000000000E+00 -0.00000000000E+00 -0.11549559321E+03  0.11549559321E+03  0.00000000000E+00 0. -1.
         25    2    1    2    0    0 -0.14449754380E+03 -0.18426697561E+03  0.19500769465E+03  0.32937114479E+03  0.12499396619E+03 0.  0.
          2    1    1    2  501    0  0.16888877603E+03  0.21341322745E+03  0.33636236940E+03  0.43267570751E+03  0.00000000000E+00 0. -1.
          1    1    1    2  502    0 -0.24391232230E+02 -0.29146251840E+02  0.22969874255E+04  0.22973018237E+04  0.00000000000E+00 0. -1.
         22    1    3    3    0    0 -0.13258051819E+03 -0.78638077867E+02  0.83484013482E+02  0.17530294237E+03  0.00000000000E+00 0.  1.
         22    1    3    3    0    0 -0.11917025607E+02 -0.10562889774E+03  0.11152368117E+03  0.15406820242E+03  0.00000000000E+00 0.  1.
</event>
<event>
 7    1  0.6273950E-006  0.2102458E+03  0.7818608E-02  0.1359779E+00
          2   -1    0    0  502    0  0.00000000000E+00  0.00000000000E+00  0.94694816758E+03  0.94694816758E+03  0.00000000000E+00 0. -1.
          1   -1    0    0  501    0 -0.00000000000E+00 -0.00000000000E+00 -0.94699573611E+02  0.94699573611E+02  0.00000000000E+00 0. -1.
         25    2    1    2    0    0  0.14879811705E+03 -0.12853398709E+03  0.56982206690E+03  0.61561707735E+03  0.12500133008E+03 0.  0.
          2    1    1    2  501    0 -0.17213152509E+03  0.12726872749E+03  0.90050436320E+02  0.23224054772E+03  0.00000000000E+00 0. -1.
          1    1    1    2  502    0  0.23333408032E+02  0.12652596026E+01  0.19237609075E+03  0.19379011612E+03  0.00000000000E+00 0. -1.
         22    1    3    3    0    0  0.47103337782E+02 -0.64374835636E+02  0.39791103185E+03  0.40582759044E+03  0.00000000000E+00 0.  1.
         22    1    3    3    0    0  0.10169477927E+03 -0.64159151458E+02  0.17191103505E+03  0.20978948691E+03  0.00000000000E+00 0.  1.
</event>
<event>
 7    1  0.6273950E-006  0.9587166E+02  0.7818608E-02  0.1475376E+00
          2   -1    0    0  502    0  0.00000000000E+00  0.00000000000E+00  0.17290127439E+04  0.17290127439E+04  0.00000000000E+00 0. -1.
          1   -1    0    0  501    0 -0.00000000000E+00 -0.00000000000E+00 -0.17862937200E+03  0.17862937200E+03  0.00000000000E+00 0. -1.
         25    2    1    2    0    0 -0.46326602641E+02  0.59724711020E+02 -0.20788803936E+02  0.14754261141E+03  0.12499381022E+03 0.  0.
          2    1    1    2  501    0 -0.92059007811E+01  0.18838082488E+02 -0.91892576572E+02  0.94254270938E+02  0.00000000000E+00 0. -1.
          1    1    1    2  502    0  0.55532503422E+02 -0.78562793508E+02  0.16630647524E+04  0.16658452336E+04  0.00000000000E+00 0. -1.
         22    1    3    3    0    0 -0.45773937393E+02  0.62424064383E+02  0.39697400152E+02  0.86993682169E+02  0.00000000000E+00 0.  1.
         22    1    3    3    0    0 -0.55266524787E+00 -0.26993533626E+01 -0.60486204087E+02  0.60548929242E+02  0.00000000000E+00 0.  1.
</event>
<event>
 7    1  0.6273950E-006  0.7915535E+02  0.7818608E-02  0.1396059E+00
          2   -1    0    0  502    0  0.00000000000E+00  0.00000000000E+00  0.69242126856E+03  0.69242126856E+03  0.00000000000E+00 0. -1.
          1   -1    0    0  501    0 -0.00000000000E+00 -0.00000000000E+00 -0.63069327944E+02  0.63069327944E+02  0.00000000000E+00 0. -1.
         25    2    1    2    0    0  0.47772806728E+02 -0.68899431848E+02  0.16873238126E+03  0.22610794152E+03  0.12499924785E+03 0.  0.
          2    1    1    2  501    0 -0.74337453688E+02  0.31190801176E+02  0.15764741492E+02  0.82142864408E+02  0.00000000000E+00 0. -1.
          1    1    1    2  502    0  0.26564646960E+02  0.37708630671E+02  0.44485481787E+03  0.44723979058E+03  0.00000000000E+00 0. -1.
         22    1    3    3    0    0  0.14752519226E+02 -0.11867103285E+01 -0.18848378113E+02  0.23964691995E+02  0.00000000000E+00 0. -1.
         22    1    3    3    0    0  0.33020287503E+02 -0.67712721519E+02  0.18758075937E+03  0.20214324953E+03  0.00000000000E+00 0. -1.
</event>
<event>
 7    1  0.6273950E-006  0.3908488E+02  0.7818608E-02  0.1588544E+00
          2   -1    0    0  502    0  0.00000000000E+00  0.00000000000E+00  0.12545036217E+03  0.12545036217E+03  0.00000000000E+00 0. -1.
          1   -1    0    0  501    0 -0.00000000000E+00 -0.00000000000E+00 -0.11556050607E+04  0.11556050607E+04  0.00000000000E+00 0. -1.
         25    2    1    2    0    0 -0.14177045101E+02  0.50316521865E+02  0.41153855663E+02  0.14160153946E+03  0.12499846063E+03 0.  0.
          2    1    1    2  501    0 -0.10157073366E+02 -0.22185380664E+02 -0.10950534889E+04  0.10953252945E+04  0.00000000000E+00 0. -1.
          1    1    1    2  502    0  0.24334118467E+02 -0.28131141201E+02  0.23744934759E+02  0.44128588846E+02  0.00000000000E+00 0. -1.
         22    1    3    3    0    0 -0.61777961665E+02  0.29787699157E+02  0.55035674029E+02  0.87936050539E+02  0.00000000000E+00 0. -1.
         22    1    3    3    0    0  0.47600916564E+02  0.20528822708E+02 -0.13881818366E+02  0.53665488917E+02  0.00000000000E+00 0. -1.
</event>
<event>
 7    1  0.6273950E-006  0.1670455E+03  0.7818608E-02  0.1329021E+00
          2   -1    0    0  502    0  0.00000000000E+00  0.00000000000E+00  0.69908606913E+03  0.69908606913E+03  0.00000000000E+00 0. -1.
          1   -1    0    0  501    0 -0.00000000000E+00 -0.00000000000E+00 -0.38680968510E+03  0.38680968510E+03  0.00000000000E+00 0. -1.
         25    2    1    2    0    0 -0.46848847634E+02  0.14259806333E+03  0.36029358398E+03  0.40983554876E+03  0.12499875273E+03 0.  0.
          2    1    1    2  501    0  0.22788143762E+01  0.38255280058E+02 -0.33322246777E+03  0.33541895068E+03  0.00000000000E+00 0. -1.
          1    1    1    2  502    0  0.44570033258E+02 -0.18085334338E+03  0.28520526782E+03  0.34064125480E+03  0.00000000000E+00 0. -1.
         22    1    3    3    0    0 -0.36511011775E+02  0.14816694998E+03  0.36617713416E+03  0.39670164183E+03  0.00000000000E+00 0.  1.
         22    1    3    3    0    0 -0.10337835860E+02 -0.55688866498E+01 -0.58835501788E+01  0.13133906939E+02  0.00000000000E+00 0.  1.
</event>
<event>
 7    1  0.6273950E-006  0.3201534E+02  0.7818608E-02  0.1655101E+00
          2   -1    0    0  502    0  0.00000000000E+00  0.00000000000E+00  0.13213573140E+04  0.13213573140E+04  0.00000000000E+00 0. -1.
          1   -1    0    0  501    0 -0.00000000000E+00 -0.00000000000E+00 -0.85860670297E+03  0.85860670297E+03  0.00000000000E+00 0. -1.
         25    2    1    2    0    0  0.17098888268E+01  0.45352063378E+02 -0.81021150057E+01  0.13327449404E+03  0.12504684371E+03 0.  0.
          2    1    1    2  501    0  0.11275664706E+02 -0.29909510879E+02 -0.78751330912E+03  0.78816174197E+03  0.00000000000E+00 0. -1.
          1    1    1    2  502    0 -0.12985553533E+02 -0.15442552498E+02  0.12583660352E+04  0.12585277810E+04  0.00000000000E+00 0. -1.
         22    1    3    3    0    0 -0.15799444383E+02  0.31459878205E+02  0.55575910370E+02  0.65787751086E+02  0.00000000000E+00 0. -1.
         22    1    3    3    0    0  0.17509333209E+02  0.13892185173E+02 -0.63678025376E+02  0.67486742951E+02  0.00000000000E+00 0. -1.
</event>
<event>
 7    1  0.6273950E-006  0.9455585E+02  0.7818608E-02  0.1355967E+00
          2   -1    0    0  502    0  0.00000000000E+00  0.00000000000E+00  0.12011180110E+04  0.12011180110E+04  0.00000000000E+00 0. -1.
          1   -1    0    0  501    0 -0.00000000000E+00 -0.00000000000E+00 -0.21389712631E+03  0.21389712631E+03  0.00000000000E+00 0. -1.
         25    2    1    2    0    0 -0.84741358236E+02 -0.21868784432E+02  0.30773979693E+03  0.34349155381E+03  0.12499329342E+03 0.  0.
          2    1    1    2  501    0  0.89953629962E+02 -0.31532377473E+02 -0.18355069391E+03  0.20682553906E+03  0.00000000000E+00 0. -1.
          1    1    1    2  502    0 -0.52122717262E+01  0.53401161905E+02  0.86303178165E+03  0.86469804441E+03  0.00000000000E+00 0. -1.
         22    1    3    3    0    0  0.65834757467E+01  0.47562244137E+01  0.19838673759E+03  0.19855291858E+03  0.00000000000E+00 0.  1.
         22    1    3    3    0    0 -0.91324833983E+02 -0.26625008845E+02  0.10935305934E+03  0.14493863524E+03  0.00000000000E+00 0.  1.
</event>
<event>
 7    1  0.6273950E-006  0.3777491E+02  0.7818608E-02  0.1538878E+00
          2   -1    0    0  502    0  0.00000000000E+00  0.00000000000E+00  0.74713735881E+03  0.74713735881E+03  0.00000000000E+00 0. -1.
          1   -1    0    0  501    0 -0.00000000000E+00 -0.00000000000E+00 -0.35447459556E+03  0.35447459556E+03  0.00000000000E+00 0. -1.
         25    2    1    2    0    0  0.50875856384E+02  0.30260503343E+02 -0.68620144907E+02  0.15436412157E+03  0.12496202189E+03 0.  0.
          2    1    1    2  501    0 -0.34343796765E+02  0.36452048424E+01 -0.24124668241E+03  0.24370626924E+03  0.00000000000E+00 0. -1.
          1    1    1    2  502    0 -0.16532059619E+02 -0.33905708185E+02  0.70252959057E+03  0.70354156356E+03  0.00000000000E+00 0. -1.
         22    1    3    3    0    0  0.38908574008E+02  0.75062072575E+02 -0.67149004593E+02  0.10796842450E+03  0.00000000000E+00 0.  1.
         22    1    3    3    0    0  0.11967282376E+02 -0.44801569232E+02 -0.14711403145E+01  0.46395697074E+02  0.00000000000E+00 0.  1.
</event>
<event>
 7    1  0.6273950E-006  0.6202437E+02  0.7818608E-02  0.1503591E+00
          2   -1    0    0  502    0  0.00000000000E+00  0.00000000000E+00  0.12898652640E+04  0.12898652640E+04  0.00000000000E+00 0. -1.
          1   -1    0    0  501    0 -0.00000000000E+00 -0.00000000000E+00 -0.15615068346E+03  0.15615068346E+03  0.00000000000E+00 0. -1.
         25    2    1    2    0    0 -0.17698720150E+02  0.43360187666E+02  0.32892186587E+02  0.13748075939E+03  0.12500285074E+03 0.  0.
          2    1    1    2  501    0 -0.26617857705E+02  0.45025582613E+00 -0.10133001024E+03  0.10476871697E+03  0.00000000000E+00 0. -1.
          1    1    1    2  502    0  0.44316577855E+02 -0.43810443492E+02  0.12021524042E+04  0.12037664711E+04  0.00000000000E+00 0. -1.
         22    1    3    3    0    0  0.24027207598E+02  0.57892557677E+02  0.59066196890E+02  0.86125899441E+02  0.00000000000E+00 0. -1.
         22    1    3    3    0    0 -0.41725927748E+02 -0.14532370012E+02 -0.26174010303E+02  0.51354859945E+02  0.00000000000E+00 0. -1.
</event>
<event>
 7    1  0.6273950E-006  0.1302347E+03  0.7818608E-02  0.1439502E+00
          2   -1    0    0  502    0  0.00000000000E+00  0.00000000000E+00  0.19788923227E+03  0.19788923227E+03  0.00000000000E+00 0. -1.
          1   -1    0    0  501    0 -0.00000000000E+00 -0.00000000000E+00 -0.41584950266E+03  0.41584950266E+03  0.00000000000E+00 0. -1.
         25    2    1    2    0    0 -0.13292995559E+03 -0.27986541785E+02 -0.10670978492E+02  0.18491159517E+03  0.12499923452E+03 0.  0.
          2    1    1    2  501    0  0.12930176606E+03  0.82683225047E+01 -0.30378980280E+03  0.33026588705E+03  0.00000000000E+00 0. -1.
          1    1    1    2  502    0  0.36281895278E+01  0.19718219281E+02  0.96500510908E+02  0.98561252713E+02  0.00000000000E+00 0. -1.
         22    1    3    3    0    0 -0.12799715398E+03 -0.57849353103E+02  0.19930833893E+02  0.14186986016E+03  0.00000000000E+00 0. -1.
         22    1    3    3    0    0 -0.49328016144E+01  0.29862811318E+02 -0.30601812386E+02  0.43041735012E+02  0.00000000000E+00 0. -1.
</event>
<event>
 7    1  0.6273950E-006  0.6528162E+02  0.7818608E-02  0.1461740E+00
          2   -1    0    0  502    0  0.00000000000E+00  0.00000000000E+00  0.65889009439E+03  0.65889009439E+03  0.00000000000E+00 0. -1.
          1   -1    0    0  501    0 -0.00000000000E+00 -0.00000000000E+00 -0.89202822872E+03  0.89202822872E+03  0.00000000000E+00 0. -1.
         25    2    1    2    0    0 -0.93714854527E+02 -0.92552360526E+01 -0.22311327384E+03  0.27253128261E+03  0.12500253472E+03 0.  0.
          2    1    1    2  501    0  0.63280484155E+02 -0.58078006683E+01 -0.64218202981E+03  0.64531845598E+03  0.00000000000E+00 0. -1.
          1    1    1    2  502    0  0.30434370372E+02  0.15063036721E+02  0.63215716931E+03  0.63306858451E+03  0.00000000000E+00 0. -1.
         22    1    3    3    0    0 -0.81262726913E+02 -0.62046761213E+02 -0.14356278003E+03  0.17624898062E+03  0.00000000000E+00 0. -1.
         22    1    3    3    0    0 -0.12452127614E+02  0.52791525160E+02 -0.79550493809E+02  0.96282301988E+02  0.00000000000E+00 0. -1.
</event>
<event>
 7    1  0.6273950E-006  0.7133052E+02  0.7818608E-02  0.1524207E+00
          2   -1    0    0  502    0  0.00000000000E+00  0.00000000000E+00  0.38668935180E+03  0.38668935180E+03  0.00000000000E+00 0. -1.
          1   -1    0    0  501    0 -0.00000000000E+00 -0.00000000000E+00 -0.23852880142E+03  0.23852880142E+03  0.00000000000E+00 0. -1.
         25    2    1    2    0    0  0.72093982071E+02  0.30332392511E+02  0.82379474805E+02  0.16890256384E+03  0.12499640762E+03 0.  0.
          2    1    1    2  501    0 -0.70352553448E+02 -0.10263419444E+02 -0.18838383192E+03  0.20135363837E+03  0.00000000000E+00 0. -1.
          1    1    1    2  502    0 -0.17414286238E+01 -0.20068973067E+02  0.25416490750E+03  0.25496195100E+03  0.00000000000E+00 0. -1.
         22    1    3    3    0    0  0.54537454907E+02 -0.77041669529E+01 -0.19751626141E+02  0.58513373783E+02  0.00000000000E+00 0.  1.
         22    1    3    3    0    0  0.17556527164E+02  0.38036559464E+02  0.10213110095E+03  0.11038919006E+03  0.00000000000E+00 0.  1.
</event>
<event>
 7    1  0.6273950E-006  0.5050064E+02  0.7818608E-02  0.1512658E+00
          2   -1    0    0  502    0  0.00000000000E+00  0.00000000000E+00  0.65486707133E+02  0.65486707133E+02  0.00000000000E+00 0. -1.
          1   -1    0    0  501    0 -0.00000000000E+00 -0.00000000000E+00 -0.48633083655E+03  0.48633083655E+03  0.00000000000E+00 0. -1.
         25    2    1    2    0    0  0.70160213497E+02 -0.32659331064E+02 -0.11111453582E+03  0.18431113920E+03  0.12504026751E+03 0.  0.
          2    1    1    2  501    0 -0.39610180608E+02  0.29222791779E+02 -0.32804762116E+03  0.33172003213E+03  0.00000000000E+00 0. -1.
          1    1    1    2  502    0 -0.30550032890E+02  0.34365392850E+01  0.18318027572E+02  0.35786372350E+02  0.00000000000E+00 0. -1.
         22    1    3    3    0    0  0.91360992237E+02 -0.60220601880E+02 -0.67639078220E+02  0.12864057173E+03  0.00000000000E+00 0. -1.
         22    1    3    3    0    0 -0.21200778739E+02  0.27561270816E+02 -0.43475457603E+02  0.55670567466E+02  0.00000000000E+00 0. -1.
</event>
<event>
 7    1  0.1014039E-005  0.8284890E+02  0.7818608E-02  0.1344982E+00
          2   -1    0    0  502    0  0.00000000000E+00  0.00000000000E+00  0.18277118441E+04  0.18277118441E+04  0.00000000000E+00 0. -1.
          1   -1    0    0  501    0 -0.00000000000E+00 -0.00000000000E+00 -0.13470950483E+04  0.13470950483E+04  0.00000000000E+00 0. -1.
         25    2    1    2    0    0 -0.82113016520E+01 -0.17760669806E+02 -0.11257592138E+03  0.16935724243E+03  0.12500268246E+03 0.  0.
          2    1    1    2  501    0  0.51062680032E+02  0.69589136197E+02 -0.12039545621E+04  0.12070445861E+04  0.00000000000E+00 0. -1.
          1    1    1    2  502    0 -0.42851378380E+02 -0.51828466391E+02  0.17971472793E+04  0.17984050639E+04  0.00000000000E+00 0. -1.
         22    1    3    3    0    0 -0.22047188910E+02 -0.64852905138E+02 -0.95216464318E+02  0.11729515301E+03  0.00000000000E+00 0.  1.
         22    1    3    3    0    0  0.13835887258E+02  0.47092235332E+02 -0.17359457064E+02  0.52062089416E+02  0.00000000000E+00 0.  1.
</event>
<event>
 7    1  0.6273950E-006  0.7254665E+02  0.7818608E-02  0.1356455E+00
          2   -1    0    0  502    0  0.00000000000E+00  0.00000000000E+00  0.14514440383E+04  0.14514440383E+04  0.00000000000E+00 0. -1.
          1   -1    0    0  501    0 -0.00000000000E+00 -0.00000000000E+00 -0.49424679124E+03  0.49424679124E+03  0.00000000000E+00 0. -1.
         25    2    1    2    0    0  0.62050622603E+02  0.18684702585E+02 -0.56262250382E+02  0.15162300596E+03  0.12499878897E+03 0.  0.
          2    1    1    2  501    0 -0.45864281236E+02  0.52411084483E+02 -0.38624079423E+03  0.39246962328E+03  0.00000000000E+00 0. -1.
          1    1    1    2  502    0 -0.16186341367E+02 -0.71095787068E+02  0.13997002917E+04  0.14015982003E+04  0.00000000000E+00 0. -1.
         22    1    3    3    0    0 -0.35219974755E+02  0.12046406804E+02  0.33046539382E+01  0.37369550122E+02  0.00000000000E+00 0.  1.
         22    1    3    3    0    0  0.97270597358E+02  0.66382957814E+01 -0.59566904320E+02  0.11425345584E+03  0.00000000000E+00 0.  1.
</event>
<event>
 7    1  0.6273950E-006  0.6157351E+02  0.7818608E-02  0.1415227E+00
          2   -1    0    0  502    0  0.00000000000E+00  0.00000000000E+00  0.19056727172E+03  0.19056727172E+03  0.00000000000E+00 0. -1.
          1   -1    0    0  501    0 -0.00000000000E+00 -0.00000000000E+00 -0.24199961041E+04  0.24199961041E+04  0.00000000000E+00 0. -1.
         25    2    1    2    0    0 -0.36778472389E+01  0.80593918085E+02 -0.32412258109E+03  0.35663680600E+03  0.12500183052E+03 0.  0.
          2    1    1    2  501    0  0.41030286475E+02 -0.45853911922E+02 -0.20754187047E+04  0.20763306253E+04  0.00000000000E+00 0. -1.
          1    1    1    2  502    0 -0.37352439236E+02 -0.34740006162E+02  0.17011245336E+03  0.17759594458E+03  0.00000000000E+00 0. -1.
         22    1    3    3    0    0 -0.36582268061E+02  0.25716383103E+02 -0.26002797902E+02  0.51727557405E+02  0.00000000000E+00 0. -1.
         22    1    3    3    0    0  0.32904420822E+02  0.54877534981E+02 -0.29811978318E+03  0.30490924860E+03  0.00000000000E+00 0. -1.
</event>
<event>
 7    1  0.6273950E-006  0.1188135E+03  0.7818608E-02  0.1410089E+00
          2   -1    0    0  502    0  0.00000000000E+00  0.00000000000E+00  0.17641739947E+04  0.17641739947E+04  0.00000000000E+00 0. -1.
          1   -1    0    0  501    0 -0.00000000000E+00 -0.00000000000E+00 -0.71733442342E+02  0.71733442342E+02  0.00000000000E+00 0. -1.
         25    2    1    2    0    0 -0.62241705296E+02 -0.95024183452E+02  0.14139622220E+04  0.14240142178E+04  0.12499480827E+03 0.  0.
          2    1    1    2  501    0  0.86451059475E+02  0.81953516546E+02 -0.12354993003E+02  0.11976147298E+03  0.00000000000E+00 0. -1.
          1    1    1    2  502    0 -0.24209354179E+02  0.13070666907E+02  0.29083332337E+03  0.29213174621E+03  0.00000000000E+00 0. -1.
         22    1    3    3    0    0  0.41848459202E+01 -0.41180603192E+02  0.11468349176E+03  0.12192480591E+03  0.00000000000E+00 0. -1.
         22    1    3    3    0    0 -0.66426551217E+02 -0.53843580261E+02  0.12992787302E+04  0.13020894119E+04  0.00000000000E+00 0. -1.
</event>
<event>
 7    1  0.6273950E-006  0.2397599E+03  0.7818608E-02  0.1287246E+00
          2   -1    0    0  502    0  0.00000000000E+00  0.00000000000E+00  0.89779613642E+03  0.89779613642E+03  0.00000000000E+00 0. -1.
          1   -1    0    0  501    0 -0.00000000000E+00 -0.00000000000E+00 -0.85992905650E+03  0.85992905650E+03  0.00000000000E+00 0. -1.
         25    2    1    2    0    0 -0.29065944610E+02  0.24302777443E+03  0.25229719526E+03  0.37307642550E+03  0.12499926499E+03 0.  0.
          2    1    1    2  501    0 -0.98239602345E+01 -0.23944089194E+03 -0.78089523598E+03  0.81683891956E+03  0.00000000000E+00 0. -1.
          1    1    1    2  502    0  0.38889904845E+02 -0.35868824845E+01  0.56646512064E+03  0.56780984786E+03  0.00000000000E+00 0. -1.
         22    1    3    3    0    0 -0.18511825675E+02  0.16125463761E+03  0.23996929890E+03  0.28970849186E+03  0.00000000000E+00 0.  1.
         22    1    3    3    0    0 -0.10554118935E+02  0.81773136814E+02  0.12327896363E+02  0.83367933642E+02  0.00000000000E+00 0.  1.
</event>
<event>
 7    1  0.6273950E-006  0.8279302E+02  0.7818608E-02  0.1480472E+00
          2   -1    0    0  502    0  0.00000000000E+00  0.00000000000E+00  0.16890406876E+04  0.16890406876E+04  0.00000000000E+00 0. -1.
          1   -1    0    0  501    0 -0.00000000000E+00 -0.00000000000E+00 -0.10623205514E+04  0.10623205514E+04  0.00000000000E+00 0. -1.
         25    2    1    2    0    0 -0.65201974743E+02 -0.73872031616E+02 -0.62115522376E+03  0.64122318155E+03  0.12499992795E+03 0.  0.
          2    1    1    2  501    0  0.44095655382E+02  0.63725919849E+02 -0.42756649866E+03  0.43453254246E+03  0.00000000000E+00 0. -1.
          1    1    1    2  502    0  0.21106319361E+02  0.10146111767E+02  0.16754418586E+04  0.16756055150E+04  0.00000000000E+00 0. -1.
         22    1    3    3    0    0 -0.44953123366E+02 -0.10268882828E+03 -0.55570592452E+03  0.56689933260E+03  0.00000000000E+00 0.  1.
         22    1    3    3    0    0 -0.20248851377E+02  0.28816796663E+02 -0.65449299234E+02  0.74323848947E+02  0.00000000000E+00 0.  1.
</event>
<event>
 7    1  0.6273950E-006  0.3549351E+02  0.7818608E-02  0.1619495E+00
          2   -1    0    0  502    0  0.00000000000E+00  0.00000000000E+00  0.29878297538E+03  0.29878297538E+03  0.00000000000E+00 0. -1.
          1   -1    0    0  501    0 -0.00000000000E+00 -0.00000000000E+00 -0.14874313423E+04  0.14874313423E+04  0.00000000000E+00 0. -1.
         25    2    1    2    0    0  0.37736918878E+00  0.54510842402E+02 -0.12241146010E+03  0.18324996755E+03  0.12499764277E+03 0.  0.
          2    1    1    2  501    0 -0.93041517154E+01 -0.20293580813E+02 -0.13333418424E+04  0.13335287269E+04  0.00000000000E+00 0. -1.
          1    1    1    2  502    0  0.89267825266E+01 -0.34217261589E+02  0.26710493561E+03  0.26943562323E+03  0.00000000000E+00 0. -1.
         22    1    3    3    0    0  0.11284318368E+02  0.83681078036E+02 -0.36724289795E+02  0.92078945060E+02  0.00000000000E+00 0.  1.
         22    1    3    3    0    0 -0.10906949179E+02 -0.29170235634E+02 -0.85687170308E+02  0.91171022495E+02  0.00000000000E+00 0.  1.
</event>
<event>
 7    1  0.6273950E-006  0.6596855E+02  0.7818608E-02  0.1426640E+00
          2   -1    0    0  502    0  0.00000000000E+00  0.00000000000E+00  0.10791232897E+03  0.10791232897E+03  0.00000000000E+00 0. -1.
          1   -1    0    0  501    0 -0.00000000000E+00 -0.00000000000E+00 -0.50741212405E+03  0.50741212405E+03  0.00000000000E+00 0. -1.
         25    2    1    2    0    0 -0.34181370851E+02 -0.81683620749E+02 -0.71935213155E+02  0.16923317607E+03  0.12499845190E+03 0.  0.
          2    1    1    2  501    0  0.39722922296E+02  0.18012600005E+02 -0.36792579030E+03  0.37050202629E+03  0.00000000000E+00 0. -1.
          1    1    1    2  502    0 -0.55415514452E+01  0.63671020745E+02  0.40361208374E+02  0.75589250668E+02  0.00000000000E+00 0. -1.
         22    1    3    3    0    0 -0.29245470114E+02  0.23035773504E+02 -0.49646808179E+02  0.62054411169E+02  0.00000000000E+00 0.  1.
         22    1    3    3    0    0 -0.49359007361E+01 -0.10471939425E+03 -0.22288404976E+02  0.10717876490E+03  0.00000000000E+00 0.  1.
</event>
<event>
 7    1  0.6273950E-006  0.7881471E+02  0.7818608E-02  0.1410403E+00
          2   -1    0    0  502    0  0.00000000000E+00  0.00000000000E+00  0.25463728622E+03  0.25463728622E+03  0.00000000000E+00 0. -1.
          1   -1    0    0  501    0 -0.00000000000E+00 -0.00000000000E+00 -0.51269723699E+03  0.51269723699E+03  0.00000000000E+00 0. -1.
         25    2    1    2    0    0  0.91175506336E+02  0.10824793946E+02  0.28288291853E+01  0.15512059618E+03  0.12499699183E+03 0.  0.
          2    1    1    2  501    0 -0.73944848166E+02  0.26790528194E+02 -0.43050211902E+03  0.43762729286E+03  0.00000000000E+00 0. -1.
          1    1    1    2  502    0 -0.17230658169E+02 -0.37615322141E+02  0.16961333907E+03  0.17458663417E+03  0.00000000000E+00 0. -1.
         22    1    3    3    0    0  0.87707820823E+01  0.16978598114E+02  0.54437520673E+02  0.57694393742E+02  0.00000000000E+00 0. -1.
         22    1    3    3    0    0  0.82404724253E+02 -0.61538041677E+01 -0.51608691487E+02  0.97426202441E+02  0.00000000000E+00 0. -1.
</event>
<event>
 7    1  0.6273950E-006  0.1150285E+03  0.7818608E-02  0.1399313E+00
          2   -1    0    0  502    0  0.00000000000E+00  0.00000000000E+00  0.15474695837E+03  0.15474695837E+03  0.00000000000E+00 0. -1.
          1   -1    0    0  501    0 -0.00000000000E+00 -0.00000000000E+00 -0.63642665590E+03  0.63642665590E+03  0.00000000000E+00 0. -1.
         25    2    1    2    0    0  0.91210415612E+00 -0.12774373079E+03 -0.58559114894E+02  0.18807888334E+03  0.12500081492E+03 0.  0.
          2    1    1    2  501    0 -0.26837720841E+02  0.11087399797E+03 -0.50387103135E+03  0.51662299883E+03  0.00000000000E+00 0. -1.
          1    1    1    2  502    0  0.25925616685E+02  0.16869732822E+02  0.80750448716E+02  0.86471732108E+02  0.00000000000E+00 0. -1.
         22    1    3    3    0    0  0.34292693275E+02 -0.52588388558E+02 -0.81336275237E+02  0.10274783254E+03  0.00000000000E+00 0.  1.
         22    1    3    3    0    0 -0.33380589119E+02 -0.75155342231E+02  0.22777160343E+02  0.85331050791E+02  0.00000000000E+00 0.  1.
</event>
<event>
 7    1  0.6273950E-006  0.1231842E+03  0.7818608E-02  0.1388062E+00
          2   -1    0    0  502    0  0.00000000000E+00  0.00000000000E+00  0.18865080503E+04  0.18865080503E+04  0.00000000000E+00 0. -1.
          1   -1    0    0  501    0 -0.00000000000E+00 -0.00000000000E+00 -0.17312330044E+03  0.17312330044E+03  0.00000000000E+00 0. -1.
         25    2    1    2    0    0 -0.82193029582E+02  0.49150663061E+02  0.78126157142E+01  0.15766152480E+03  0.12499855058E+03 0.  0.
          2    1    1    2  501    0 -0.31600260042E+02  0.83754847494E-01 -0.93466389516E+02  0.98663820212E+02  0.00000000000E+00 0. -1.
          1    1    1    2  502    0  0.11379328962E+03 -0.49234417909E+02  0.17990385237E+04  0.18033060057E+04  0.00000000000E+00 0. -1.
         22    1    3    3    0    0 -0.89027227764E+02  0.50084779127E+02 -0.39743452485E+02  0.10960782088E+03  0.00000000000E+00 0. -1.
         22    1    3    3    0    0  0.68341981824E+01 -0.93411606608E+00  0.47556068200E+02  0.48053703918E+02  0.00000000000E+00 0. -1.
</event>
<event>
 7    1  0.6273950E-006  0.9893838E+02  0.7818608E-02  0.1292062E+00
          2   -1    0    0  502    0  0.00000000000E+00  0.00000000000E+00  0.27374331753E+04  0.27374331753E+04  0.00000000000E+00 0. -1.
          1   -1    0    0  501    0 -0.00000000000E+00 -0.00000000000E+00 -0.50533263428E+02  0.50533263428E+02  0.00000000000E+00 0. -1.
         25    2    1    2    0    0 -0.24447195693E+02 -0.22955884561E+02  0.99306432867E+02  0.16312446122E+03  0.12499273670E+03 0.  0.
          2    1    1    2  501    0 -0.72123642229E+02  0.54611068044E+02  0.98749674926E+02  0.13392418310E+03  0.00000000000E+00 0. -1.
          1    1    1    2  502    0  0.96570837923E+02 -0.31655183484E+02  0.24888438040E+04  0.24909177944E+04  0.00000000000E+00 0. -1.
         22    1    3    3    0    0 -0.18573714369E+02  0.50835796018E+01 -0.27249218094E+02  0.33366832839E+02  0.00000000000E+00 0. -1.
         22    1    3    3    0    0 -0.58734813245E+01 -0.28039464162E+02  0.12655565096E+03  0.12975762838E+03  0.00000000000E+00 0. -1.
</event>
<event>
 7    1  0.6273950E-006  0.1337215E+03  0.7818608E-02  0.1296403E+00
          2   -1    0    0  502    0  0.00000000000E+00  0.00000000000E+00  0.66302480209E+03  0.66302480209E+03  0.00000000000E+00 0. -1.
          1   -1    0    0  501    0 -0.00000000000E+00 -0.00000000000E+00 -0.84171590689E+02  0.84171590689E+02  0.00000000000E+00 0. -1.
         25    2    1    2    0    0  0.88893041496E+02  0.33993598156E+02  0.22007013588E+03  0.27039624103E+03  0.12500289962E+03 0.  0.
          2    1    1    2  501    0  0.52680394370E+02  0.36843658303E+02 -0.19127994985E+02  0.67071300123E+02  0.00000000000E+00 0. -1.
          1    1    1    2  502    0 -0.14157343587E+03 -0.70837256459E+02  0.37791107050E+03  0.40972885163E+03  0.00000000000E+00 0. -1.
         22    1    3    3    0    0 -0.65203527077E+01 -0.15306167398E+02  0.12758513987E+03  0.12866530875E+03  0.00000000000E+00 0.  1.
         22    1    3    3    0    0  0.95413394204E+02  0.49299765554E+02  0.92484996007E+02  0.14173093228E+03  0.00000000000E+00 0.  1.
</event>
<event>
 7    1  0.6273950E-006  0.3480183E+02  0.7818608E-02  0.1563900E+00
          2   -1    0    0  502    0  0.00000000000E+00  0.00000000000E+00  0.38603440699E+03  0.38603440699E+03  0.00000000000E+00 0. -1.
          1   -1    0    0  501    0 -0.00000000000E+00 -0.00000000000E+00 -0.16199251235E+04  0.16199251235E+04  0.00000000000E+00 0. -1.
         25    2    1    2    0    0 -0.50116546220E+01  0.50389636264E+02  0.83044313929E+02  0.15838482779E+03  0.12500065389E+03 0.  0.
          2    1    1    2  501    0  0.24276734243E+02 -0.24925409776E+02 -0.15811020743E+04  0.15814848736E+04  0.00000000000E+00 0. -1.
          1    1    1    2  502    0 -0.19265079621E+02 -0.25464226488E+02  0.26416704386E+03  0.26608982916E+03  0.00000000000E+00 0. -1.
         22    1    3    3    0    0  0.20873749103E+02  0.66240131957E+02 -0.54704632093E+00  0.69453349400E+02  0.00000000000E+00 0. -1.
         22    1    3    3    0    0 -0.25885403725E+02 -0.15850495693E+02  0.83591360250E+02  0.88931478387E+02  0.00000000000E+00 0. -1.
</event>
<event>
 7    1  0.6273950E-006  0.6369922E+02  0.7818608E-02  0.1391766E+00
          2   -1    0    0  502    0  0.00000000000E+00  0.00000000000E+00  0.64170773773E+03  0.64170773773E+03  0.00000000000E+00 0. -1.
          1   -1    0    0  501    0 -0.00000000000E+00 -0.00000000000E+00 -0.14587600717E+03  0.14587600717E+03  0.00000000000E+00 0. -1.
         25    2    1    2    0    0  0.24721826075E+02 -0.63277348285E+02  0.47218423979E+03  0.49315101263E+03  0.12499909383E+03 0.  0.
          2    1    1    2  501    0 -0.59317747838E+02  0.15111296402E+00 -0.11994272794E+03  0.13380910294E+03  0.00000000000E+00 0. -1.
          1    1    1    2  502    0  0.34595921763E+02  0.63126235321E+02  0.14359021871E+03  0.16062362933E+03  0.00000000000E+00 0. -1.
         22    1    3    3    0    0  0.65509371588E+02 -0.12238357061E+02  0.33017267323E+03  0.33683118813E+03  0.00000000000E+00 0.  1.
         22    1    3    3    0    0 -0.40787545513E+02 -0.51038991224E+02  0.14201156656E+03  0.15631982450E+03  0.00000000000E+00 0.  1.
</event>
<event>
 7    1  0.6273950E-006  0.9066363E+02  0.7818608E-02  0.1429794E+00
          2   -1    0    0  502    0  0.00000000000E+00  0.00000000000E+00  0.78747897678E+02  0.78747897678E+02  0.00000000000E+00 0. -1.
          1   -1    0    0  501    0 -0.00000000000E+00 -0.00000000000E+00 -0.19566701777E+04  0.19566701777E+04  0.00000000000E+00 0. -1.
         25    2    1    2    0    0  0.64060617651E+02 -0.61437651946E+02 -0.29084262983E+03  0.32876705272E+03  0.12497996565E+03 0.  0.
          2    1    1    2  501    0 -0.83227126930E+02  0.37092730855E+02 -0.16415006828E+04  0.16440277118E+04  0.00000000000E+00 0. -1.
          1    1    1    2  502    0  0.19166509279E+02  0.24344921090E+02  0.54421032692E+02  0.62623310837E+02  0.00000000000E+00 0. -1.
         22    1    3    3    0    0  0.40507676024E+02 -0.20891383315E+02 -0.13566361481E+02  0.47553841880E+02  0.00000000000E+00 0. -1.
         22    1    3    3    0    0  0.23552941627E+02 -0.40546268631E+02 -0.27727626835E+03  0.28121321084E+03  0.00000000000E+00 0. -1.
</event>
<event>
 7    1  0.6273950E-006  0.1746533E+03  0.7818608E-02  0.1288403E+00
          2   -1    0    0  502    0  0.00000000000E+00  0.00000000000E+00  0.10040976443E+04  0.10040976443E+04  0.00000000000E+00 0. -1.
          1   -1    0    0  501    0 -0.00000000000E+00 -0.00000000000E+00 -0.48532210433E+03  0.48532210433E+03  0.00000000000E+00 0. -1.
         25    2    1    2    0    0  0.16554649526E+03 -0.94707590447E+02  0.21207619314E+03  0.31141138086E+03  0.12500226658E+03 0.  0.
          2    1    1    2  501    0 -0.16894595763E+03  0.41782797464E+02 -0.41726472553E+03  0.45210440159E+03  0.00000000000E+00 0. -1.
          1    1    1    2  502    0  0.33994623674E+01  0.52924792983E+02  0.72396407241E+03  0.72590396623E+03  0.00000000000E+00 0. -1.
         22    1    3    3    0    0 -0.17102871369E+02 -0.95226973276E+01  0.46945014564E+02  0.50862799430E+02  0.00000000000E+00 0. -1.
         22    1    3    3    0    0  0.18264936663E+03 -0.85184893120E+02  0.16513117857E+03  0.26054858143E+03  0.00000000000E+00 0. -1.
</event>
<event>
 7    1  0.6273950E-006  0.5846299E+02  0.7818608E-02  0.1444163E+00
          2   -1    0    0  502    0  0.00000000000E+00  0.00000000000E+00  0.18097708992E+04  0.18097708992E+04  0.00000000000E+00 0. -1.
          1   -1    0    0  501    0 -0.00000000000E+00 -0.00000000000E+00 -0.39314225070E+03  0.39314225070E+03  0.00000000000E+00 0. -1.
         25    2    1    2    0    0  0.53412790446E+02 -0.45301796941E+02  0.48906484670E+03  0.50962157585E+03  0.12499818918E+03 0.  0.
          2    1    1    2  501    0 -0.58425361435E+02  0.24563440957E+01 -0.38027331390E+03  0.38474322574E+03  0.00000000000E+00 0. -1.
          1    1    1    2  502    0  0.50125709896E+01  0.42845452845E+02  0.13078371157E+04  0.13085483483E+04  0.00000000000E+00 0. -1.
         22    1    3    3    0    0  0.49483556372E+01  0.33013139736E+02  0.26898343180E+03  0.27104693358E+03  0.00000000000E+00 0.  1.
         22    1    3    3    0    0  0.48464434808E+02 -0.78314936677E+02  0.22008141490E+03  0.23857464227E+03  0.00000000000E+00 0.  1.
</event>
<event>
 7    1  0.6273950E-006  0.1369526E+03  0.7818608E-02  0.1367022E+00
          2   -1    0    0  502    0  0.00000000000E+00  0.00000000000E+00  0.13977061760E+04  0.13977061760E+04  0.00000000000E+00 0. -1.
          1   -1    0    0  501    0 -0.00000000000E+00 -0.00000000000E+00 -0.39896330896E+03  0.39896330896E+03  0.00000000000E+00 0. -1.
         25    2    1    2    0    0  0.15449560890E+03 -0.14497504277E+02  0.95591608675E+03  0.97646274076E+03  0.12499939353E+03 0.  0.
          2    1    1    2  501    0 -0.32976875324E+02  0.72546575243E+01 -0.37933957849E+03  0.38083936269E+03  0.00000000000E+00 0. -1.
          1    1    1    2  502    0 -0.12151873358E+03  0.72428467528E+01  0.42216635874E+03  0.43936738146E+03  0.00000000000E+00 0. -1.
         22    1    3    3    0    0  0.14170275113E+03 -0.33340714312E+02  0.93251103581E+03  0.94380512015E+03  0.00000000000E+00 0. -1.
         22    1    3    3    0    0  0.12792857775E+02  0.18843210035E+02  0.23405050937E+02  0.32657620609E+02  0.00000000000E+00 0. -1.
</event>
<event>
 7    1  0.6273950E-006  0.2378818E+03  0.7818608E-02  0.1299854E+00
          2   -1    0    0  502    0  0.00000000000E+00  0.00000000000E+00  0.16795716861E+04  0.16795716861E+04  0.00000000000E+00 0. -1.
          1   -1    0    0  501    0 -0.00000000000E+00 -0.00000000000E+00 -0.81298238428E+03  0.81298238428E+03  0.00000000000E+00 0. -1.
         25    2    1    2    0    0  0.63899685467E+02  0.25472101718E+03  0.49343604774E+03  0.57277336135E+03  0.12499689540E+03 0.  0.
          2    1    1    2  501    0  0.52946931238E+01 -0.34599802253E+02 -0.76129768952E+03  0.76210193029E+03  0.00000000000E+00 0. -1.
          1    1    1    2  502    0 -0.69194378591E+02 -0.22012121493E+03  0.11344509436E+04  0.11576787788E+04  0.00000000000E+00 0. -1.
         22    1    3    3    0    0  0.36798198493E+02  0.15565178547E+03  0.16996436816E+03  0.23338695803E+03  0.00000000000E+00 0.  1.
         22    1    3    3    0    0  0.27101486974E+02  0.99069231714E+02  0.32347167958E+03  0.33938640332E+03  0.00000000000E+00 0.  1.
</event>
<event>
 7    1  0.6273950E-006  0.9281516E+02  0.7818608E-02  0.1380490E+00
          2   -1    0    0  502    0  0.00000000000E+00  0.00000000000E+00  0.78646666701E+03  0.78646666701E+03  0.00000000000E+00 0. -1.
          1   -1    0    0  501    0 -0.00000000000E+00 -0.00000000000E+00 -0.86106572380E+02  0.86106572380E+02  0.00000000000E+00 0. -1.
         25    2    1    2    0    0 -0.89333552535E+02 -0.32621787158E+02  0.16101676795E+03  0.22493888690E+03  0.12500575456E+03 0.  0.
          2    1    1    2  501    0  0.63881688474E+02  0.69239353283E+02 -0.11573836711E+02  0.94915287819E+02  0.00000000000E+00 0. -1.
          1    1    1    2  502    0  0.25451864060E+02 -0.36617566126E+02  0.55091716340E+03  0.55271906468E+03  0.00000000000E+00 0. -1.
         22    1    3    3    0    0 -0.74451096747E+02 -0.20081258799E+02  0.18118512994E+03  0.19691184340E+03  0.00000000000E+00 0. -1.
         22    1    3    3    0    0 -0.14882455788E+02 -0.12540528358E+02 -0.20168361989E+02  0.28027043496E+02  0.00000000000E+00 0. -1.
</event>
<event>
 7    1  0.6273950E-006  0.2147870E+03  0.7818608E-02  0.1160188E+00
          2   -1    0    0  502    0  0.00000000000E+00  0.00000000000E+00  0.10443543750E+04  0.10443543750E+04  0.00000000000E+00 0. -1.
          1   -1    0    0  501    0 -0.00000000000E+00 -0.00000000000E+00 -0.28404398163E+04  0.28404398163E+04  0.00000000000E+00 0. -1.
         25    2    1    2    0    0  0.75685535306E+02  0.23712812683E+01 -0.24735328632E+02  0.14821477794E+03  0.12498744212E+03 0.  0.
          2    1    1    2  501    0  0.15644838407E+03  0.51558324952E+02 -0.27370021672E+04  0.27419546351E+04  0.00000000000E+00 0. -1.
          1    1    1    2  502    0 -0.23213391938E+03 -0.53929606220E+02  0.96565205456E+03  0.99462477821E+03  0.00000000000E+00 0. -1.
         22    1    3    3    0    0  0.31498875169E+01  0.49583782630E+02 -0.35410904235E+02  0.61011518830E+02  0.00000000000E+00 0. -1.
         22    1    3    3    0    0  0.72535647789E+02 -0.47212501362E+02  0.10675575603E+02  0.87203259110E+02  0.00000000000E+00 0. -1.
</event>
<event>
 7    1  0.6273950E-006  0.5003721E+02  0.7818608E-02  0.1474516E+00
          2   -1    0    0  502    0  0.00000000000E+00  0.00000000000E+00  0.21294864725E+04  0.21294864725E+04  0.00000000000E+00 0. -1.
          1   -1    0    0  501    0 -0.00000000000E+00 -0.00000000000E+00 -0.81444189389E+02  0.81444189389E+02  0.00000000000E+00 0. -1.
         25    2    1    2    0    0  0.13891574302E+02 -0.73248798366E+02  0.76235168452E+03  0.77612607789E+03  0.12503293801E+03 0.  0.
          2    1    1    2  501    0 -0.32839138847E+02  0.37545291016E+02 -0.65878114455E+02  0.82631615510E+02  0.00000000000E+00 0. -1.
          1    1    1    2  502    0  0.18947564545E+02  0.35703507350E+02  0.13515687131E+04  0.13521729685E+04  0.00000000000E+00 0. -1.
         22    1    3    3    0    0 -0.15173655500E+01  0.31735722269E+02  0.89790388041E+02  0.95245851619E+02  0.00000000000E+00 0.  1.
         22    1    3    3    0    0  0.15408939852E+02 -0.10498452063E+03  0.67256129648E+03  0.68088022627E+03  0.00000000000E+00 0.  1.
</event>
<event>
 7    1  0.6273950E-006  0.3680102E+02  0.7818608E-02  0.1572612E+00
          2   -1    0    0  502    0  0.00000000000E+00  0.00000000000E+00  0.39912069076E+03  0.39912069076E+03  0.00000000000E+00 0. -1.
          1   -1    0    0  501    0 -0.00000000000E+00 -0.00000000000E+00 -0.19372232634E+03  0.19372232634E+03  0.00000000000E+00 0. -1.
         25    2    1    2    0    0  0.15631121910E+02 -0.88164478989E+01  0.13245425749E+03  0.18300626538E+03  0.12500040445E+03 0.  0.
          2    1    1    2  501    0 -0.35086300388E+02 -0.12134251082E+02 -0.16553644668E+03  0.16964847097E+03  0.00000000000E+00 0. -1.
          1    1    1    2  502    0  0.19455178479E+02  0.20950698981E+02  0.23848055361E+03  0.24018828075E+03  0.00000000000E+00 0. -1.
         22    1    3    3    0    0 -0.32044473383E+00 -0.47993953913E+02  0.13226671000E+03  0.14070538324E+03  0.00000000000E+00 0. -1.
         22    1    3    3    0    0  0.15951566644E+02  0.39177506014E+02  0.18754749309E+00  0.42300882141E+02  0.00000000000E+00 0. -1.
</event>
<event>
 7    1  0.6273950E-006  0.6601545E+02  0.7818608E-02  0.1464035E+00
          2   -1    0    0  502    0  0.00000000000E+00  0.00000000000E+00  0.17618632293E+04  0.17618632293E+04  0.00000000000E+00 0. -1.
          1   -1    0    0  501    0 -0.00000000000E+00 -0.00000000000E+00 -0.58173268931E+02  0.58173268931E+02  0.00000000000E+00 0. -1.
         25    2    1    2    0    0 -0.15108656835E+02  0.55726420902E+02  0.46177540933E+03  0.48186814028E+03  0.12500668167E+03 0.  0.
          2    1    1    2  501    0 -0.16686777808E+02 -0.64663638241E+02 -0.24640476773E+02  0.71182777129E+02  0.00000000000E+00 0. -1.
          1    1    1    2  502    0  0.31795434643E+02  0.89372173394E+01  0.12665550279E+04  0.12669855809E+04  0.00000000000E+00 0. -1.
         22    1    3    3    0    0 -0.45637240656E+02 -0.22069532397E+02  0.22904043336E+03  0.23458333724E+03  0.00000000000E+00 0. -1.
         22    1    3    3    0    0  0.30528583821E+02  0.77795953299E+02  0.23273497596E+03  0.24728480304E+03  0.00000000000E+00 0. -1.
</event>
<event>
 7    1  0.6273950E-006  0.8700629E+02  0.7818608E-02  0.1349474E+00
          2   -1    0    0  502    0  0.00000000000E+00  0.00000000000E+00  0.21402202769E+03  0.21402202769E+03  0.00000000000E+00 0. -1.
          1   -1    0    0  501    0 -0.00000000000E+00 -0.00000000000E+00 -0.69083946378E+03  0.69083946378E+03  0.00000000000E+00 0. -1.
         25    2    1    2    0    0 -0.34213030595E+02  0.26662836620E+02 -0.25892243856E+03  0.29077472382E+03  0.12501068956E+03 0.  0.
          2    1    1    2  501    0 -0.54732171397E+02 -0.28304034673E+02 -0.40354549966E+03  0.40822260994E+03  0.00000000000E+00 0. -1.
          1    1    1    2  502    0  0.88945201992E+02  0.16411980537E+01  0.18565050214E+03  0.20586415772E+03  0.00000000000E+00 0. -1.
         22    1    3    3    0    0  0.10831279407E+02 -0.45628290588E+02 -0.83537327997E+02  0.95800535930E+02  0.00000000000E+00 0. -1.
         22    1    3    3    0    0 -0.45044310002E+02  0.72291127208E+02 -0.17538511056E+03  0.19497418789E+03  0.00000000000E+00 0. -1.
</event>
<event>
 7    1  0.6273950E-006  0.6145112E+02  0.7818608E-02  0.1481116E+00
          2   -1    0    0  502    0  0.00000000000E+00  0.00000000000E+00  0.84279899759E+03  0.84279899759E+03  0.00000000000E+00 0. -1.
          1   -1    0    0  501    0 -0.00000000000E+00 -0.00000000000E+00 -0.22484583482E+04  0.22484583482E+04  0.00000000000E+00 0. -1.
         25    2    1    2    0    0 -0.18791137170E+02 -0.25820143976E+02 -0.59941978869E+02  0.14225993352E+03  0.12500024473E+03 0.  0.
          2    1    1    2  501    0  0.46411207041E+02  0.40774235989E+02 -0.21466051796E+04  0.21474939663E+04  0.00000000000E+00 0. -1.
          1    1    1    2  502    0 -0.27620069872E+02 -0.14954092012E+02  0.80088780783E+03  0.80150344594E+03  0.00000000000E+00 0. -1.
         22    1    3    3    0    0  0.50101121225E+02  0.10276532646E+02 -0.21123114038E+02  0.55334577056E+02  0.00000000000E+00 0. -1.
         22    1    3    3    0    0 -0.68892258395E+02 -0.36096676623E+02 -0.38818864830E+02  0.86925356466E+02  0.00000000000E+00 0. -1.
</event>
<event>
 7    1  0.6273950E-006  0.5501479E+02  0.7818608E-02  0.1516277E+00
          2   -1    0    0  502    0  0.00000000000E+00  0.00000000000E+00  0.53707126727E+02  0.53707126727E+02  0.00000000000E+00 0. -1.
          1   -1    0    0  501    0 -0.00000000000E+00 -0.00000000000E+00 -0.27684185062E+04  0.27684185062E+04  0.00000000000E+00 0. -1.
         25    2    1    2    0    0 -0.61651340949E+02  0.33792076758E+02 -0.41502067969E+03  0.43910123415E+03  0.12499974787E+03 0.  0.
          2    1    1    2  501    0  0.54244763064E+02 -0.72661923596E+01 -0.23364509666E+04  0.23370918705E+04  0.00000000000E+00 0. -1.
          1    1    1    2  502    0  0.74065778851E+01 -0.26525884398E+02  0.36760266803E+02  0.45932528284E+02  0.00000000000E+00 0. -1.
         22    1    3    3    0    0 -0.32414357941E+02 -0.35593340586E+02 -0.28345547939E+03  0.28751449579E+03  0.00000000000E+00 0.  1.
         22    1    3    3    0    0 -0.29236983008E+02  0.69385417344E+02 -0.13156520030E+03  0.15158673836E+03  0.00000000000E+00 0.  1.
</event>
<event>
 7    1  0.6273950E-006  0.1113423E+03  0.7818608E-02  0.1312584E+00
          2   -1    0    0  502    0  0.00000000000E+00  0.00000000000E+00  0.26841803565E+04  0.26841803565E+04  0.00000000000E+00 0. -1.
          1   -1    0    0  501    0 -0.00000000000E+00 -0.00000000000E+00 -0.19959970404E+03  0.19959970404E+03  0.00000000000E+00 0. -1.
         25    2    1    2    0    0 -0.10706190160E+03  0.40014846172E+02  0.30304016045E+03  0.34716382038E+03  0.12500376253E+03 0.  0.
          2    1    1    2  501    0  0.64894507128E+02 -0.91537895646E+02 -0.15928787185E+03  0.19484124182E+03  0.00000000000E+00 0. -1.
          1    1    1    2  502    0  0.42167394474E+02  0.51523049474E+02  0.23408283638E+04  0.23417749983E+04  0.00000000000E+00 0. -1.
         22    1    3    3    0    0  0.24215115251E+02 -0.13086323907E+02  0.42720983726E+02  0.50820331861E+02  0.00000000000E+00 0. -1.
         22    1    3    3    0    0 -0.13127701685E+03  0.53101170080E+02  0.26031917673E+03  0.29634348852E+03  0.00000000000E+00 0. -1.
</event>
<event>
 7    1  0.6273950E-006  0.5648008E+02  0.7818608E-02  0.1449199E+00
          2   -1    0    0  502    0  0.00000000000E+00  0.00000000000E+00  0.42162331117E+03  0.42162331117E+03  0.00000000000E+00 0. -1.
          1   -1    0    0  501    0 -0.00000000000E+00 -0.00000000000E+00 -0.16023263843E+04  0.16023263843E+04  0.00000000000E+00 0. -1.
         25    2    1    2    0    0  0.63765341486E+00 -0.23426303103E+02  0.12857079414E+03  0.18084385405E+03  0.12499940865E+03 0.  0.
          2    1    1    2  501    0  0.38321925076E+02  0.41667532170E+02 -0.15739443672E+04  0.15749621025E+04  0.00000000000E+00 0. -1.
          1    1    1    2  502    0 -0.38959578491E+02 -0.18241229067E+02  0.26467049995E+03  0.26814373895E+03  0.00000000000E+00 0. -1.
         22    1    3    3    0    0  0.58802637276E+02 -0.14380725249E+02  0.96211794973E+02  0.11367174188E+03  0.00000000000E+00 0. -1.
         22    1    3    3    0    0 -0.58164983861E+02 -0.90455778543E+01  0.32358999165E+02  0.67172112169E+02  0.00000000000E+00 0. -1.
</event>
<event>
 7    1  0.6273950E-006  0.1681948E+03  0.7818608E-02  0.1281877E+00
          2   -1    0    0  502    0  0.00000000000E+00  0.00000000000E+00  0.35619737263E+04  0.35619737263E+04  0.00000000000E+00 0. -1.
          1   -1    0    0  501    0 -0.00000000000E+00 -0.00000000000E+00 -0.20719208565E+04  0.20719208565E+04  0.00000000000E+00 0. -1.
         25    2    1    2    0    0 -0.12173970696E+03 -0.29838993121E+01  0.69010009328E+03  0.71182293558E+03  0.12499717181E+03 0.  0.
          2    1    1    2  501    0 -0.58531117928E+02 -0.20947565630E+01 -0.20578004192E+04  0.20586337326E+04  0.00000000000E+00 0. -1.
          1    1    1    2  502    0  0.18027082489E+03  0.50786558751E+01  0.28577531957E+04  0.28634379146E+04  0.00000000000E+00 0. -1.
         22    1    3    3    0    0 -0.42714356137E+02 -0.51859228449E+01  0.54405296246E+03  0.54575180804E+03  0.00000000000E+00 0. -1.
         22    1    3    3    0    0 -0.79025350824E+02  0.22020235328E+01  0.14604713082E+03  0.16607112754E+03  0.00000000000E+00 0. -1.
</event>
<event>
 7    1  0.6273950E-006  0.5124845E+02  0.7818608E-02  0.1444546E+00
          2   -1    0    0  502    0  0.00000000000E+00  0.00000000000E+00  0.13196575087E+04  0.13196575087E+04  0.00000000000E+00 0. -1.
          1   -1    0    0  501    0 -0.00000000000E+00 -0.00000000000E+00 -0.50172823392E+02  0.50172823392E+02  0.00000000000E+00 0. -1.
         25    2    1    2    0    0 -0.52938364468E+01  0.52294051278E+02  0.57354661763E+03  0.58935774973E+03  0.12499656820E+03 0.  0.
          2    1    1    2  501    0 -0.41209252806E+02 -0.30466400826E+02 -0.25476286792E+02  0.57231506051E+02  0.00000000000E+00 0. -1.
          1    1    1    2  502    0  0.46503089253E+02 -0.21827650452E+02  0.72141435450E+03  0.72324107634E+03  0.00000000000E+00 0. -1.
         22    1    3    3    0    0  0.29526027500E+02 -0.31467464806E+02  0.14345326767E+03  0.14980262897E+03  0.00000000000E+00 0. -1.
         22    1    3    3    0    0 -0.34819863947E+02  0.83761516084E+02  0.43009334996E+03  0.43955512076E+03  0.00000000000E+00 0. -1.
</event>
<event>
 7    1  0.6273950E-006  0.1137553E+03  0.7818608E-02  0.1278496E+00
          2   -1    0    0  502    0  0.00000000000E+00  0.00000000000E+00  0.20305914646E+04  0.20305914646E+04  0.00000000000E+00 0. -1.
          1   -1    0    0  501    0 -0.00000000000E+00 -0.00000000000E+00 -0.57089980382E+02  0.57089980382E+02  0.00000000000E+00 0. -1.
         25    2    1    2    0    0  0.40623114804E+02  0.12903722705E+03  0.44299786720E+03  0.47976335900E+03  0.12499970747E+03 0.  0.
          2    1    1    2  501    0  0.57020806859E+02 -0.68890890796E+02  0.18185695008E+02  0.91258132527E+02  0.00000000000E+00 0. -1.
          1    1    1    2  502    0 -0.97643921663E+02 -0.60146336258E+02  0.15123179220E+04  0.15166599534E+04  0.00000000000E+00 0. -1.
         22    1    3    3    0    0 -0.62622055630E+01  0.64634185174E+01  0.22592199930E+03  0.22610117373E+03  0.00000000000E+00 0.  1.
         22    1    3    3    0    0  0.46885320367E+02  0.12257380854E+03  0.21707586791E+03  0.25366218526E+03  0.00000000000E+00 0.  1.
</event>
<event>
 7    1  0.6273950E-006  0.7776384E+02  0.7818608E-02  0.1504971E+00
          2   -1    0    0  502    0  0.00000000000E+00  0.00000000000E+00  0.16059162883E+04  0.16059162883E+04  0.00000000000E+00 0. -1.
          1   -1    0    0  501    0 -0.00000000000E+00 -0.00000000000E+00 -0.77797718264E+03  0.77797718264E+03  0.00000000000E+00 0. -1.
         25    2    1    2    0    0 -0.64336351995E+00 -0.86413124399E+02 -0.26520036294E+03  0.30565240909E+03  0.12499808275E+03 0.  0.
          2    1    1    2  501    0  0.18131298521E+02  0.10662764026E+02 -0.49137277249E+03  0.49182277303E+03  0.00000000000E+00 0. -1.
          1    1    1    2  502    0 -0.17487935001E+02  0.75750360373E+02  0.15845122411E+04  0.15864182889E+04  0.00000000000E+00 0. -1.
         22    1    3    3    0    0  0.52610899070E+02 -0.83328726511E+02 -0.16759262737E+03  0.19441932031E+03  0.00000000000E+00 0. -1.
         22    1    3    3    0    0 -0.53254262590E+02 -0.30843978880E+01 -0.97607735571E+02  0.11123308877E+03  0.00000000000E+00 0. -1.
</event>
<event>
 7    1  0.6273950E-006  0.1311466E+03  0.7818608E-02  0.1309507E+00
          2   -1    0    0  502    0  0.00000000000E+00  0.00000000000E+00  0.50969907534E+03  0.50969907534E+03  0.00000000000E+00 0. -1.
          1   -1    0    0  501    0 -0.00000000000E+00 -0.00000000000E+00 -0.86502529973E+03  0.86502529973E+03  0.00000000000E+00 0. -1.
         25    2    1    2    0    0 -0.89454924376E+02 -0.63305503785E+02 -0.26776391718E+02  0.16838628178E+03  0.12500877743E+03 0.  0.
          2    1    1    2  501    0  0.13167826337E+03  0.23362855560E+02 -0.75965272807E+03  0.77133472327E+03  0.00000000000E+00 0. -1.
          1    1    1    2  502    0 -0.42223338995E+02  0.39942648225E+02  0.43110289540E+03  0.43500337001E+03  0.00000000000E+00 0. -1.
         22    1    3    3    0    0 -0.55800138264E+02 -0.81678793756E+02 -0.61648104338E+02  0.11655715142E+03  0.00000000000E+00 0.  1.
         22    1    3    3    0    0 -0.33654786112E+02  0.18373289970E+02  0.34871712620E+02  0.51829130358E+02  0.00000000000E+00 0.  1.
</event>
<event>
 7    1  0.6273950E-006  0.1262354E+03  0.7818608E-02  0.1345736E+00
          2   -1    0    0  502    0  0.00000000000E+00  0.00000000000E+00  0.52948429147E+02  0.52948429147E+02  0.00000000000E+00 0. -1.
          1   -1    0    0  501    0 -0.00000000000E+00 -0.00000000000E+00 -0.29037799980E+04  0.29037799980E+04  0.00000000000E+00 0. -1.
         25    2    1    2    0    0  0.13505215158E+03 -0.19600399052E+02 -0.15955275753E+04  0.16062234436E+04  0.12498899113E+03 0.  0.
          2    1    1    2  501    0 -0.22684270761E+02 -0.37527226192E+02 -0.12183571622E+04  0.12191460305E+04  0.00000000000E+00 0. -1.
          1    1    1    2  502    0 -0.11236788081E+03  0.57127625244E+02 -0.36946831281E+02  0.13135895305E+03  0.00000000000E+00 0. -1.
         22    1    3    3    0    0  0.68276282817E+02 -0.69393560644E+02 -0.10306465553E+04  0.10352340021E+04  0.00000000000E+00 0. -1.
         22    1    3    3    0    0  0.66775868759E+02  0.49793161592E+02 -0.56488102002E+03  0.57098944155E+03  0.00000000000E+00 0. -1.
</event>
<event>
 7    1  0.6273950E-006  0.2599343E+03  0.7818608E-02  0.1213406E+00
          2   -1    0    0  502    0  0.00000000000E+00  0.00000000000E+00  0.39056565422E+04  0.39056565422E+04  0.00000000000E+00 0. -1.
          1   -1    0    0  501    0 -0.00000000000E+00 -0.00000000000E+00 -0.28101313113E+03  0.28101313113E+03  0.00000000000E+00 0. -1.
         25    2    1    2    0    0 -0.13085274238E+03 -0.16221573545E+03  0.18831440987E+03  0.30744541680E+03  0.12499592924E+03 0.  0.
          2    1    1    2  501    0  0.19846349002E+03  0.19545980139E+03 -0.13329594316E+03  0.30880430582E+03  0.00000000000E+00 0. -1.
          1    1    1    2  502    0 -0.67610747637E+02 -0.33244065942E+02  0.35696249443E+04  0.35704199507E+04  0.00000000000E+00 0. -1.
         22    1    3    3    0    0 -0.85816005221E+02 -0.39582599327E+02  0.13841114772E+03  0.16759717997E+03  0.00000000000E+00 0.  1.
         22    1    3    3    0    0 -0.45036737161E+02 -0.12263313612E+03  0.49903262152E+02  0.13984823683E+03  0.00000000000E+00 0.  1.
</event>
<event>
 7    1  0.6273950E-006  0.1066091E+03  0.7818608E-02  0.1269056E+00
          2   -1    0    0  502    0  0.00000000000E+00  0.00000000000E+00  0.16058917111E+04  0.16058917111E+04  0.00000000000E+00 0. -1.
          1   -1    0    0  501    0 -0.00000000000E+00 -0.00000000000E+00 -0.12367611604E+03  0.12367611604E+03  0.00000000000E+00 0. -1.
         25    2    1    2    0    0 -0.60179438698E+00 -0.14959268385E+03  0.71767719369E+03  0.74368210566E+03  0.12499674685E+03 0.  0.
          2    1    1    2  501    0  0.74710572380E+02  0.75938236800E+02 -0.81056637088E+02  0.13385986646E+03  0.00000000000E+00 0. -1.
          1    1    1    2  502    0 -0.74108777993E+02  0.73654447045E+02  0.84559503845E+03  0.85202585501E+03  0.00000000000E+00 0. -1.
         22    1    3    3    0    0 -0.22788371954E+00 -0.17091504829E+03  0.66993549160E+03  0.69139393154E+03  0.00000000000E+00 0.  1.
         22    1    3    3    0    0 -0.37391066744E+00  0.21322364445E+02  0.47741702093E+02  0.52288174127E+02  0.00000000000E+00 0.  1.
</event>
<event>
 7    1  0.6273950E-006  0.7089422E+02  0.7818608E-02  0.1409144E+00
          2   -1    0    0  502    0  0.00000000000E+00  0.00000000000E+00  0.11985580026E+04  0.11985580026E+04  0.00000000000E+00 0. -1.
          1   -1    0    0  501    0 -0.00000000000E+00 -0.00000000000E+00 -0.30875684304E+04  0.30875684304E+04  0.00000000000E+00 0. -1.
         25    2    1    2    0    0  0.46623633307E+02  0.26797798504E+02 -0.18667327071E+03  0.23101211607E+03  0.12501120985E+03 0.  0.
          2    1    1    2  501    0  0.23134738707E+02 -0.40279363916E+02 -0.28774653466E+04  0.28778402430E+04  0.00000000000E+00 0. -1.
          1    1    1    2  502    0 -0.69758372015E+02  0.13481565412E+02  0.11751281896E+04  0.11772740739E+04  0.00000000000E+00 0. -1.
         22    1    3    3    0    0 -0.13923876144E+02 -0.19793430260E+02  0.49669725961E+01  0.24704757135E+02  0.00000000000E+00 0. -1.
         22    1    3    3    0    0  0.60547509451E+02  0.46591228764E+02 -0.19164024330E+03  0.20630735894E+03  0.00000000000E+00 0. -1.
</event>
<event>
 7    1  0.6273950E-006  0.3941488E+02  0.7818608E-02  0.1530746E+00
          2   -1    0    0  502    0  0.00000000000E+00  0.00000000000E+00  0.28285537869E+03  0.28285537869E+03  0.00000000000E+00 0. -1.
          1   -1    0    0  501    0 -0.00000000000E+00 -0.00000000000E+00 -0.52239221302E+03  0.52239221302E+03  0.00000000000E+00 0. -1.
         25    2    1    2    0    0  0.32623719902E+02  0.52128367713E+02 -0.24555949574E+03  0.28232256922E+03  0.12499957328E+03 0.  0.
          2    1    1    2  501    0 -0.32486171205E+02 -0.12785566597E+02 -0.25579571652E+03  0.25816713699E+03  0.00000000000E+00 0. -1.
          1    1    1    2  502    0 -0.13754869630E+00 -0.39342801116E+02  0.26181837792E+03  0.26475788550E+03  0.00000000000E+00 0. -1.
         22    1    3    3    0    0 -0.43601809455E+02  0.26142267635E+02 -0.14398342924E+03  0.15269500267E+03  0.00000000000E+00 0. -1.
         22    1    3    3    0    0  0.76225529357E+02  0.25986100078E+02 -0.10157606650E+03  0.12962756654E+03  0.00000000000E+00 0. -1.
</event>
<event>
 7    1  0.6273950E-006  0.1156950E+03  0.7818608E-02  0.1441742E+00
          2   -1    0    0  502    0  0.00000000000E+00  0.00000000000E+00  0.31364217601E+04  0.31364217601E+04  0.00000000000E+00 0. -1.
          1   -1    0    0  501    0 -0.00000000000E+00 -0.00000000000E+00 -0.34773408348E+03  0.34773408348E+03  0.00000000000E+00 0. -1.
         25    2    1    2    0    0  0.13404323321E+03 -0.12633231443E+01  0.20742130657E+03  0.27679519579E+03  0.12499119023E+03 0.  0.
          2    1    1    2  501    0 -0.19540650967E+02 -0.10524593835E+02 -0.31150767656E+03  0.31229735297E+03  0.00000000000E+00 0. -1.
          1    1    1    2  502    0 -0.11450258224E+03  0.11787916979E+02  0.28927740466E+04  0.28950632949E+04  0.00000000000E+00 0. -1.
         22    1    3    3    0    0  0.13495464876E+02 -0.39744837110E+02  0.10799840195E+03  0.11586817714E+03  0.00000000000E+00 0.  1.
         22    1    3    3    0    0  0.12054776834E+03  0.38481513966E+02  0.99422904621E+02  0.16092701865E+03  0.00000000000E+00 0.  1.
</event>
<event>
 7    1  0.6273950E-006  0.8609975E+02  0.7818608E-02  0.1339863E+00
          2   -1    0    0  502    0  0.00000000000E+00  0.00000000000E+00  0.16726392637E+04  0.16726392637E+04  0.00000000000E+00 0. -1.
          1   -1    0    0  501    0 -0.00000000000E+00 -0.00000000000E+00 -0.36218513869E+03  0.36218513869E+03  0.00000000000E+00 0. -1.
         25    2    1    2    0    0 -0.12087600628E+03 -0.61392008299E+02  0.18084522835E+03  0.25828208352E+03  0.12499860188E+03 0.  0.
          2    1    1    2  501    0  0.85032166973E+02  0.40387787640E+01 -0.31706209315E+03  0.32829126103E+03  0.00000000000E+00 0. -1.
          1    1    1    2  502    0  0.35843839305E+02  0.57353229535E+02  0.14466709898E+04  0.14482510578E+04  0.00000000000E+00 0. -1.
         22    1    3    3    0    0 -0.12001634225E+03 -0.93586866694E+02  0.14998333793E+03  0.21367598293E+03  0.00000000000E+00 0.  1.
         22    1    3    3    0    0 -0.85966402604E+00  0.32194858395E+02  0.30861890414E+02  0.44606100583E+02  0.00000000000E+00 0.  1.
</event>
<event>
 7    1  0.6273950E-006  0.1254216E+03  0.7818608E-02  0.1239961E+00
          2   -1    0    0  502    0  0.00000000000E+00  0.00000000000E+00  0.73039488746E+03  0.73039488746E+03  0.00000000000E+00 0. -1.
          1   -1    0    0  501    0 -0.00000000000E+00 -0.00000000000E+00 -0.10249518751E+04  0.10249518751E+04  0.00000000000E+00 0. -1.
         25    2    1    2    0    0  0.16021308149E+02 -0.77691148431E+00  0.70333011712E+02  0.14432146727E+03  0.12499866988E+03 0.  0.
          2    1    1    2  501    0  0.11786906854E+03 -0.42865489786E+02 -0.97593583683E+03  0.98396205473E+03  0.00000000000E+00 0. -1.
          1    1    1    2  502    0 -0.13389037669E+03  0.43642401270E+02  0.61104583749E+03  0.62706324056E+03  0.00000000000E+00 0. -1.
         22    1    3    3    0    0  0.39975085106E+02 -0.52745985533E+02  0.23021883078E+02  0.70072487608E+02  0.00000000000E+00 0.  1.
         22    1    3    3    0    0 -0.23953776957E+02  0.51969074049E+02  0.47311128634E+02  0.74248979660E+02  0.00000000000E+00 0.  1.
</event>
<event>
 7    1  0.6273950E-006  0.6399027E+02  0.7818608E-02  0.1514190E+00
          2   -1    0    0  502    0  0.00000000000E+00  0.00000000000E+00  0.53167707962E+03  0.53167707962E+03  0.00000000000E+00 0. -1.
          1   -1    0    0  501    0 -0.00000000000E+00 -0.00000000000E+00 -0.32328942933E+03  0.32328942933E+03  0.00000000000E+00 0. -1.
         25    2    1    2    0    0  0.65630504297E+02  0.23635875744E+02  0.18230346813E+03  0.23178807404E+03  0.12500055622E+03 0.  0.
          2    1    1    2  501    0 -0.18981607754E+01 -0.23937330125E+02 -0.29492637074E+03  0.29590228614E+03  0.00000000000E+00 0. -1.
          1    1    1    2  502    0 -0.63732343522E+02  0.30145438104E+00  0.32101055289E+03  0.32727614877E+03  0.00000000000E+00 0. -1.
         22    1    3    3    0    0  0.68112316328E+01 -0.47704136094E+02  0.83951396452E+02  0.96798318390E+02  0.00000000000E+00 0. -1.
         22    1    3    3    0    0  0.58819272665E+02  0.71340011837E+02  0.98352071679E+02  0.13498975565E+03  0.00000000000E+00 0. -1.
</event>
<event>
 7    1  0.6273950E-006  0.5949481E+02  0.7818608E-02  0.1440311E+00
          2   -1    0    0  502    0  0.00000000000E+00  0.00000000000E+00  0.16923452342E+03  0.16923452342E+03  0.00000000000E+00 0. -1.
          1   -1    0    0  501    0 -0.00000000000E+00 -0.00000000000E+00 -0.75708842734E+03  0.75708842734E+03  0.00000000000E+00 0. -1.
         25    2    1    2    0    0 -0.51849658952E+02 -0.49602179861E+02 -0.25983319872E+03  0.29713000390E+03  0.12499673868E+03 0.  0.
          2    1    1    2  501    0  0.42637945933E+02 -0.92211679575E+01 -0.47167531380E+03  0.47368832160E+03  0.00000000000E+00 0. -1.
          1    1    1    2  502    0  0.92117130198E+01  0.58823347818E+02  0.14365460860E+03  0.15550462526E+03  0.00000000000E+00 0. -1.
         22    1    3    3    0    0 -0.26025557718E+02  0.17778069265E+02 -0.45505967388E+01  0.31844894912E+02  0.00000000000E+00 0. -1.
         22    1    3    3    0    0 -0.25824101235E+02 -0.67380249126E+02 -0.25528260198E+03  0.26528510899E+03  0.00000000000E+00 0. -1.
</event>
<event>
 7    1  0.6273950E-006  0.1221623E+03  0.7818608E-02  0.1287352E+00
          2   -1    0    0  502    0  0.00000000000E+00  0.00000000000E+00  0.14112762809E+04  0.14112762809E+04  0.00000000000E+00 0. -1.
          1   -1    0    0  501    0 -0.00000000000E+00 -0.00000000000E+00 -0.15472778445E+03  0.15472778445E+03  0.00000000000E+00 0. -1.
         25    2    1    2    0    0  0.75732386806E+02 -0.54566318669E+02  0.15678543215E+03  0.22117887548E+03  0.12500218269E+03 0.  0.
          2    1    1    2  501    0 -0.13034734025E+03  0.89315558046E+00 -0.86276325334E+02  0.15631644555E+03  0.00000000000E+00 0. -1.
          1    1    1    2  502    0  0.54614953446E+02  0.53673163088E+02  0.11860393896E+04  0.11885087443E+04  0.00000000000E+00 0. -1.
         22    1    3    3    0    0  0.52822929332E+02 -0.11781485813E+02 -0.29818487903E+01  0.54202921447E+02  0.00000000000E+00 0. -1.
         22    1    3    3    0    0  0.22909457475E+02 -0.42784832856E+02  0.15976728094E+03  0.16697595403E+03  0.00000000000E+00 0. -1.
</event>
<event>
 7    1  0.6273950E-006  0.4230331E+02  0.7818608E-02  0.1529072E+00
          2   -1    0    0  502    0  0.00000000000E+00  0.00000000000E+00  0.32744573236E+03  0.32744573236E+03  0.00000000000E+00 0. -1.
          1   -1    0    0  501    0 -0.00000000000E+00 -0.00000000000E+00 -0.10644099653E+04  0.10644099653E+04  0.00000000000E+00 0. -1.
         25    2    1    2    0    0  0.19909570720E+00 -0.21688810764E+02  0.14687935188E+03  0.19408380639E+03  0.12499814295E+03 0.  0.
          2    1    1    2  501    0 -0.32656005686E+02  0.27004310265E+02 -0.10386481004E+04  0.10395121567E+04  0.00000000000E+00 0. -1.
          1    1    1    2  502    0  0.32456909979E+02 -0.53154995014E+01  0.15480451558E+03  0.15825973457E+03  0.00000000000E+00 0. -1.
         22    1    3    3    0    0  0.85081188514E+01  0.21914682610E+02 -0.13885963469E+02  0.27303138680E+02  0.00000000000E+00 0. -1.
         22    1    3    3    0    0 -0.83090231442E+01 -0.43603493374E+02  0.16076531535E+03  0.16678066771E+03  0.00000000000E+00 0. -1.
</event>
<event>
 7    1  0.6273950E-006  0.1902263E+03  0.7818608E-02  0.1232270E+00
          2   -1    0    0  502    0  0.00000000000E+00  0.00000000000E+00  0.12710425485E+04  0.12710425485E+04  0.00000000000E+00 0. -1.
          1   -1    0    0  501    0 -0.00000000000E+00 -0.00000000000E+00 -0.25219332850E+04  0.25219332850E+04  0.00000000000E+00 0. -1.
         25    2    1    2    0    0  0.82829576775E+02 -0.24298179515E+03 -0.66899363776E+03  0.72737778334E+03  0.12500024307E+03 0.  0.
          2    1    1    2  501    0  0.18222072611E+02  0.82545753949E+02 -0.18155209603E+04  0.18174878824E+04  0.00000000000E+00 0. -1.
          1    1    1    2  502    0 -0.10105164939E+03  0.16043604120E+03  0.12336238616E+04  0.12481101678E+04  0.00000000000E+00 0. -1.
         22    1    3    3    0    0  0.25317398779E+02 -0.22188246471E+03 -0.54806522431E+03  0.59181778355E+03  0.00000000000E+00 0.  1.
         22    1    3    3    0    0  0.57512177995E+02 -0.21099330431E+02 -0.12092841345E+03  0.13555999979E+03  0.00000000000E+00 0.  1.
</event>
<event>
 7    1  0.6273950E-006  0.4858743E+02  0.7818608E-02  0.1512017E+00
          2   -1    0    0  502    0  0.00000000000E+00  0.00000000000E+00  0.13398144015E+04  0.13398144015E+04  0.00000000000E+00 0. -1.
          1   -1    0    0  501    0 -0.00000000000E+00 -0.00000000000E+00 -0.64657974489E+02  0.64657974489E+02  0.00000000000E+00 0. -1.
         25    2    1    2    0    0  0.48557918851E+02  0.43540317404E+02  0.90194964155E+03  0.91290277410E+03  0.12499875339E+03 0.  0.
          2    1    1    2  501    0 -0.16531102864E+02 -0.45582806777E+02 -0.48536804226E+02  0.68606785379E+02  0.00000000000E+00 0. -1.
          1    1    1    2  502    0 -0.32026815987E+02  0.20424893728E+01  0.42174358969E+03  0.42296281651E+03  0.00000000000E+00 0. -1.
         22    1    3    3    0    0  0.44849152438E+01 -0.26571401510E+02  0.48820971003E+02  0.55764155625E+02  0.00000000000E+00 0.  1.
         22    1    3    3    0    0  0.44073003607E+02  0.70111718915E+02  0.85312867054E+03  0.85713861847E+03  0.00000000000E+00 0.  1.
</event>
<event>
 7    1  0.6273950E-006  0.3657348E+02  0.7818608E-02  0.1569566E+00
          2   -1    0    0  502    0  0.00000000000E+00  0.00000000000E+00  0.30986057901E+03  0.30986057901E+03  0.00000000000E+00 0. -1.
          1   -1    0    0  501    0 -0.00000000000E+00 -0.00000000000E+00 -0.50169859084E+03  0.50169859084E+03  0.00000000000E+00 0. -1.
         25    2    1    2    0    0  0.34959188822E+01  0.51800666277E+02  0.34620007358E+01  0.13535334771E+03  0.12495204204E+03 0.  0.
          2    1    1    2  501    0  0.18488586486E+02 -0.22757793441E+02 -0.43387576307E+03  0.43486540765E+03  0.00000000000E+00 0. -1.
          1    1    1    2  502    0 -0.21984505368E+02 -0.29042872835E+02  0.23857575051E+03  0.24134041450E+03  0.00000000000E+00 0. -1.
         22    1    3    3    0    0 -0.16890352791E+02 -0.53348552209E+01  0.53726762690E+02  0.56571280053E+02  0.00000000000E+00 0.  1.
         22    1    3    3    0    0  0.20386271674E+02  0.57135521498E+02 -0.50264761954E+02  0.78782067654E+02  0.00000000000E+00 0.  1.
</event>
<event>
 7    1  0.6378481E-006  0.1311342E+03  0.7818608E-02  0.1286947E+00
          2   -1    0    0  502    0  0.00000000000E+00  0.00000000000E+00  0.19881303798E+04  0.19881303798E+04  0.00000000000E+00 0. -1.
          1   -1    0    0  501    0 -0.00000000000E+00 -0.00000000000E+00 -0.91885910171E+03  0.91885910171E+03  0.00000000000E+00 0. -1.
         25    2    1    2    0    0 -0.89916955060E+02  0.29050840751E+01 -0.10496398788E+03  0.18637460960E+03  0.12499823211E+03 0.  0.
          2    1    1    2  501    0  0.12148823307E+03 -0.67176659231E+02 -0.76629275067E+03  0.77876612282E+03  0.00000000000E+00 0. -1.
          1    1    1    2  502    0 -0.31571278008E+02  0.64271575156E+02  0.19405280166E+04  0.19418487491E+04  0.00000000000E+00 0. -1.
         22    1    3    3    0    0 -0.49280576548E+02  0.62263428724E+02 -0.37742738231E+02  0.87919418052E+02  0.00000000000E+00 0. -1.
         22    1    3    3    0    0 -0.40636378512E+02 -0.59358344649E+02 -0.67221249652E+02  0.98455191549E+02  0.00000000000E+00 0. -1.
</event>
<event>
 7    1  0.6273950E-006  0.3899663E+02  0.7818608E-02  0.1569499E+00
          2   -1    0    0  502    0  0.00000000000E+00  0.00000000000E+00  0.75191869524E+03  0.75191869524E+03  0.00000000000E+00 0. -1.
          1   -1    0    0  501    0 -0.00000000000E+00 -0.00000000000E+00 -0.41127984264E+03  0.41127984264E+03  0.00000000000E+00 0. -1.
         25    2    1    2    0    0 -0.12520244636E+02  0.29752360117E+01  0.23554897419E+03  0.26697242618E+03  0.12500139417E+03 0.  0.
          2    1    1    2  501    0 -0.27193264913E+02  0.41687258362E+01 -0.39427498960E+03  0.39523362630E+03  0.00000000000E+00 0. -1.
          1    1    1    2  502    0  0.39713509549E+02 -0.71439618479E+01  0.49936486801E+03  0.50099248540E+03  0.00000000000E+00 0. -1.
         22    1    3    3    0    0  0.49078342125E+02 -0.82325814410E+01  0.47578240263E+02  0.68848732809E+02  0.00000000000E+00 0. -1.
         22    1    3    3    0    0 -0.61598586760E+02  0.11207817453E+02  0.18797073393E+03  0.19812369337E+03  0.00000000000E+00 0. -1.
</event>
<event>
 7    1  0.6273950E-006  0.1388399E+03  0.7818608E-02  0.1220101E+00
          2   -1    0    0  502    0  0.00000000000E+00  0.00000000000E+00  0.16330515989E+04  0.16330515989E+04  0.00000000000E+00 0. -1.
          1   -1    0    0  501    0 -0.00000000000E+00 -0.00000000000E+00 -0.17397369981E+03  0.17397369981E+03  0.00000000000E+00 0. -1.
         25    2    1    2    0    0 -0.96659739588E+02 -0.13631443485E+02  0.58505086473E+03  0.60616300233E+03  0.12498059671E+03 0.  0.
          2    1    1    2  501    0  0.83551029337E+02 -0.11714357539E+03 -0.12659237684E+03  0.19164817148E+03  0.00000000000E+00 0. -1.
          1    1    1    2  502    0  0.13108710252E+02  0.13077501887E+03  0.10006194112E+04  0.10092141249E+04  0.00000000000E+00 0. -1.
         22    1    3    3    0    0 -0.75896131503E+02  0.33134664868E+02  0.18296024974E+03  0.20082973330E+03  0.00000000000E+00 0.  1.
         22    1    3    3    0    0 -0.20763608085E+02 -0.46766108353E+02  0.40209061500E+03  0.40533326903E+03  0.00000000000E+00 0.  1.
</event>
<event>
 7    1  0.6273950E-006  0.4391800E+02  0.7818608E-02  0.1543291E+00
          2   -1    0    0  502    0  0.00000000000E+00  0.00000000000E+00  0.89251611720E+03  0.89251611720E+03  0.00000000000E+00 0. -1.
          1   -1    0    0  501    0 -0.00000000000E+00 -0.00000000000E+00 -0.93252843822E+03  0.93252843822E+03  0.00000000000E+00 0. -1.
         25    2    1    2    0    0 -0.28453102297E+02  0.37183306251E+02 -0.72140060956E+02  0.15172849775E+03  0.12500068537E+03 0.  0.
          2    1    1    2  501    0  0.42373931619E+02 -0.11895935621E+02 -0.81975938479E+03  0.82094001749E+03  0.00000000000E+00 0. -1.
          1    1    1    2  502    0 -0.13920829322E+02 -0.25287370630E+02  0.85188712472E+03  0.85237604018E+03  0.00000000000E+00 0. -1.
         22    1    3    3    0    0 -0.42041588685E+01 -0.29917641768E+02  0.19221824690E+02  0.35808082679E+02  0.00000000000E+00 0.  1.
         22    1    3    3    0    0 -0.24248943429E+02  0.67100948018E+02 -0.91361885646E+02  0.11592041507E+03  0.00000000000E+00 0.  1.
</event>
<event>
 7    1  0.6273950E-006  0.6144403E+02  0.7818608E-02  0.1482156E+00
          2   -1    0    0  502    0  0.00000000000E+00  0.00000000000E+00  0.25396206630E+04  0.25396206630E+04  0.00000000000E+00 0. -1.
          1   -1    0    0  501    0 -0.00000000000E+00 -0.00000000000E+00 -0.61525208931E+03  0.61525208931E+03  0.00000000000E+00 0. -1.
         25    2    1    2    0    0  0.19454504107E+02  0.25761006286E+02  0.15748375327E+04  0.15801207710E+04  0.12500515727E+03 0.  0.
          2    1    1    2  501    0 -0.23943209070E+02 -0.56619028656E+02 -0.61081460292E+03  0.61390021242E+03  0.00000000000E+00 0. -1.
          1    1    1    2  502    0  0.44887049628E+01  0.30858022371E+02  0.96034564385E+03  0.96085176884E+03  0.00000000000E+00 0. -1.
         22    1    3    3    0    0  0.23966279198E+02  0.30883003367E+01  0.15249060290E+04  0.15250974780E+04  0.00000000000E+00 0.  1.
         22    1    3    3    0    0 -0.45117750909E+01  0.22672705949E+02  0.49931503721E+02  0.55023293007E+02  0.00000000000E+00 0.  1.
</event>
<event>
 7    1  0.6273950E-006  0.1220725E+03  0.7818608E-02  0.1406971E+00
          2   -1    0    0  502    0  0.00000000000E+00  0.00000000000E+00  0.17899146738E+04  0.17899146738E+04  0.00000000000E+00 0. -1.
          1   -1    0    0  501    0 -0.00000000000E+00 -0.00000000000E+00 -0.15442606061E+03  0.15442606061E+03  0.00000000000E+00 0. -1.
         25    2    1    2    0    0  0.72332720490E+00  0.14646739349E+03  0.99580429444E+03  0.10142505269E+04  0.12499887200E+03 0.  0.
          2    1    1    2  501    0 -0.10884298388E+02 -0.12097910978E+03 -0.11950857519E+03  0.17040162118E+03  0.00000000000E+00 0. -1.
          1    1    1    2  502    0  0.10160971183E+02 -0.25488283710E+02  0.75919289395E+03  0.75968858631E+03  0.00000000000E+00 0. -1.
         22    1    3    3    0    0 -0.27528264145E+02  0.24437530589E+01  0.50027863927E+02  0.57153866229E+02  0.00000000000E+00 0. -1.
         22    1    3    3    0    0  0.28251591350E+02  0.14402364043E+03  0.94577643051E+03  0.95709666070E+03  0.00000000000E+00 0. -1.
</event>
<event>
 7    1  0.6273950E-006  0.1944340E+03  0.7818608E-02  0.1272618E+00
          2   -1    0    0  502    0  0.00000000000E+00  0.00000000000E+00  0.39868251529E+03  0.39868251529E+03  0.00000000000E+00 0. -1.
          1   -1    0    0  501    0 -0.00000000000E+00 -0.00000000000E+00 -0.19943311542E+04  0.19943311542E+04  0.00000000000E+00 0. -1.
         25    2    1    2    0    0  0.93958281405E+02  0.10632080295E+03 -0.50573876161E+03  0.53993399791E+03  0.12499902130E+03 0.  0.
          2    1    1    2  501    0  0.41019119622E+02  0.37166226667E+02 -0.14455045652E+04  0.14465639787E+04  0.00000000000E+00 0. -1.
          1    1    1    2  502    0 -0.13497740103E+03 -0.14348702961E+03  0.35559468790E+03  0.40651569283E+03  0.00000000000E+00 0. -1.
         22    1    3    3    0    0  0.10698112231E+03  0.74678971837E+02 -0.47916652617E+03  0.49661098373E+03  0.00000000000E+00 0.  1.
         22    1    3    3    0    0 -0.13022840908E+02  0.31641831109E+02 -0.26572235444E+02  0.43323014182E+02  0.00000000000E+00 0.  1.
</event>
<event>
 7    1  0.8491292E-006  0.1016467E+03  0.7818608E-02  0.1343756E+00
          2   -1    0    0  502    0  0.00000000000E+00  0.00000000000E+00  0.14851343710E+04  0.14851343710E+04  0.00000000000E+00 0. -1.
          1   -1    0    0  501    0 -0.00000000000E+00 -0.00000000000E+00 -0.15928173573E+04  0.15928173573E+04  0.00000000000E+00 0. -1.
         25    2    1    2    0    0 -0.37404534419E+02 -0.69150534986E+02 -0.87461407573E+03  0.88699267134E+03  0.12500128748E+03 0.  0.
          2    1    1    2  501    0  0.21428554151E+02  0.12219033496E+03 -0.70608587027E+03  0.71690091162E+03  0.00000000000E+00 0. -1.
          1    1    1    2  502    0  0.15975980268E+02 -0.53039799972E+02  0.14730169596E+04  0.14740581453E+04  0.00000000000E+00 0. -1.
         22    1    3    3    0    0  0.28195709535E+02 -0.46824482064E+02 -0.64078160704E+03  0.64310854299E+03  0.00000000000E+00 0. -1.
         22    1    3    3    0    0 -0.65600243954E+02 -0.22326052922E+02 -0.23383246869E+03  0.24388412835E+03  0.00000000000E+00 0. -1.
</event>
<event>
 7    1  0.6273950E-006  0.7666179E+02  0.7818608E-02  0.1474454E+00
          2   -1    0    0  502    0  0.00000000000E+00  0.00000000000E+00  0.25942936313E+03  0.25942936313E+03  0.00000000000E+00 0. -1.
          1   -1    0    0  501    0 -0.00000000000E+00 -0.00000000000E+00 -0.17426964376E+04  0.17426964376E+04  0.00000000000E+00 0. -1.
         25    2    1    2    0    0 -0.35907027812E+02 -0.80886646154E+02 -0.99493447234E+03  0.10066533839E+04  0.12499786725E+03 0.  0.
          2    1    1    2  501    0 -0.13740035159E+02  0.22535181142E+02 -0.73587342880E+03  0.73634660736E+03  0.00000000000E+00 0. -1.
          1    1    1    2  502    0  0.49647062971E+02  0.58351465012E+02  0.24754082662E+03  0.25912580955E+03  0.00000000000E+00 0. -1.
         22    1    3    3    0    0 -0.55008732702E+02 -0.22117975611E+02 -0.18286744925E+03  0.19223857446E+03  0.00000000000E+00 0. -1.
         22    1    3    3    0    0  0.19101704891E+02 -0.58768670543E+02 -0.81206702309E+03  0.81441480939E+03  0.00000000000E+00 0. -1.
</event>
<event>
 7    1  0.6273950E-006  0.1287007E+03  0.7818608E-02  0.1264250E+00
          2   -1    0    0  502    0  0.00000000000E+00  0.00000000000E+00  0.54360234400E+02  0.54360234400E+02  0.00000000000E+00 0. -1.
          1   -1    0    0  501    0 -0.00000000000E+00 -0.00000000000E+00 -0.89978524418E+03  0.89978524418E+03  0.00000000000E+00 0. -1.
         25    2    1    2    0    0  0.94572224984E+02 -0.26820004302E+02 -0.56474242488E+03  0.58669990995E+03  0.12497823613E+03 0.  0.
          2    1    1    2  501    0  0.37274772649E+02  0.82675274107E+02 -0.13928602921E+03  0.16620832578E+03  0.00000000000E+00 0. -1.
          1    1    1    2  502    0 -0.13184699763E+03 -0.55855269805E+02 -0.14139655568E+03  0.20123724285E+03  0.00000000000E+00 0. -1.
         22    1    3    3    0    0  0.57764127893E+02 -0.72082417330E+01 -0.73828672658E+02  0.94017690498E+02  0.00000000000E+00 0. -1.
         22    1    3    3    0    0  0.36808097091E+02 -0.19611762569E+02 -0.49091375223E+03  0.49268221946E+03  0.00000000000E+00 0. -1.
</event>
<event>
 7    1  0.6273950E-006  0.1259300E+03  0.7818608E-02  0.1363137E+00
          2   -1    0    0  502    0  0.00000000000E+00  0.00000000000E+00  0.12475094118E+04  0.12475094118E+04  0.00000000000E+00 0. -1.
          1   -1    0    0  501    0 -0.00000000000E+00 -0.00000000000E+00 -0.11822328873E+04  0.11822328873E+04  0.00000000000E+00 0. -1.
         25    2    1    2    0    0 -0.39689903540E+02 -0.10815735022E+03  0.47001108270E+03  0.49980856954E+03  0.12499954988E+03 0.  0.
          2    1    1    2  501    0 -0.37864498001E+02  0.22324202242E+01 -0.11613722241E+04  0.11619914573E+04  0.00000000000E+00 0. -1.
          1    1    1    2  502    0  0.77554401540E+02  0.10592492999E+03  0.75663766594E+03  0.76794227225E+03  0.00000000000E+00 0. -1.
         22    1    3    3    0    0 -0.50101610906E+02 -0.51658363700E+02  0.88828076189E+02  0.11432053654E+03  0.00000000000E+00 0. -1.
         22    1    3    3    0    0  0.10411707367E+02 -0.56498986516E+02  0.38118300651E+03  0.38548803299E+03  0.00000000000E+00 0. -1.
</event>
<event>
 7    1  0.6273950E-006  0.1398832E+03  0.7818608E-02  0.1295204E+00
          2   -1    0    0  502    0  0.00000000000E+00  0.00000000000E+00  0.17346763146E+04  0.17346763146E+04  0.00000000000E+00 0. -1.
          1   -1    0    0  501    0 -0.00000000000E+00 -0.00000000000E+00 -0.39081165254E+03  0.39081165254E+03  0.00000000000E+00 0. -1.
         25    2    1    2    0    0  0.19661001537E+03  0.33397624747E+01 -0.20044175171E+03  0.30735829967E+03  0.12500230555E+03 0.  0.
          2    1    1    2  501    0 -0.59158524807E+02  0.19023051781E+02 -0.12681178242E+03  0.14121910535E+03  0.00000000000E+00 0. -1.
          1    1    1    2  502    0 -0.13745149056E+03 -0.22362814256E+02  0.16711181962E+04  0.16769105621E+04  0.00000000000E+00 0. -1.
         22    1    3    3    0    0  0.56424074087E+02  0.52772495151E+02 -0.10629817493E+03  0.13140743653E+03  0.00000000000E+00 0.  1.
         22    1    3    3    0    0  0.14018594128E+03 -0.49432732676E+02 -0.94143576780E+02  0.17595086314E+03  0.00000000000E+00 0.  1.
</event>
<event>
 7    1  0.6273950E-006  0.1306794E+03  0.7818608E-02  0.1351137E+00
          2   -1    0    0  502    0  0.00000000000E+00  0.00000000000E+00  0.21072499798E+04  0.21072499798E+04  0.00000000000E+00 0. -1.
          1   -1    0    0  501    0 -0.00000000000E+00 -0.00000000000E+00 -0.54394012145E+02  0.54394012145E+02  0.00000000000E+00 0. -1.
         25    2    1    2    0    0  0.91480027056E+02  0.13978533622E+03  0.85217613546E+03  0.87734760048E+03  0.12500444252E+03 0.  0.
          2    1    1    2  501    0 -0.69098346994E+02 -0.10609453264E+03  0.55232149334E+02  0.13813479552E+03  0.00000000000E+00 0. -1.
          1    1    1    2  502    0 -0.22381680062E+02 -0.33690803579E+02  0.11454476829E+04  0.11461615960E+04  0.00000000000E+00 0. -1.
         22    1    3    3    0    0  0.11675273945E+03  0.80310463450E+02  0.64238159839E+03  0.65782603374E+03  0.00000000000E+00 0.  1.
         22    1    3    3    0    0 -0.25272712392E+02  0.59474872767E+02  0.20979453707E+03  0.21952156675E+03  0.00000000000E+00 0.  1.
</event>
<event>
 7    1  0.6273950E-006  0.6166848E+02  0.7818608E-02  0.1467129E+00
          2   -1    0    0  502    0  0.00000000000E+00  0.00000000000E+00  0.13908720255E+04  0.13908720255E+04  0.00000000000E+00 0. -1.
          1   -1    0    0  501    0 -0.00000000000E+00 -0.00000000000E+00 -0.78099292061E+03  0.78099292061E+03  0.00000000000E+00 0. -1.
         25    2    1    2    0    0 -0.27705256563E+02  0.27183303460E+02  0.20190265665E+03  0.24061559441E+03  0.12499867312E+03 0.  0.
          2    1    1    2  501    0  0.16007459186E+02 -0.59720470724E+02 -0.76012543174E+03  0.76263585370E+03  0.00000000000E+00 0. -1.
          1    1    1    2  502    0  0.11697797377E+02  0.32537167264E+02  0.11681018800E+04  0.11686134980E+04  0.00000000000E+00 0. -1.
         22    1    3    3    0    0 -0.55799996710E+01  0.42467555123E+01  0.20804268140E+03  0.20816082391E+03  0.00000000000E+00 0. -1.
         22    1    3    3    0    0 -0.22125256892E+02  0.22936547948E+02 -0.61400247418E+01  0.32454770499E+02  0.00000000000E+00 0. -1.
</event>
<event>
 7    1  0.6273950E-006  0.1149802E+03  0.7818608E-02  0.1270696E+00
          2   -1    0    0  502    0  0.00000000000E+00  0.00000000000E+00  0.98929306538E+03  0.98929306538E+03  0.00000000000E+00 0. -1.
          1   -1    0    0  501    0 -0.00000000000E+00 -0.00000000000E+00 -0.74605758794E+03  0.74605758794E+03  0.00000000000E+00 0. -1.
         25    2    1    2    0    0 -0.14770424866E+03 -0.78943602673E+02  0.10459428250E+03  0.23370744800E+03  0.12502227738E+03 0.  0.
          2    1    1    2  501    0  0.54762825118E+02  0.10025632195E+03 -0.67390608975E+03  0.68352009108E+03  0.00000000000E+00 0. -1.
          1    1    1    2  502    0  0.92941423541E+02 -0.21312719275E+02  0.81254728468E+03  0.81812311424E+03  0.00000000000E+00 0. -1.
         22    1    3    3    0    0 -0.84229710187E+02 -0.15085693414E+02 -0.11986339155E+02  0.86405408108E+02  0.00000000000E+00 0. -1.
         22    1    3    3    0    0 -0.63474538472E+02 -0.63857909260E+02  0.11658062166E+03  0.14730203989E+03  0.00000000000E+00 0. -1.
</event>
<event>
 7    1  0.6273950E-006  0.5765742E+02  0.7818608E-02  0.1426399E+00
          2   -1    0    0  502    0  0.00000000000E+00  0.00000000000E+00  0.36535580131E+03  0.36535580131E+03  0.00000000000E+00 0. -1.
          1   -1    0    0  501    0 -0.00000000000E+00 -0.00000000000E+00 -0.60884464191E+03  0.60884464191E+03  0.00000000000E+00 0. -1.
         25    2    1    2    0    0  0.37593533794E+02 -0.99962699971E+02 -0.19356137467E+03  0.25396125235E+03  0.12499798703E+03 0.  0.
          2    1    1    2  501    0 -0.21404519809E+02  0.45181467337E+02 -0.38100433228E+03  0.38427050326E+03  0.00000000000E+00 0. -1.
          1    1    1    2  502    0 -0.16189013985E+02  0.54781232634E+02  0.33107686635E+03  0.33596868761E+03  0.00000000000E+00 0. -1.
         22    1    3    3    0    0 -0.35753917775E+02 -0.49271066414E+02 -0.30439494674E+02  0.68062790553E+02  0.00000000000E+00 0.  1.
         22    1    3    3    0    0  0.73347451569E+02 -0.50691633557E+02 -0.16312188000E+03  0.18589846180E+03  0.00000000000E+00 0.  1.
</event>
<event>
 7    1  0.6273950E-006  0.1278289E+03  0.7818608E-02  0.1438885E+00
          2   -1    0    0  502    0  0.00000000000E+00  0.00000000000E+00  0.78128797816E+03  0.78128797816E+03  0.00000000000E+00 0. -1.
          1   -1    0    0  501    0 -0.00000000000E+00 -0.00000000000E+00 -0.59492694362E+03  0.59492694362E+03  0.00000000000E+00 0. -1.
         25    2    1    2    0    0 -0.11721249424E+02  0.14649571167E+03 -0.15081602748E+03  0.24488366037E+03  0.12499660693E+03 0.  0.
          2    1    1    2  501    0 -0.38624514976E+01 -0.20154465220E+02 -0.39128871221E+03  0.39182646325E+03  0.00000000000E+00 0. -1.
          1    1    1    2  502    0  0.15583700922E+02 -0.12634124645E+03  0.72846577423E+03  0.73950479817E+03  0.00000000000E+00 0. -1.
         22    1    3    3    0    0  0.37914243649E+02  0.39451281772E+02 -0.10482249946E+03  0.11824402690E+03  0.00000000000E+00 0.  1.
         22    1    3    3    0    0 -0.49635493073E+02  0.10704442990E+03 -0.45993528026E+02  0.12663963347E+03  0.00000000000E+00 0.  1.
</event>
<event>
 7    1  0.6273950E-006  0.1120998E+03  0.7818608E-02  0.1404508E+00
          2   -1    0    0  502    0  0.00000000000E+00  0.00000000000E+00  0.77675886263E+03  0.77675886263E+03  0.00000000000E+00 0. -1.
          1   -1    0    0  501    0 -0.00000000000E+00 -0.00000000000E+00 -0.15552076254E+04  0.15552076254E+04  0.00000000000E+00 0. -1.
         25    2    1    2    0    0 -0.12572549701E+03  0.51158234302E+02 -0.15827900657E+03  0.24310490787E+03  0.12499474698E+03 0.  0.
          2    1    1    2  501    0  0.10766067757E+03 -0.26628943137E+02 -0.13519280517E+04  0.13564694538E+04  0.00000000000E+00 0. -1.
          1    1    1    2  502    0  0.18064819439E+02 -0.24529291165E+02  0.73175829546E+03  0.73239212639E+03  0.00000000000E+00 0. -1.
         22    1    3    3    0    0 -0.11424852544E+03 -0.16325276447E+02 -0.10913150063E+03  0.15883615661E+03  0.00000000000E+00 0.  1.
         22    1    3    3    0    0 -0.11476971577E+02  0.67483510749E+02 -0.49147505936E+02  0.84268751262E+02  0.00000000000E+00 0.  1.
</event>
<event>
 7    1  0.6273950E-006  0.1018328E+03  0.7818608E-02  0.1472638E+00
          2   -1    0    0  502    0  0.00000000000E+00  0.00000000000E+00  0.42018735594E+03  0.42018735594E+03  0.00000000000E+00 0. -1.
          1   -1    0    0  501    0 -0.00000000000E+00 -0.00000000000E+00 -0.98572390612E+03  0.98572390612E+03  0.00000000000E+00 0. -1.
         25    2    1    2    0    0  0.70085421891E+02  0.98370705603E+02 -0.58673773921E+03  0.61194340073E+03  0.12499915603E+03 0.  0.
          2    1    1    2  501    0 -0.65734116469E+01 -0.19024957656E+02 -0.37977685245E+03  0.38030989523E+03  0.00000000000E+00 0. -1.
          1    1    1    2  502    0 -0.63512010244E+02 -0.79345747946E+02  0.40097804148E+03  0.41365796609E+03  0.00000000000E+00 0. -1.
         22    1    3    3    0    0  0.34082118071E+02  0.51617231347E+02 -0.76839409413E+02  0.98641898720E+02  0.00000000000E+00 0.  1.
         22    1    3    3    0    0  0.36003303820E+02  0.46753474256E+02 -0.50989832979E+03  0.51330150201E+03  0.00000000000E+00 0.  1.
</event>
<event>
 7    1  0.6273950E-006  0.1744121E+03  0.7818608E-02  0.1294278E+00
          2   -1    0    0  502    0  0.00000000000E+00  0.00000000000E+00  0.91162885943E+03  0.91162885943E+03  0.00000000000E+00 0. -1.
          1   -1    0    0  501    0 -0.00000000000E+00 -0.00000000000E+00 -0.85389272039E+03  0.85389272039E+03  0.00000000000E+00 0. -1.
         25    2    1    2    0    0 -0.17567694741E+03 -0.69903691522E+02  0.18035632240E+03  0.28965910125E+03  0.12500030387E+03 0.  0.
          2    1    1    2  501    0  0.17295689252E+03  0.19707462202E+02 -0.78880458861E+03  0.80778409848E+03  0.00000000000E+00 0. -1.
          1    1    1    2  502    0  0.27200548862E+01  0.50196229320E+02  0.66618440526E+03  0.66807838009E+03  0.00000000000E+00 0. -1.
         22    1    3    3    0    0 -0.14945012036E+03 -0.37924376169E+02  0.19242235739E+03  0.24657647983E+03  0.00000000000E+00 0.  1.
         22    1    3    3    0    0 -0.26226827055E+02 -0.31979315353E+02 -0.12066034994E+02  0.43082621418E+02  0.00000000000E+00 0.  1.
</event>
<event>
 7    1  0.6273950E-006  0.9374335E+02  0.7818608E-02  0.1337916E+00
          2   -1    0    0  502    0  0.00000000000E+00  0.00000000000E+00  0.34961007746E+03  0.34961007746E+03  0.00000000000E+00 0. -1.
          1   -1    0    0  501    0 -0.00000000000E+00 -0.00000000000E+00 -0.15454683281E+04  0.15454683281E+04  0.00000000000E+00 0. -1.
         25    2    1    2    0    0 -0.16937416976E+02  0.28105162653E+02 -0.17141155753E+03  0.21467091969E+03  0.12499962179E+03 0.  0.
          2    1    1    2  501    0 -0.29901860170E+02  0.55652123221E+02 -0.13446498949E+04  0.13461332103E+04  0.00000000000E+00 0. -1.
          1    1    1    2  502    0  0.46839277146E+02 -0.83757285874E+02  0.32020320182E+03  0.33427427552E+03  0.00000000000E+00 0. -1.
         22    1    3    3    0    0 -0.59121351835E+02  0.22644718307E+02 -0.36204131435E+02  0.72930491860E+02  0.00000000000E+00 0. -1.
         22    1    3    3    0    0  0.42183934858E+02  0.54604443454E+01 -0.13520742609E+03  0.14174042783E+03  0.00000000000E+00 0. -1.
</event>
<event>
 7    1  0.6273950E-006  0.2175935E+03  0.7818608E-02  0.1222408E+00
          2   -1    0    0  502    0  0.00000000000E+00  0.00000000000E+00  0.96116677976E+03  0.96116677976E+03  0.00000000000E+00 0. -1.
          1   -1    0    0  501    0 -0.00000000000E+00 -0.00000000000E+00 -0.18247334926E+03  0.18247334926E+03  0.00000000000E+00 0. -1.
         25    2    1    2    0    0  0.14822522198E+03 -0.19851105212E+03  0.14328236906E+03  0.31229961346E+03  0.12499542809E+03 0.  0.
          2    1    1    2  501    0 -0.66419421978E+02  0.19557161703E+03  0.16676645129E+02  0.20721464113E+03  0.00000000000E+00 0. -1.
          1    1    1    2  502    0 -0.81805800006E+02  0.29394350852E+01  0.61873441632E+03  0.62412587443E+03  0.00000000000E+00 0. -1.
         22    1    3    3    0    0  0.57113240809E+02 -0.54587794732E+02 -0.14253895323E+02  0.80280278657E+02  0.00000000000E+00 0. -1.
         22    1    3    3    0    0  0.91111981174E+02 -0.14392325738E+03  0.15753626438E+03  0.23201933481E+03  0.00000000000E+00 0. -1.
</event>
<event>
 7    1  0.6273950E-006  0.6137655E+02  0.7818608E-02  0.1427777E+00
          2   -1    0    0  502    0  0.00000000000E+00  0.00000000000E+00  0.88300883971E+03  0.88300883971E+03  0.00000000000E+00 0. -1.
          1   -1    0    0  501    0 -0.00000000000E+00 -0.00000000000E+00 -0.39654449066E+02  0.39654449066E+02  0.00000000000E+00 0. -1.
         25    2    1    2    0    0  0.27798742120E+02  0.45894846884E+02  0.14052740547E+03  0.19557710361E+03  0.12499337875E+03 0.  0.
          2    1    1    2  501    0  0.33367416813E+02 -0.32350742073E+02  0.40038762590E+02  0.61343765186E+02  0.00000000000E+00 0. -1.
          1    1    1    2  502    0 -0.61166158933E+02 -0.13544104811E+02  0.66278822258E+03  0.66574241998E+03  0.00000000000E+00 0. -1.
         22    1    3    3    0    0  0.98831254159E+01  0.64154651308E+02  0.15367021288E+03  0.16681735455E+03  0.00000000000E+00 0. -1.
         22    1    3    3    0    0  0.17915616704E+02 -0.18259804425E+02 -0.13142807403E+02  0.28759749059E+02  0.00000000000E+00 0. -1.
</event>
<event>
 7    1  0.6273950E-006  0.9916808E+02  0.7818608E-02  0.1382464E+00
          2   -1    0    0  502    0  0.00000000000E+00  0.00000000000E+00  0.18785332338E+04  0.18785332338E+04  0.00000000000E+00 0. -1.
          1   -1    0    0  501    0 -0.00000000000E+00 -0.00000000000E+00 -0.95196250734E+03  0.95196250734E+03  0.00000000000E+00 0. -1.
         25    2    1    2    0    0  0.10741008638E+03  0.66868079549E+02  0.15210197873E+03  0.23402646063E+03  0.12500042250E+03 0.  0.
          2    1    1    2  501    0 -0.13100182926E+02 -0.38926952104E+02 -0.90910113947E+03  0.91002846339E+03  0.00000000000E+00 0. -1.
          1    1    1    2  502    0 -0.94309903457E+02 -0.27941127444E+02  0.16835698872E+04  0.16864408171E+04  0.00000000000E+00 0. -1.
         22    1    3    3    0    0 -0.41531827812E+01  0.17290315501E+02  0.99528186478E+02  0.10110422267E+03  0.00000000000E+00 0. -1.
         22    1    3    3    0    0  0.11156326916E+03  0.49577764047E+02  0.52573792248E+02  0.13292223797E+03  0.00000000000E+00 0. -1.
</event>
<event>
 7    1  0.6273950E-006  0.7754224E+02  0.7818608E-02  0.1389524E+00
          2   -1    0    0  502    0  0.00000000000E+00  0.00000000000E+00  0.38251019201E+03  0.38251019201E+03  0.00000000000E+00 0. -1.
          1   -1    0    0  501    0 -0.00000000000E+00 -0.00000000000E+00 -0.65175052497E+03  0.65175052497E+03  0.00000000000E+00 0. -1.
         25    2    1    2    0    0 -0.83168862774E+02  0.34184172292E+02  0.96223763051E+02  0.18157528717E+03  0.12499981986E+03 0.  0.
          2    1    1    2  501    0  0.70052272511E+01 -0.49116169291E+02 -0.60184616032E+03  0.60388763192E+03  0.00000000000E+00 0. -1.
          1    1    1    2  502    0  0.76163635523E+02  0.14931996999E+02  0.23638206431E+03  0.24879779790E+03  0.00000000000E+00 0. -1.
         22    1    3    3    0    0 -0.95909358743E+02  0.63265113094E+02  0.49546588122E+02  0.12512371487E+03  0.00000000000E+00 0. -1.
         22    1    3    3    0    0  0.12740495968E+02 -0.29080940802E+02  0.46677174929E+02  0.56451572297E+02  0.00000000000E+00 0. -1.
</event>
<event>
 7    1  0.6273950E-006  0.4556227E+02  0.7818608E-02  0.1510484E+00
          2   -1    0    0  502    0  0.00000000000E+00  0.00000000000E+00  0.19235950943E+04  0.19235950943E+04  0.00000000000E+00 0. -1.
          1   -1    0    0  501    0 -0.00000000000E+00 -0.00000000000E+00 -0.42376477057E+03  0.42376477057E+03  0.00000000000E+00 0. -1.
         25    2    1    2    0    0  0.11289923994E+02  0.16416081217E+02  0.20204685869E+03  0.23842190979E+03  0.12500049542E+03 0.  0.
          2    1    1    2  501    0 -0.44950365630E+02 -0.84964330515E+01 -0.40411108821E+03  0.40669213953E+03  0.00000000000E+00 0. -1.
          1    1    1    2  502    0  0.33660441636E+02 -0.79196481659E+01  0.17018945532E+04  0.17022458155E+04  0.00000000000E+00 0. -1.
         22    1    3    3    0    0 -0.52031018698E+02  0.30719312857E+02  0.80841586547E+02  0.10092702911E+03  0.00000000000E+00 0.  1.
         22    1    3    3    0    0  0.63320942692E+02 -0.14303231640E+02  0.12120527214E+03  0.13749488068E+03  0.00000000000E+00 0.  1.
</event>
<event>
 7    1  0.6273950E-006  0.3207073E+03  0.7818608E-02  0.1214040E+00
          2   -1    0    0  502    0  0.00000000000E+00  0.00000000000E+00  0.78359855351E+03  0.78359855351E+03  0.00000000000E+00 0. -1.
          1   -1    0    0  501    0 -0.00000000000E+00 -0.00000000000E+00 -0.39774563750E+03  0.39774563750E+03  0.00000000000E+00 0. -1.
         25    2    1    2    0    0  0.15233030451E+03 -0.31005758371E+03  0.22779707549E+03  0.43226952749E+03  0.12500083961E+03 0.  0.
          2    1    1    2  501    0  0.23576720317E+02  0.55885966814E+02 -0.23860653943E+03  0.24619541768E+03  0.00000000000E+00 0. -1.
          1    1    1    2  502    0 -0.17590702483E+03  0.25417161690E+03  0.39666237995E+03  0.50287924583E+03  0.00000000000E+00 0. -1.
         22    1    3    3    0    0  0.12482059033E+03 -0.18460438577E+03  0.20304234558E+03  0.30147164563E+03  0.00000000000E+00 0.  1.
         22    1    3    3    0    0  0.27509714179E+02 -0.12545319794E+03  0.24754729912E+02  0.13079788186E+03  0.00000000000E+00 0.  1.
</event>
<event>
 7    1  0.6273950E-006  0.7569047E+02  0.7818608E-02  0.1433551E+00
          2   -1    0    0  502    0  0.00000000000E+00  0.00000000000E+00  0.20097165659E+04  0.20097165659E+04  0.00000000000E+00 0. -1.
          1   -1    0    0  501    0 -0.00000000000E+00 -0.00000000000E+00 -0.21793968111E+03  0.21793968111E+03  0.00000000000E+00 0. -1.
         25    2    1    2    0    0  0.95280166355E+02 -0.92021895514E+01 -0.28785318554E+02  0.16004787203E+03  0.12499494543E+03 0.  0.
          2    1    1    2  501    0 -0.66343161807E+02  0.30742416527E+02 -0.11251916625E+03  0.13419043954E+03  0.00000000000E+00 0. -1.
          1    1    1    2  502    0 -0.28937004548E+02 -0.21540226976E+02  0.19330813695E+04  0.19334179354E+04  0.00000000000E+00 0. -1.
         22    1    3    3    0    0 -0.11670532573E+02 -0.67696768436E+00 -0.49426743389E+02  0.50790378792E+02  0.00000000000E+00 0.  1.
         22    1    3    3    0    0  0.10695069893E+03 -0.85252218671E+01  0.20641424834E+02  0.10925749324E+03  0.00000000000E+00 0.  1.
</event>
<event>
 7    1  0.6273950E-006  0.2045168E+03  0.7818608E-02  0.1248785E+00
          2   -1    0    0  502    0  0.00000000000E+00  0.00000000000E+00  0.66133883840E+03  0.66133883840E+03  0.00000000000E+00 0. -1.
          1   -1    0    0  501    0 -0.00000000000E+00 -0.00000000000E+00 -0.23723846453E+04  0.23723846453E+04  0.00000000000E+00 0. -1.
         25    2    1    2    0    0  0.25145320450E+02 -0.25378689979E+03 -0.13913697461E+03  0.31626649249E+03  0.12500127569E+03 0.  0.
          2    1    1    2  501    0  0.15788971258E+02  0.20138416851E+03 -0.21379759667E+04  0.21474976389E+04  0.00000000000E+00 0. -1.
          1    1    1    2  502    0 -0.40934291708E+02  0.52402731281E+02  0.56606713447E+03  0.56995935224E+03  0.00000000000E+00 0. -1.
         22    1    3    3    0    0  0.21000341091E+02 -0.48080693020E+02 -0.90875757336E+02  0.10493412523E+03  0.00000000000E+00 0. -1.
         22    1    3    3    0    0  0.41449793594E+01 -0.20570620677E+03 -0.48261217272E+02  0.21133236726E+03  0.00000000000E+00 0. -1.
</event>
<event>
 7    1  0.6917569E-006  0.1278442E+03  0.7818608E-02  0.1234049E+00
          2   -1    0    0  502    0  0.00000000000E+00  0.00000000000E+00  0.24904507332E+04  0.24904507332E+04  0.00000000000E+00 0. -1.
          1   -1    0    0  501    0 -0.00000000000E+00 -0.00000000000E+00 -0.16422806726E+04  0.16422806726E+04  0.00000000000E+00 0. -1.
         25    2    1    2    0    0 -0.32447241842E+01  0.83874215194E+02 -0.20875354421E+03  0.25738807174E+03  0.12500066018E+03 0.  0.
          2    1    1    2  501    0 -0.12199866611E+03 -0.58218199919E+02 -0.14043052856E+04  0.14107963597E+04  0.00000000000E+00 0. -1.
          1    1    1    2  502    0  0.12524339030E+03 -0.25656015276E+02  0.24612288904E+04  0.24645469744E+04  0.00000000000E+00 0. -1.
         22    1    3    3    0    0  0.41999404263E+02 -0.84904039275E+01 -0.34356487885E+02  0.54921809666E+02  0.00000000000E+00 0.  1.
         22    1    3    3    0    0 -0.45244128447E+02  0.92364619122E+02 -0.17439705633E+03  0.20246626208E+03  0.00000000000E+00 0.  1.
</event>
<event>
 7    1  0.6273950E-006  0.1674231E+03  0.7818608E-02  0.1221972E+00
          2   -1    0    0  502    0  0.00000000000E+00  0.00000000000E+00  0.21189839616E+04  0.21189839616E+04  0.00000000000E+00 0. -1.
          1   -1    0    0  501    0 -0.00000000000E+00 -0.00000000000E+00 -0.12267096229E+03  0.12267096229E+03  0.00000000000E+00 0. -1.
         25    2    1    2    0    0  0.11857375205E+03  0.10239678022E+02  0.20117303157E+03  0.26506626091E+03  0.12499979345E+03 0.  0.
          2    1    1    2  501    0 -0.17832311324E+03  0.78373730109E+02  0.17314882304E+02  0.19555403201E+03  0.00000000000E+00 0. -1.
          1    1    1    2  502    0  0.59749361187E+02 -0.88613408131E+02  0.17778250854E+04  0.17810346309E+04  0.00000000000E+00 0. -1.
         22    1    3    3    0    0  0.91102180074E+02  0.46291500823E+02  0.63945083228E+02  0.12054660481E+03  0.00000000000E+00 0. -1.
         22    1    3    3    0    0  0.27471571977E+02 -0.36051822801E+02  0.13722794834E+03  0.14451965610E+03  0.00000000000E+00 0. -1.
</event>
<event>
 7    1  0.6273950E-006  0.4911794E+02  0.7818608E-02  0.1472892E+00
          2   -1    0    0  502    0  0.00000000000E+00  0.00000000000E+00  0.57059776790E+02  0.57059776790E+02  0.00000000000E+00 0. -1.
          1   -1    0    0  501    0 -0.00000000000E+00 -0.00000000000E+00 -0.14290234711E+04  0.14290234711E+04  0.00000000000E+00 0. -1.
         25    2    1    2    0    0 -0.53126371751E+01  0.18488367334E+02 -0.13110863580E+03  0.18216122019E+03  0.12499276748E+03 0.  0.
          2    1    1    2  501    0 -0.40099921147E+02  0.11276628333E+02 -0.12484067967E+04  0.12491015556E+04  0.00000000000E+00 0. -1.
          1    1    1    2  502    0  0.45412558322E+02 -0.29764995667E+02  0.75517381601E+01  0.54820472176E+02  0.00000000000E+00 0. -1.
         22    1    3    3    0    0  0.24017971251E+02  0.61579874649E+02 -0.10446587689E+03  0.12362064285E+03  0.00000000000E+00 0. -1.
         22    1    3    3    0    0 -0.29330608426E+02 -0.43091507314E+02 -0.26642758909E+02  0.58540577342E+02  0.00000000000E+00 0. -1.
</event>
<event>
 7    1  0.6273950E-006  0.2870396E+02  0.7818608E-02  0.1642620E+00
          2   -1    0    0  502    0  0.00000000000E+00  0.00000000000E+00  0.19393581305E+03  0.19393581305E+03  0.00000000000E+00 0. -1.
          1   -1    0    0  501    0 -0.00000000000E+00 -0.00000000000E+00 -0.39519014812E+03  0.39519014812E+03  0.00000000000E+00 0. -1.
         25    2    1    2    0    0  0.40129163631E+00 -0.20316037497E+02  0.10103411025E+03  0.16200925092E+03  0.12500481404E+03 0.  0.
          2    1    1    2  501    0 -0.24108957575E+02  0.15715738595E+02 -0.36177348295E+03  0.36291635296E+03  0.00000000000E+00 0. -1.
          1    1    1    2  502    0  0.23707665939E+02  0.46002989023E+01  0.59485037637E+02  0.64200357296E+02  0.00000000000E+00 0. -1.
         22    1    3    3    0    0 -0.36687263111E+02 -0.81653759863E+01  0.11466617377E+03  0.12066880312E+03  0.00000000000E+00 0. -1.
         22    1    3    3    0    0  0.37088554747E+02 -0.12150661511E+02 -0.13632063518E+02  0.41340447798E+02  0.00000000000E+00 0. -1.
</event>
<event>
 7    1  0.6273950E-006  0.1332240E+03  0.7818608E-02  0.1262766E+00
          2   -1    0    0  502    0  0.00000000000E+00  0.00000000000E+00  0.10336932249E+04  0.10336932249E+04  0.00000000000E+00 0. -1.
          1   -1    0    0  501    0 -0.00000000000E+00 -0.00000000000E+00 -0.75530233325E+03  0.75530233325E+03  0.00000000000E+00 0. -1.
         25    2    1    2    0    0 -0.87868570608E+02 -0.76449687053E+02  0.24619658579E+03  0.29966972922E+03  0.12499498952E+03 0.  0.
          2    1    1    2  501    0  0.13423499027E+03  0.60983317000E+00 -0.71974234186E+03  0.73215329212E+03  0.00000000000E+00 0. -1.
          1    1    1    2  502    0 -0.46366419661E+02  0.75839853883E+02  0.75193664773E+03  0.75717253681E+03  0.00000000000E+00 0. -1.
         22    1    3    3    0    0 -0.83052183225E+02 -0.10013469898E+03  0.14148403892E+03  0.19220394467E+03  0.00000000000E+00 0.  1.
         22    1    3    3    0    0 -0.48163873839E+01  0.23685011926E+02  0.10471254686E+03  0.10746578455E+03  0.00000000000E+00 0.  1.
</event>
<event>
 7    1  0.6273950E-006  0.3516091E+02  0.7818608E-02  0.1564018E+00
          2   -1    0    0  502    0  0.00000000000E+00  0.00000000000E+00  0.24409218442E+04  0.24409218442E+04  0.00000000000E+00 0. -1.
          1   -1    0    0  501    0 -0.00000000000E+00 -0.00000000000E+00 -0.20114587436E+03  0.20114587436E+03  0.00000000000E+00 0. -1.
         25    2    1    2    0    0  0.43165977923E+02 -0.48881933378E+02  0.80416368872E+03  0.81642918145E+03  0.12499850003E+03 0.  0.
          2    1    1    2  501    0 -0.24162903834E+02  0.20335043177E+02 -0.19355291641E+03  0.19611244569E+03  0.00000000000E+00 0. -1.
          1    1    1    2  502    0 -0.19003074089E+02  0.28546890200E+02  0.16291651975E+04  0.16295260914E+04  0.00000000000E+00 0. -1.
         22    1    3    3    0    0 -0.11100269958E+02  0.34337882576E+02  0.33011585486E+03  0.33208249547E+03  0.00000000000E+00 0. -1.
         22    1    3    3    0    0  0.54266247881E+02 -0.83219815954E+02  0.47404783386E+03  0.48434668598E+03  0.00000000000E+00 0. -1.
</event>
<event>
 7    1  0.6273950E-006  0.1041175E+03  0.7818608E-02  0.1287613E+00
          2   -1    0    0  502    0  0.00000000000E+00  0.00000000000E+00  0.79639136477E+03  0.79639136477E+03  0.00000000000E+00 0. -1.
          1   -1    0    0  501    0 -0.00000000000E+00 -0.00000000000E+00 -0.62474848729E+03  0.62474848729E+03  0.00000000000E+00 0. -1.
         25    2    1    2    0    0  0.16767226094E+03  0.85916750019E+02  0.69327659903E+02  0.23648868598E+03  0.12499959659E+03 0.  0.
          2    1    1    2  501    0 -0.84395460264E+02 -0.30167495323E+02 -0.53350545247E+03  0.54098127445E+03  0.00000000000E+00 0. -1.
          1    1    1    2  502    0 -0.83276800678E+02 -0.55749254696E+02  0.63582067005E+03  0.64366989163E+03  0.00000000000E+00 0. -1.
         22    1    3    3    0    0 -0.46519451562E+01  0.14508391706E+02 -0.23598761230E+02  0.28089776703E+02  0.00000000000E+00 0. -1.
         22    1    3    3    0    0  0.17232420610E+03  0.71408358313E+02  0.92926421134E+02  0.20839890928E+03  0.00000000000E+00 0. -1.
</event>
<event>
 7    1  0.6273950E-006  0.7814566E+02  0.7818608E-02  0.1448364E+00
          2   -1    0    0  502    0  0.00000000000E+00  0.00000000000E+00  0.52182699323E+02  0.52182699323E+02  0.00000000000E+00 0. -1.
          1   -1    0    0  501    0 -0.00000000000E+00 -0.00000000000E+00 -0.75871172366E+03  0.75871172366E+03  0.00000000000E+00 0. -1.
         25    2    1    2    0    0  0.89755143769E+02 -0.57081521401E+01 -0.49848695620E+03  0.52173024661E+03  0.12499854356E+03 0.  0.
          2    1    1    2  501    0 -0.15200660205E+02  0.27342724423E+02 -0.20919930719E+03  0.21152549439E+03  0.00000000000E+00 0. -1.
          1    1    1    2  502    0 -0.74554483564E+02 -0.21634572283E+02  0.11572390530E+01  0.77638681980E+02  0.00000000000E+00 0. -1.
         22    1    3    3    0    0  0.10333589121E+03  0.35915899864E+02 -0.33074786922E+03  0.34837108272E+03  0.00000000000E+00 0. -1.
         22    1    3    3    0    0 -0.13580747445E+02 -0.41624052004E+02 -0.16773908697E+03  0.17335916389E+03  0.00000000000E+00 0. -1.
</event>
<event>
 7    1  0.6273950E-006  0.1010603E+03  0.7818608E-02  0.1446893E+00
          2   -1    0    0  502    0  0.00000000000E+00  0.00000000000E+00  0.63003597721E+03  0.63003597721E+03  0.00000000000E+00 0. -1.
          1   -1    0    0  501    0 -0.00000000000E+00 -0.00000000000E+00 -0.19756679489E+04  0.19756679489E+04  0.00000000000E+00 0. -1.
         25    2    1    2    0    0 -0.74324723066E+01  0.12317647542E+03 -0.29241650449E+03  0.34111550610E+03  0.12499876266E+03 0.  0.
          2    1    1    2  501    0  0.60313454311E+00 -0.99694329075E+02 -0.16571563828E+04  0.16601525834E+04  0.00000000000E+00 0. -1.
          1    1    1    2  502    0  0.68293377635E+01 -0.23482146342E+02  0.60394091561E+03  0.60443583663E+03  0.00000000000E+00 0. -1.
         22    1    3    3    0    0  0.27647947805E+02  0.13553876001E+03 -0.22510211492E+03  0.26420849083E+03  0.00000000000E+00 0.  1.
         22    1    3    3    0    0 -0.35080420112E+02 -0.12362284597E+02 -0.67314389565E+02  0.76907015273E+02  0.00000000000E+00 0.  1.
</event>
<event>
 7    1  0.6273950E-006  0.6382557E+02  0.7818608E-02  0.1417546E+00
          2   -1    0    0  502    0  0.00000000000E+00  0.00000000000E+00  0.19892000160E+03  0.19892000160E+03  0.00000000000E+00 0. -1.
          1   -1    0    0  501    0 -0.00000000000E+00 -0.00000000000E+00 -0.16988727270E+03  0.16988727270E+03  0.00000000000E+00 0. -1.
         25    2    1    2    0    0 -0.61766454847E+01 -0.29484159026E+02  0.59947808352E+01  0.12872111409E+03  0.12500288490E+03 0.  0.
          2    1    1    2  501    0 -0.44577501232E+02 -0.18687727673E+02 -0.92868662574E+02  0.10469466686E+03  0.00000000000E+00 0. -1.
          1    1    1    2  502    0  0.50754146717E+02  0.48171886700E+02  0.11590661064E+03  0.13539149334E+03  0.00000000000E+00 0. -1.
         22    1    3    3    0    0 -0.34165277641E+02  0.26286768172E+02  0.38998771380E+02  0.58130581851E+02  0.00000000000E+00 0. -1.
         22    1    3    3    0    0  0.27988632156E+02 -0.55770927198E+02 -0.33003990544E+02  0.70590532243E+02  0.00000000000E+00 0. -1.
</event>
<event>
 7    1  0.6273950E-006  0.4549247E+02  0.7818608E-02  0.1485204E+00
          2   -1    0    0  502    0  0.00000000000E+00  0.00000000000E+00  0.21515221337E+03  0.21515221337E+03  0.00000000000E+00 0. -1.
          1   -1    0    0  501    0 -0.00000000000E+00 -0.00000000000E+00 -0.10200343392E+04  0.10200343392E+04  0.00000000000E+00 0. -1.
         25    2    1    2    0    0  0.49419003053E+02  0.38788566813E+02  0.61970643590E+02  0.15300425263E+03  0.12499259930E+03 0.  0.
          2    1    1    2  501    0 -0.40856421402E+02  0.54947073178E+01 -0.96933638197E+03  0.97021258515E+03  0.00000000000E+00 0. -1.
          1    1    1    2  502    0 -0.85625816506E+01 -0.44283274131E+02  0.10248361259E+03  0.11196971475E+03  0.00000000000E+00 0. -1.
         22    1    3    3    0    0  0.26753733693E+02 -0.13157570386E+02 -0.31703001570E+02  0.43519699373E+02  0.00000000000E+00 0.  1.
         22    1    3    3    0    0  0.22665269360E+02  0.51946137199E+02  0.93673645160E+02  0.10948455326E+03  0.00000000000E+00 0.  1.
</event>
<event>
 7    1  0.6273950E-006  0.6388668E+02  0.7818608E-02  0.1486333E+00
          2   -1    0    0  502    0  0.00000000000E+00  0.00000000000E+00  0.91329170093E+03  0.91329170093E+03  0.00000000000E+00 0. -1.
          1   -1    0    0  501    0 -0.00000000000E+00 -0.00000000000E+00 -0.21464063586E+02  0.21464063586E+02  0.00000000000E+00 0. -1.
         25    2    1    2    0    0 -0.36649871228E+02  0.59806894687E+02  0.35598903576E+03  0.38375328996E+03  0.12497326219E+03 0.  0.
          2    1    1    2  501    0  0.28912963062E+02  0.34977579888E+01  0.32501346662E+02  0.43640935815E+02  0.00000000000E+00 0. -1.
          1    1    1    2  502    0  0.77369081659E+01 -0.63304652676E+02  0.50333725492E+03  0.50736153873E+03  0.00000000000E+00 0. -1.
         22    1    3    3    0    0 -0.52028086897E+02 -0.10141150242E+02  0.25182782143E+03  0.25734610236E+03  0.00000000000E+00 0. -1.
         22    1    3    3    0    0  0.15378215669E+02  0.69948044929E+02  0.10416121433E+03  0.12640718760E+03  0.00000000000E+00 0. -1.
</event>
<event>
 7    1  0.6273950E-006  0.1319220E+03  0.7818608E-02  0.1328709E+00
          2   -1    0    0  502    0  0.00000000000E+00  0.00000000000E+00  0.84371899593E+03  0.84371899593E+03  0.00000000000E+00 0. -1.
          1   -1    0    0  501    0 -0.00000000000E+00 -0.00000000000E+00 -0.38887415436E+03  0.38887415436E+03  0.00000000000E+00 0. -1.
         25    2    1    2    0    0  0.49058834631E+02 -0.17099920134E+03  0.50227674382E+03  0.54731576992E+03  0.12500051404E+03 0.  0.
          2    1    1    2  501    0 -0.46382504300E+02  0.12241272576E+03 -0.35267193811E+03  0.37618307785E+03  0.00000000000E+00 0. -1.
          1    1    1    2  502    0 -0.26763303310E+01  0.48586475585E+02  0.30524003586E+03  0.30909430252E+03  0.00000000000E+00 0. -1.
         22    1    3    3    0    0 -0.36979314260E+02 -0.84828465041E+02  0.26358996274E+03  0.27936178447E+03  0.00000000000E+00 0.  1.
         22    1    3    3    0    0  0.86038148891E+02 -0.86170736303E+02  0.23868678107E+03  0.26795398545E+03  0.00000000000E+00 0.  1.
</event>
<event>
 7    1  0.6273950E-006  0.8130873E+02  0.7818608E-02  0.1432344E+00
          2   -1    0    0  502    0  0.00000000000E+00  0.00000000000E+00  0.43768396772E+03  0.43768396772E+03  0.00000000000E+00 0. -1.
          1   -1    0    0  501    0 -0.00000000000E+00 -0.00000000000E+00 -0.12368535349E+03  0.12368535349E+03  0.00000000000E+00 0. -1.
         25    2    1    2    0    0 -0.56622151063E+02 -0.93373147194E+01  0.12007530775E+03  0.18259458960E+03  0.12501780346E+03 0.  0.
          2    1    1    2  501    0 -0.29814354715E+02  0.16110780852E+02 -0.82438284545E+02  0.89132058011E+02  0.00000000000E+00 0. -1.
          1    1    1    2  502    0  0.86436505778E+02 -0.67734661326E+01  0.27636159103E+03  0.28964267360E+03  0.00000000000E+00 0. -1.
         22    1    3    3    0    0 -0.14867054457E+02  0.33419580337E+02 -0.11284836223E+02  0.38278521219E+02  0.00000000000E+00 0.  1.
         22    1    3    3    0    0 -0.41755096606E+02 -0.42756895057E+02  0.13136014398E+03  0.14431606838E+03  0.00000000000E+00 0.  1.
</event>
<event>
 7    1  0.6273950E-006  0.1015398E+03  0.7818608E-02  0.1400118E+00
          2   -1    0    0  502    0  0.00000000000E+00  0.00000000000E+00  0.59062000414E+03  0.59062000414E+03  0.00000000000E+00 0. -1.
          1   -1    0    0  501    0 -0.00000000000E+00 -0.00000000000E+00 -0.90095389051E+02  0.90095389051E+02  0.00000000000E+00 0. -1.
         25    2    1    2    0    0  0.69047095266E+02 -0.69689109566E+02  0.21659849187E+03  0.26863305759E+03  0.12499895836E+03 0.  0.
          2    1    1    2  501    0  0.24602594192E+02  0.24636150023E+02 -0.50804718617E+02  0.61590153131E+02  0.00000000000E+00 0. -1.
          1    1    1    2  502    0 -0.93649689458E+02  0.45052959543E+02  0.33473084183E+03  0.35049218247E+03  0.00000000000E+00 0. -1.
         22    1    3    3    0    0  0.10557245567E+03 -0.51449934936E+02  0.17078351021E+03  0.20726708991E+03  0.00000000000E+00 0.  1.
         22    1    3    3    0    0 -0.36525360404E+02 -0.18239174630E+02  0.45814981664E+02  0.61365967676E+02  0.00000000000E+00 0.  1.
</event>
<event>
 7    1  0.6273950E-006  0.2714647E+02  0.7818608E-02  0.1634852E+00
          2   -1    0    0  502    0  0.00000000000E+00  0.00000000000E+00  0.52980288725E+03  0.52980288725E+03  0.00000000000E+00 0. -1.
          1   -1    0    0  501    0 -0.00000000000E+00 -0.00000000000E+00 -0.13291587462E+03  0.13291587462E+03  0.00000000000E+00 0. -1.
         25    2    1    2    0    0  0.23470015232E+01 -0.14832657896E+01  0.20938235812E+02  0.12677082113E+03  0.12499889150E+03 0.  0.
          2    1    1    2  501    0 -0.24934592641E+02 -0.12748174535E+02 -0.77143772283E+02  0.82069552613E+02  0.00000000000E+00 0. -1.
          1    1    1    2  502    0  0.22587591117E+02  0.14231440325E+02  0.45309254909E+03  0.45387838813E+03  0.00000000000E+00 0. -1.
         22    1    3    3    0    0  0.63359928266E+02  0.47493105789E+01  0.13874939030E+02  0.65034993611E+02  0.00000000000E+00 0. -1.
         22    1    3    3    0    0 -0.61012926743E+02 -0.62325763684E+01  0.70632967815E+01  0.61735827518E+02  0.00000000000E+00 0. -1.
</event>
<event>
 7    1  0.6273950E-006  0.1618698E+03  0.7818608E-02  0.1344227E+00
          2   -1    0    0  502    0  0.00000000000E+00  0.00000000000E+00  0.37724607505E+03  0.37724607505E+03  0.00000000000E+00 0. -1.
          1   -1    0    0  501    0 -0.00000000000E+00 -0.00000000000E+00 -0.41947534591E+03  0.41947534591E+03  0.00000000000E+00 0. -1.
         25    2    1    2    0    0  0.61652991098E+02 -0.13042339825E+03  0.13911467775E+02  0.19139268092E+03  0.12500510091E+03 0.  0.
          2    1    1    2  501    0  0.33924775562E+02 -0.70212018107E+01 -0.30414371622E+03  0.30611041764E+03  0.00000000000E+00 0. -1.
          1    1    1    2  502    0 -0.95577766660E+02  0.13744460006E+03  0.24800297758E+03  0.29921832239E+03  0.00000000000E+00 0. -1.
         22    1    3    3    0    0  0.48734059229E+02 -0.12287401318E+03 -0.37861358385E+02  0.13750096037E+03  0.00000000000E+00 0. -1.
         22    1    3    3    0    0  0.12918931869E+02 -0.75493850709E+01  0.51772826160E+02  0.53891720553E+02  0.00000000000E+00 0. -1.
</event>
<event>
 7    1  0.6273950E-006  0.8114422E+02  0.7818608E-02  0.1341063E+00
          2   -1    0    0  502    0  0.00000000000E+00  0.00000000000E+00  0.92392844773E+02  0.92392844773E+02  0.00000000000E+00 0. -1.
          1   -1    0    0  501    0 -0.00000000000E+00 -0.00000000000E+00 -0.11939635056E+04  0.11939635056E+04  0.00000000000E+00 0. -1.
         25    2    1    2    0    0 -0.20586463063E+02 -0.35471172738E+01 -0.44286890623E+03  0.46064437544E+03  0.12499595200E+03 0.  0.
          2    1    1    2  501    0  0.32174099940E+02  0.83859698068E+02 -0.71901766986E+03  0.72460612145E+03  0.00000000000E+00 0. -1.
          1    1    1    2  502    0 -0.11587636877E+02 -0.80312580794E+02  0.60315915303E+02  0.10110585345E+03  0.00000000000E+00 0. -1.
         22    1    3    3    0    0  0.46439997462E+02 -0.10832740159E+02 -0.28528908404E+03  0.28924709696E+03  0.00000000000E+00 0.  1.
         22    1    3    3    0    0 -0.67026460525E+02  0.72856228852E+01 -0.15757982218E+03  0.17139727848E+03  0.00000000000E+00 0.  1.
</event>
<event>
 7    1  0.6273950E-006  0.5911121E+02  0.7818608E-02  0.1432733E+00
          2   -1    0    0  502    0  0.00000000000E+00  0.00000000000E+00  0.12203798075E+03  0.12203798075E+03  0.00000000000E+00 0. -1.
          1   -1    0    0  501    0 -0.00000000000E+00 -0.00000000000E+00 -0.75610420055E+03  0.75610420055E+03  0.00000000000E+00 0. -1.
         25    2    1    2    0    0  0.46856065405E+02 -0.35350794074E+02 -0.97489398249E+02  0.16904750363E+03  0.12501082435E+03 0.  0.
          2    1    1    2  501    0 -0.70924460235E+01  0.59414344433E+02 -0.61501578991E+03  0.61791972694E+03  0.00000000000E+00 0. -1.
          1    1    1    2  502    0 -0.39763619382E+02 -0.24063550360E+02  0.78438968361E+02  0.91174950725E+02  0.00000000000E+00 0. -1.
         22    1    3    3    0    0  0.14918014202E+02 -0.42384802214E+02 -0.12080022873E+03  0.12888643787E+03  0.00000000000E+00 0.  1.
         22    1    3    3    0    0  0.31938051203E+02  0.70340081399E+01  0.23310830480E+02  0.40161065758E+02  0.00000000000E+00 0.  1.
</event>
<event>
 7    1  0.6273950E-006  0.1492534E+03  0.7818608E-02  0.1293921E+00
          2   -1    0    0  502    0  0.00000000000E+00  0.00000000000E+00  0.75461557470E+03  0.75461557470E+03  0.00000000000E+00 0. -1.
          1   -1    0    0  501    0 -0.00000000000E+00 -0.00000000000E+00 -0.26042891093E+04  0.26042891093E+04  0.00000000000E+00 0. -1.
         25    2    1    2    0    0 -0.89563695015E+02  0.11004919074E+03 -0.16155957370E+03  0.24871586659E+03  0.12500242634E+03 0.  0.
          2    1    1    2  501    0  0.41633644594E+02 -0.14435012209E+03 -0.23955728256E+04  0.24002790423E+04  0.00000000000E+00 0. -1.
          1    1    1    2  502    0  0.47930050421E+02  0.34300931352E+02  0.70745886468E+03  0.70990977514E+03  0.00000000000E+00 0. -1.
         22    1    3    3    0    0 -0.54065769559E+02  0.19204079348E+02 -0.13641921435E+03  0.14799360170E+03  0.00000000000E+00 0. -1.
         22    1    3    3    0    0 -0.35497925456E+02  0.90845111389E+02 -0.25140359354E+02  0.10072226488E+03  0.00000000000E+00 0. -1.
</event>
<event>
 7    1  0.6273950E-006  0.1133120E+03  0.7818608E-02  0.1306364E+00
          2   -1    0    0  502    0  0.00000000000E+00  0.00000000000E+00  0.75024795621E+03  0.75024795621E+03  0.00000000000E+00 0. -1.
          1   -1    0    0  501    0 -0.00000000000E+00 -0.00000000000E+00 -0.12049163988E+04  0.12049163988E+04  0.00000000000E+00 0. -1.
         25    2    1    2    0    0  0.14350468398E+02  0.14842477539E+03 -0.56520791057E+03  0.59776352742E+03  0.12500161060E+03 0.  0.
          2    1    1    2  501    0  0.35241421159E+02 -0.10012896554E+03 -0.61725799119E+03  0.62631876484E+03  0.00000000000E+00 0. -1.
          1    1    1    2  502    0 -0.49591889557E+02 -0.48295809851E+02  0.72779745922E+03  0.73108206270E+03  0.00000000000E+00 0. -1.
         22    1    3    3    0    0 -0.55669259533E+02  0.66348331681E+02 -0.26048566684E+03  0.27450673981E+03  0.00000000000E+00 0. -1.
         22    1    3    3    0    0  0.70019727931E+02  0.82076443711E+02 -0.30472224373E+03  0.32325678761E+03  0.00000000000E+00 0. -1.
</event>
<event>
 7    1  0.6273950E-006  0.7994908E+02  0.7818608E-02  0.1354200E+00
          2   -1    0    0  502    0  0.00000000000E+00  0.00000000000E+00  0.28879048875E+04  0.28879048875E+04  0.00000000000E+00 0. -1.
          1   -1    0    0  501    0 -0.00000000000E+00 -0.00000000000E+00 -0.16196655603E+04  0.16196655603E+04  0.00000000000E+00 0. -1.
         25    2    1    2    0    0  0.14331059354E+03  0.13554913124E+02  0.23353797555E+03  0.30147549543E+03  0.12500330569E+03 0.  0.
          2    1    1    2  501    0 -0.78946927543E+02 -0.11002166819E+02 -0.15842988281E+04  0.15863027585E+04  0.00000000000E+00 0. -1.
          1    1    1    2  502    0 -0.64363665996E+02 -0.25527463056E+01  0.26190001796E+04  0.26197921938E+04  0.00000000000E+00 0. -1.
         22    1    3    3    0    0  0.76410550531E+02  0.68942518522E+02  0.11213291847E+03  0.15220195300E+03  0.00000000000E+00 0.  1.
         22    1    3    3    0    0  0.66900043008E+02 -0.55387605398E+02  0.12140505707E+03  0.14927354243E+03  0.00000000000E+00 0.  1.
</event>
<event>
 7    1  0.6273950E-006  0.6041413E+02  0.7818608E-02  0.1404648E+00
          2   -1    0    0  502    0  0.00000000000E+00  0.00000000000E+00  0.11312575203E+04  0.11312575203E+04  0.00000000000E+00 0. -1.
          1   -1    0    0  501    0 -0.00000000000E+00 -0.00000000000E+00 -0.39123713958E+03  0.39123713958E+03  0.00000000000E+00 0. -1.
         25    2    1    2    0    0 -0.40828978920E+02 -0.50942772549E+01  0.36357414060E+03  0.38665079184E+03  0.12497888596E+03 0.  0.
          2    1    1    2  501    0  0.19628862089E+02  0.57426441864E+02 -0.37620957029E+03  0.38107312845E+03  0.00000000000E+00 0. -1.
          1    1    1    2  502    0  0.21200116831E+02 -0.52332164609E+02  0.75265581043E+03  0.75477073962E+03  0.00000000000E+00 0. -1.
         22    1    3    3    0    0 -0.76806953168E+02 -0.22998636495E+02  0.15792273551E+03  0.17710967146E+03  0.00000000000E+00 0.  1.
         22    1    3    3    0    0  0.35977974249E+02  0.17904359240E+02  0.20565140510E+03  0.20954112038E+03  0.00000000000E+00 0.  1.
</event>
<event>
 7    1  0.6273950E-006  0.9405714E+02  0.7818608E-02  0.1375828E+00
          2   -1    0    0  502    0  0.00000000000E+00  0.00000000000E+00  0.12571302687E+04  0.12571302687E+04  0.00000000000E+00 0. -1.
          1   -1    0    0  501    0 -0.00000000000E+00 -0.00000000000E+00 -0.35580194557E+02  0.35580194557E+02  0.00000000000E+00 0. -1.
         25    2    1    2    0    0  0.50886188964E+02  0.11138533520E+03  0.90629013262E+03  0.92302902530E+03  0.12499871968E+03 0.  0.
          2    1    1    2  501    0 -0.10672787544E+02 -0.44452092498E+02  0.85309291441E+00  0.45723349494E+02  0.00000000000E+00 0. -1.
          1    1    1    2  502    0 -0.40213401420E+02 -0.66933242706E+02  0.31440684859E+03  0.32395808845E+03  0.00000000000E+00 0. -1.
         22    1    3    3    0    0  0.72607056843E+02  0.46068764742E+02  0.27840097381E+03  0.29137813577E+03  0.00000000000E+00 0. -1.
         22    1    3    3    0    0 -0.21720867879E+02  0.65316570462E+02  0.62788915882E+03  0.63165088953E+03  0.00000000000E+00 0. -1.
</event>
<event>
 7    1  0.6273950E-006  0.2198122E+03  0.7818608E-02  0.1204277E+00
          2   -1    0    0  502    0  0.00000000000E+00  0.00000000000E+00  0.20975846774E+04  0.20975846774E+04  0.00000000000E+00 0. -1.
          1   -1    0    0  501    0 -0.00000000000E+00 -0.00000000000E+00 -0.25100490486E+03  0.25100490486E+03  0.00000000000E+00 0. -1.
         25    2    1    2    0    0 -0.91275148070E+02 -0.29071589119E+03  0.35860574171E+03  0.48689786318E+03  0.12499827652E+03 0.  0.
          2    1    1    2  501    0  0.52157899746E+02  0.83243842973E+02 -0.16676011710E+03  0.19354307157E+03  0.00000000000E+00 0. -1.
          1    1    1    2  502    0  0.39117248324E+02  0.20747204822E+03  0.16547341479E+04  0.16681486475E+04  0.00000000000E+00 0. -1.
         22    1    3    3    0    0 -0.39301071122E+02 -0.26832919480E+03  0.27758226944E+03  0.38806835388E+03  0.00000000000E+00 0.  1.
         22    1    3    3    0    0 -0.51974076949E+02 -0.22386696389E+02  0.81023472264E+02  0.98829509296E+02  0.00000000000E+00 0.  1.
</event>
<event>
 7    1  0.6273950E-006  0.1555866E+03  0.7818608E-02  0.1338058E+00
          2   -1    0    0  502    0  0.00000000000E+00  0.00000000000E+00  0.12579009277E+04  0.12579009277E+04  0.00000000000E+00 0. -1.
          1   -1    0    0  501    0 -0.00000000000E+00 -0.00000000000E+00 -0.31646249693E+02  0.31646249693E+02  0.00000000000E+00 0. -1.
         25    2    1    2    0    0  0.14277593385E+03 -0.11976226037E+02  0.67355499702E+03  0.69987834582E+03  0.12499987062E+03 0.  0.
          2    1    1    2  501    0 -0.16307176098E+03 -0.20170859530E+02  0.40285074027E+03  0.43507238678E+03  0.00000000000E+00 0. -1.
          1    1    1    2  502    0  0.20295827126E+02  0.32147085566E+02  0.14984894068E+03  0.15459644476E+03  0.00000000000E+00 0. -1.
         22    1    3    3    0    0  0.49034137052E+02  0.46663319637E+02  0.38418455173E+03  0.39010201459E+03  0.00000000000E+00 0.  1.
         22    1    3    3    0    0  0.93741796797E+02 -0.58639545674E+02  0.28937044529E+03  0.30977633123E+03  0.00000000000E+00 0.  1.
</event>
<event>
 7    1  0.6273950E-006  0.1346840E+03  0.7818608E-02  0.1285722E+00
          2   -1    0    0  502    0  0.00000000000E+00  0.00000000000E+00  0.56286610889E+03  0.56286610889E+03  0.00000000000E+00 0. -1.
          1   -1    0    0  501    0 -0.00000000000E+00 -0.00000000000E+00 -0.15907855097E+04  0.15907855097E+04  0.00000000000E+00 0. -1.
         25    2    1    2    0    0 -0.16673768301E+03  0.57895336460E+02 -0.50288892530E+03  0.54742650303E+03  0.12500072041E+03 0.  0.
          2    1    1    2  501    0  0.64350935988E+02  0.28867098137E+02 -0.10561043155E+04  0.10584567434E+04  0.00000000000E+00 0. -1.
          1    1    1    2  502    0  0.10238674702E+03 -0.86762434596E+02  0.53107384002E+03  0.54776837220E+03  0.00000000000E+00 0. -1.
         22    1    3    3    0    0  0.15141428061E+02  0.21539705250E+02 -0.32736023266E+02  0.42010343551E+02  0.00000000000E+00 0. -1.
         22    1    3    3    0    0 -0.18187911107E+03  0.36355631210E+02 -0.47015290204E+03  0.50541615947E+03  0.00000000000E+00 0. -1.
</event>
<event>
 7    1  0.6273950E-006  0.7485324E+02  0.7818608E-02  0.1433363E+00
          2   -1    0    0  502    0  0.00000000000E+00  0.00000000000E+00  0.29178990975E+03  0.29178990975E+03  0.00000000000E+00 0. -1.
          1   -1    0    0  501    0 -0.00000000000E+00 -0.00000000000E+00 -0.63253958594E+03  0.63253958594E+03  0.00000000000E+00 0. -1.
         25    2    1    2    0    0  0.16088309730E+02 -0.10366999894E+03 -0.38286165677E+03  0.41618844654E+03  0.12499388954E+03 0.  0.
          2    1    1    2  501    0  0.11787187209E+02  0.34575099131E+02 -0.22647988680E+03  0.22940687519E+03  0.00000000000E+00 0. -1.
          1    1    1    2  502    0 -0.27875496939E+02  0.69094899807E+02  0.26859186738E+03  0.27873417396E+03  0.00000000000E+00 0. -1.
         22    1    3    3    0    0  0.37499754571E+02 -0.97525455984E+02 -0.37954815280E+03  0.39366768530E+03  0.00000000000E+00 0. -1.
         22    1    3    3    0    0 -0.21411444841E+02 -0.61445429540E+01 -0.33135039673E+01  0.22520761240E+02  0.00000000000E+00 0. -1.
</event>
<event>
 7    1  0.6273950E-006  0.9010134E+02  0.7818608E-02  0.1481704E+00
          2   -1    0    0  502    0  0.00000000000E+00  0.00000000000E+00  0.18073546973E+03  0.18073546973E+03  0.00000000000E+00 0. -1.
          1   -1    0    0  501    0 -0.00000000000E+00 -0.00000000000E+00 -0.15761394315E+04  0.15761394315E+04  0.00000000000E+00 0. -1.
         25    2    1    2    0    0  0.67120198382E+02 -0.20306773880E+02 -0.26259927735E+03  0.29916727070E+03  0.12500075720E+03 0.  0.
          2    1    1    2  501    0  0.21293884512E+02 -0.12874427880E+01 -0.12824130439E+04  0.12825904655E+04  0.00000000000E+00 0. -1.
          1    1    1    2  502    0 -0.88414082894E+02  0.21594216668E+02  0.14960835950E+03  0.17511716501E+03  0.00000000000E+00 0. -1.
         22    1    3    3    0    0  0.72080837789E+02 -0.27618005965E+02 -0.27404465789E+03  0.28470840513E+03  0.00000000000E+00 0. -1.
         22    1    3    3    0    0 -0.49606394072E+01  0.73112320850E+01  0.11445380545E+02  0.14458865576E+02  0.00000000000E+00 0. -1.
</event>
<event>
 7    1  0.6273950E-006  0.6848898E+02  0.7818608E-02  0.1405177E+00
          2   -1    0    0  502    0  0.00000000000E+00  0.00000000000E+00  0.43182068485E+03  0.43182068485E+03  0.00000000000E+00 0. -1.
          1   -1    0    0  501    0 -0.00000000000E+00 -0.00000000000E+00 -0.27185255445E+04  0.27185255445E+04  0.00000000000E+00 0. -1.
         25    2    1    2    0    0 -0.81301860693E+02  0.69516074170E+02 -0.86833474731E+03  0.88377887464E+03  0.12496955131E+03 0.  0.
          2    1    1    2  501    0  0.61391390905E+02 -0.24088232413E+02 -0.18404259184E+04  0.18416070990E+04  0.00000000000E+00 0. -1.
          1    1    1    2  502    0  0.19910469789E+02 -0.45427841757E+02  0.42205580602E+03  0.42496025580E+03  0.00000000000E+00 0. -1.
         22    1    3    3    0    0 -0.67380708999E+02  0.71791626696E+02 -0.30987625662E+03  0.32514226429E+03  0.00000000000E+00 0.  1.
         22    1    3    3    0    0 -0.13921151694E+02 -0.22755525260E+01 -0.55845849069E+03  0.55863661035E+03  0.00000000000E+00 0.  1.
</event>
<event>
 7    1  0.6273950E-006  0.7828888E+02  0.7818608E-02  0.1340360E+00
          2   -1    0    0  502    0  0.00000000000E+00  0.00000000000E+00  0.90147755203E+03  0.90147755203E+03  0.00000000000E+00 0. -1.
          1   -1    0    0  501    0 -0.00000000000E+00 -0.00000000000E+00 -0.30817286965E+02  0.30817286965E+02  0.00000000000E+00 0. -1.
         25    2    1    2    0    0  0.12078919255E+01  0.15973302358E+02  0.43867693736E+03  0.45642099777E+03  0.12500426571E+03 0.  0.
          2    1    1    2  501    0  0.51344116992E+02 -0.74002913367E+02  0.99132601663E+02  0.13393999496E+03  0.00000000000E+00 0. -1.
          1    1    1    2  502    0 -0.52552008917E+02  0.58029611010E+02  0.33285072605E+03  0.34193384627E+03  0.00000000000E+00 0. -1.
         22    1    3    3    0    0 -0.54018620996E+02  0.33129006872E+02  0.29111132106E+03  0.29792842053E+03  0.00000000000E+00 0.  1.
         22    1    3    3    0    0  0.55226512922E+02 -0.17155704514E+02  0.14756561630E+03  0.15849257724E+03  0.00000000000E+00 0.  1.
</event>
<event>
 7    1  0.7275110E-006  0.3397598E+02  0.7818608E-02  0.1566998E+00
          2   -1    0    0  502    0  0.00000000000E+00  0.00000000000E+00  0.10587941297E+04  0.10587941297E+04  0.00000000000E+00 0. -1.
          1   -1    0    0  501    0 -0.00000000000E+00 -0.00000000000E+00 -0.13959203370E+04  0.13959203370E+04  0.00000000000E+00 0. -1.
         25    2    1    2    0    0 -0.45567445080E+02 -0.95571503056E+01 -0.31284440750E+03  0.34009612014E+03  0.12500406576E+03 0.  0.
          2    1    1    2  501    0  0.28906599689E+02 -0.17851792302E+02 -0.10689340248E+04  0.10694738086E+04  0.00000000000E+00 0. -1.
          1    1    1    2  502    0  0.16660845391E+02  0.27408942608E+02  0.10446522250E+04  0.10451445379E+04  0.00000000000E+00 0. -1.
         22    1    3    3    0    0 -0.28956795598E+02 -0.33231600551E+02 -0.30755310931E+03  0.31069559111E+03  0.00000000000E+00 0. -1.
         22    1    3    3    0    0 -0.16610649482E+02  0.23674450245E+02 -0.52912981832E+01  0.29400529027E+02  0.00000000000E+00 0. -1.
</event>
<event>
 7    1  0.6273950E-006  0.2496134E+03  0.7818608E-02  0.1186786E+00
          2   -1    0    0  502    0  0.00000000000E+00  0.00000000000E+00  0.10648747167E+04  0.10648747167E+04  0.00000000000E+00 0. -1.
          1   -1    0    0  501    0 -0.00000000000E+00 -0.00000000000E+00 -0.17100300475E+04  0.17100300475E+04  0.00000000000E+00 0. -1.
         25    2    1    2    0    0 -0.10545673686E+03 -0.31285751479E+03  0.18987892585E+03  0.40085092337E+03  0.12500603334E+03 0.  0.
          2    1    1    2  501    0 -0.62721026939E+01  0.10456678736E+03 -0.15846231639E+04  0.15880819008E+04  0.00000000000E+00 0. -1.
          1    1    1    2  502    0  0.11172883956E+03  0.20829072743E+03  0.74958890716E+03  0.78597193999E+03  0.00000000000E+00 0. -1.
         22    1    3    3    0    0 -0.97232616120E+02 -0.29839788989E+03  0.13172218926E+03  0.34036189192E+03  0.00000000000E+00 0. -1.
         22    1    3    3    0    0 -0.82241207410E+01 -0.14459624897E+02  0.58156736591E+02  0.60489031444E+02  0.00000000000E+00 0. -1.
</event>
<event>
 7    1  0.6273950E-006  0.4005753E+02  0.7818608E-02  0.1590444E+00
          2   -1    0    0  502    0  0.00000000000E+00  0.00000000000E+00  0.16695753092E+04  0.16695753092E+04  0.00000000000E+00 0. -1.
          1   -1    0    0  501    0 -0.00000000000E+00 -0.00000000000E+00 -0.59871417599E+02  0.59871417599E+02  0.00000000000E+00 0. -1.
         25    2    1    2    0    0 -0.26498024246E+02  0.14221764257E+02  0.85965125616E+03  0.86921369945E+03  0.12501107638E+03 0.  0.
          2    1    1    2  501    0  0.39858486417E+02  0.51511086218E+01 -0.47563540064E+02  0.62269761545E+02  0.00000000000E+00 0. -1.
          1    1    1    2  502    0 -0.13360462172E+02 -0.19372872879E+02  0.79761617545E+03  0.79796326576E+03  0.00000000000E+00 0. -1.
         22    1    3    3    0    0 -0.54171230894E+02 -0.22727064847E+02  0.71421542678E+03  0.71662732127E+03  0.00000000000E+00 0.  1.
         22    1    3    3    0    0  0.27673206649E+02  0.36948829104E+02  0.14543582938E+03  0.15258637818E+03  0.00000000000E+00 0.  1.
</event>
<event>
 7    1  0.6273950E-006  0.9954451E+02  0.7818608E-02  0.1370408E+00
          2   -1    0    0  502    0  0.00000000000E+00  0.00000000000E+00  0.30800449149E+04  0.30800449149E+04  0.00000000000E+00 0. -1.
          1   -1    0    0  501    0 -0.00000000000E+00 -0.00000000000E+00 -0.67440352006E+02  0.67440352006E+02  0.00000000000E+00 0. -1.
         25    2    1    2    0    0  0.11992656771E+02  0.79973663056E+02  0.99805622943E+03  0.10090988897E+04  0.12499888582E+03 0.  0.
          2    1    1    2  501    0 -0.57066599775E+02 -0.82888682963E+02 -0.20613684286E+02  0.10272319384E+03  0.00000000000E+00 0. -1.
          1    1    1    2  502    0  0.45073943004E+02  0.29150199070E+01  0.20351620178E+04  0.20356631834E+04  0.00000000000E+00 0. -1.
         22    1    3    3    0    0 -0.98566264162E+01  0.96447040946E+02  0.44835951651E+03  0.45872152864E+03  0.00000000000E+00 0.  1.
         22    1    3    3    0    0  0.21849283188E+02 -0.16473377891E+02  0.54969671292E+03  0.55037736104E+03  0.00000000000E+00 0.  1.
</event>
<event>
 7    1  0.6273950E-006  0.1321512E+03  0.7818608E-02  0.1374151E+00
          2   -1    0    0  502    0  0.00000000000E+00  0.00000000000E+00  0.18733816188E+04  0.18733816188E+04  0.00000000000E+00 0. -1.
          1   -1    0    0  501    0 -0.00000000000E+00 -0.00000000000E+00 -0.30304151501E+03  0.30304151501E+03  0.00000000000E+00 0. -1.
         25    2    1    2    0    0  0.14775166238E+03  0.69908197796E+02 -0.58985471440E+02  0.21407594183E+03  0.12502604999E+03 0.  0.
          2    1    1    2  501    0 -0.25703977275E+02 -0.20677859415E+02 -0.16243959069E+03  0.16575550953E+03  0.00000000000E+00 0. -1.
          1    1    1    2  502    0 -0.12204768511E+03 -0.49230338382E+02  0.17917651659E+04  0.17965916824E+04  0.00000000000E+00 0. -1.
         22    1    3    3    0    0  0.15896792953E+03  0.89320790015E+02 -0.59017041107E+02  0.19165598684E+03  0.00000000000E+00 0.  1.
         22    1    3    3    0    0 -0.11216267151E+02 -0.19412592219E+02  0.31569666251E-01  0.22419954998E+02  0.00000000000E+00 0.  1.
</event>
<event>
 7    1  0.6273950E-006  0.9156695E+02  0.7818608E-02  0.1414653E+00
          2   -1    0    0  502    0  0.00000000000E+00  0.00000000000E+00  0.18649475395E+04  0.18649475395E+04  0.00000000000E+00 0. -1.
          1   -1    0    0  501    0 -0.00000000000E+00 -0.00000000000E+00 -0.20971539490E+04  0.20971539490E+04  0.00000000000E+00 0. -1.
         25    2    1    2    0    0  0.80764078103E+02 -0.55419695462E+01  0.17007222705E+04  0.17072301044E+04  0.12499935253E+03 0.  0.
          2    1    1    2  501    0 -0.87085193588E+02 -0.28327553623E+02 -0.20910426661E+04  0.20930469925E+04  0.00000000000E+00 0. -1.
          1    1    1    2  502    0  0.63211154854E+01  0.33869523169E+02  0.15811398612E+03  0.16182439157E+03  0.00000000000E+00 0. -1.
         22    1    3    3    0    0 -0.10255781175E+02  0.44048437376E+02  0.49753111931E+03  0.49958248625E+03  0.00000000000E+00 0. -1.
         22    1    3    3    0    0  0.91019859278E+02 -0.49590406922E+02  0.12031911512E+04  0.12076476181E+04  0.00000000000E+00 0. -1.
</event>
<event>
 7    1  0.6273950E-006  0.5978674E+02  0.7818608E-02  0.1479296E+00
          2   -1    0    0  502    0  0.00000000000E+00  0.00000000000E+00  0.99284512490E+03  0.99284512490E+03  0.00000000000E+00 0. -1.
          1   -1    0    0  501    0 -0.00000000000E+00 -0.00000000000E+00 -0.48194426008E+03  0.48194426008E+03  0.00000000000E+00 0. -1.
         25    2    1    2    0    0  0.62388802506E+01 -0.29918700559E+02  0.63748037341E+03  0.65033950534E+03  0.12500477370E+03 0.  0.
          2    1    1    2  501    0  0.80451905373E+01  0.59334620839E+02 -0.47285635963E+03  0.47663241514E+03  0.00000000000E+00 0. -1.
          1    1    1    2  502    0 -0.14284070788E+02 -0.29415920279E+02  0.34627685104E+03  0.34781746449E+03  0.00000000000E+00 0. -1.
         22    1    3    3    0    0  0.30849436232E+02 -0.32529536687E+02  0.61582321511E+03  0.61745290569E+03  0.00000000000E+00 0.  1.
         22    1    3    3    0    0 -0.24610555981E+02  0.26108361282E+01  0.21657158305E+02  0.32886599655E+02  0.00000000000E+00 0.  1.
</event>
<event>
 7    1  0.6273950E-006  0.5015961E+02  0.7818608E-02  0.1463213E+00
          2   -1    0    0  502    0  0.00000000000E+00  0.00000000000E+00  0.71119891318E+03  0.71119891318E+03  0.00000000000E+00 0. -1.
          1   -1    0    0  501    0 -0.00000000000E+00 -0.00000000000E+00 -0.10924938767E+04  0.10924938767E+04  0.00000000000E+00 0. -1.
         25    2    1    2    0    0 -0.17056672811E+02 -0.59360397180E+02 -0.21373012073E+02  0.14107779461E+03  0.12502620383E+03 0.  0.
          2    1    1    2  501    0  0.40998546134E+02  0.15203600000E+02 -0.10098262425E+04  0.10107725116E+04  0.00000000000E+00 0. -1.
          1    1    1    2  502    0 -0.23941873322E+02  0.44156797179E+02  0.64990429102E+03  0.65184248367E+03  0.00000000000E+00 0. -1.
         22    1    3    3    0    0 -0.23288159478E+02 -0.89650685767E+02  0.14457424036E+02  0.93747538315E+02  0.00000000000E+00 0. -1.
         22    1    3    3    0    0  0.62314866663E+01  0.30290288587E+02 -0.35830436109E+02  0.47330256290E+02  0.00000000000E+00 0. -1.
</event>
<event>
 7    1  0.6273950E-006  0.1581955E+03  0.7818608E-02  0.1346799E+00
          2   -1    0    0  502    0  0.00000000000E+00  0.00000000000E+00  0.19628197768E+04  0.19628197768E+04  0.00000000000E+00 0. -1.
          1   -1    0    0  501    0 -0.00000000000E+00 -0.00000000000E+00 -0.69688986638E+02  0.69688986638E+02  0.00000000000E+00 0. -1.
         25    2    1    2    0    0 -0.18493126744E+03  0.21917941924E+02  0.50610190159E+03  0.55357397738E+03  0.12500017515E+03 0.  0.
          2    1    1    2  501    0  0.15049567879E+03 -0.17860867333E+02  0.79858898113E+02  0.17130500145E+03  0.00000000000E+00 0. -1.
          1    1    1    2  502    0  0.34435588654E+02 -0.40570745908E+01  0.13071699904E+04  0.13076297846E+04  0.00000000000E+00 0. -1.
         22    1    3    3    0    0 -0.13108446825E+03  0.45014903237E+00  0.46337737399E+03  0.48156197024E+03  0.00000000000E+00 0. -1.
         22    1    3    3    0    0 -0.53846799192E+02  0.21467792892E+02  0.42724527596E+02  0.72012007146E+02  0.00000000000E+00 0. -1.
</event>
<event>
 7    1  0.6273950E-006  0.1320909E+03  0.7818608E-02  0.1346637E+00
          2   -1    0    0  502    0  0.00000000000E+00  0.00000000000E+00  0.26054079599E+03  0.26054079599E+03  0.00000000000E+00 0. -1.
          1   -1    0    0  501    0 -0.00000000000E+00 -0.00000000000E+00 -0.18295861323E+04  0.18295861323E+04  0.00000000000E+00 0. -1.
         25    2    1    2    0    0 -0.16341052315E+03 -0.52147990366E+02 -0.66653071476E+03  0.69950565152E+03  0.12499020289E+03 0.  0.
          2    1    1    2  501    0  0.36227354258E+02  0.20416205520E+02 -0.11285562157E+04  0.11293220864E+04  0.00000000000E+00 0. -1.
          1    1    1    2  502    0  0.12718316889E+03  0.31731784847E+02  0.22604159418E+03  0.26129919043E+03  0.00000000000E+00 0. -1.
         22    1    3    3    0    0 -0.13342375901E+03 -0.92215326362E+02 -0.51068605313E+03  0.53582255528E+03  0.00000000000E+00 0.  1.
         22    1    3    3    0    0 -0.29986764141E+02  0.40067335995E+02 -0.15584466163E+03  0.16368309624E+03  0.00000000000E+00 0.  1.
</event>
<event>
 7    1  0.6273950E-006  0.1976176E+03  0.7818608E-02  0.1239392E+00
          2   -1    0    0  502    0  0.00000000000E+00  0.00000000000E+00  0.19828013215E+04  0.19828013215E+04  0.00000000000E+00 0. -1.
          1   -1    0    0  501    0 -0.00000000000E+00 -0.00000000000E+00 -0.10016277478E+04  0.10016277478E+04  0.00000000000E+00 0. -1.
         25    2    1    2    0    0 -0.15124211971E+03 -0.20953976493E+03 -0.40007453112E+02  0.28983910163E+03  0.12500006668E+03 0.  0.
          2    1    1    2  501    0  0.13700454723E+03  0.13523588137E+03 -0.82484648159E+03  0.84701281440E+03  0.00000000000E+00 0. -1.
          1    1    1    2  502    0  0.14237572479E+02  0.74303883563E+02  0.18460275084E+04  0.18475771533E+04  0.00000000000E+00 0. -1.
         22    1    3    3    0    0 -0.50611367201E+02 -0.18974954582E+02  0.31770305604E+02  0.62696983258E+02  0.00000000000E+00 0.  1.
         22    1    3    3    0    0 -0.10063075251E+03 -0.19056481035E+03 -0.71777758716E+02  0.22714211838E+03  0.00000000000E+00 0.  1.
</event>
<event>
 7    1  0.6273950E-006  0.2510327E+03  0.7818608E-02  0.1175817E+00
          2   -1    0    0  502    0  0.00000000000E+00  0.00000000000E+00  0.17832995157E+04  0.17832995157E+04  0.00000000000E+00 0. -1.
          1   -1    0    0  501    0 -0.00000000000E+00 -0.00000000000E+00 -0.12430088444E+04  0.12430088444E+04  0.00000000000E+00 0. -1.
         25    2    1    2    0    0 -0.14346804918E+03 -0.73527932458E+02  0.13406698992E+03  0.24410850793E+03  0.12500227148E+03 0.  0.
          2    1    1    2  501    0 -0.11774809673E+03  0.34190521793E+01 -0.11735471280E+04  0.11794444310E+04  0.00000000000E+00 0. -1.
          1    1    1    2  502    0  0.26121614591E+03  0.70108880279E+02  0.15797708094E+04  0.16027554212E+04  0.00000000000E+00 0. -1.
         22    1    3    3    0    0  0.28376437509E+01 -0.54401374754E+02  0.21680902085E+02  0.58631248600E+02  0.00000000000E+00 0.  1.
         22    1    3    3    0    0 -0.14630569293E+03 -0.19126557704E+02  0.11238608783E+03  0.18547725933E+03  0.00000000000E+00 0.  1.
</event>
<event>
 7    1  0.6273950E-006  0.1588494E+03  0.7818608E-02  0.1247052E+00
          2   -1    0    0  502    0  0.00000000000E+00  0.00000000000E+00  0.15713746253E+04  0.15713746253E+04  0.00000000000E+00 0. -1.
          1   -1    0    0  501    0 -0.00000000000E+00 -0.00000000000E+00 -0.31626174071E+03  0.31626174071E+03  0.00000000000E+00 0. -1.
         25    2    1    2    0    0  0.15827059519E+03  0.91574320784E+02 -0.21095303785E+02  0.22249756107E+03  0.12499886124E+03 0.  0.
          2    1    1    2  501    0  0.41867465586E+00 -0.87111493965E+02 -0.18017491423E+03  0.20012892691E+03  0.00000000000E+00 0. -1.
          1    1    1    2  502    0 -0.15868926985E+03 -0.44628268191E+01  0.14563831026E+04  0.14650098780E+04  0.00000000000E+00 0. -1.
         22    1    3    3    0    0  0.17471177314E+03  0.82199572939E+02  0.14152262716E+01  0.19308800152E+03  0.00000000000E+00 0. -1.
         22    1    3    3    0    0 -0.16441177950E+02  0.93747478457E+01 -0.22510530056E+02  0.29409559551E+02  0.00000000000E+00 0. -1.
</event>
<event>
 7    1  0.6273950E-006  0.1179379E+03  0.7818608E-02  0.1302678E+00
          2   -1    0    0  502    0  0.00000000000E+00  0.00000000000E+00  0.23888490918E+04  0.23888490918E+04  0.00000000000E+00 0. -1.
          1   -1    0    0  501    0 -0.00000000000E+00 -0.00000000000E+00 -0.60204876307E+03  0.60204876307E+03  0.00000000000E+00 0. -1.
         25    2    1    2    0    0 -0.46569253604E+02  0.12149400567E+03  0.98167418703E+02  0.20540817919E+03  0.12500475667E+03 0.  0.
          2    1    1    2  501    0  0.94001661230E+02 -0.71672459433E+02 -0.54152220463E+03  0.55427389607E+03  0.00000000000E+00 0. -1.
          1    1    1    2  502    0 -0.47432407627E+02 -0.49821546233E+02  0.22301551147E+04  0.22312157797E+04  0.00000000000E+00 0. -1.
         22    1    3    3    0    0  0.17655049635E+02 -0.53128912949E+01  0.53226924702E+02  0.56329682271E+02  0.00000000000E+00 0.  1.
         22    1    3    3    0    0 -0.64224303239E+02  0.12680689696E+03  0.44940494001E+02  0.14907849692E+03  0.00000000000E+00 0.  1.
</event>
<event>
 7    1  0.6273950E-006  0.1333308E+03  0.7818608E-02  0.1281369E+00
          2   -1    0    0  502    0  0.00000000000E+00  0.00000000000E+00  0.36545297778E+03  0.36545297778E+03  0.00000000000E+00 0. -1.
          1   -1    0    0  501    0 -0.00000000000E+00 -0.00000000000E+00 -0.14716843351E+04  0.14716843351E+04  0.00000000000E+00 0. -1.
         25    2    1    2    0    0  0.16719036319E+03  0.18369028750E+02 -0.66051650627E+03  0.69296602793E+03  0.12501928671E+03 0.  0.
          2    1    1    2  501    0 -0.11972693296E+03  0.38717902664E+02 -0.78593539487E+03  0.79594475899E+03  0.00000000000E+00 0. -1.
          1    1    1    2  502    0 -0.47463430226E+02 -0.57086931414E+02  0.34022054381E+03  0.34822652596E+03  0.00000000000E+00 0. -1.
         22    1    3    3    0    0  0.73736931609E+02  0.66129704143E+02 -0.40054470518E+03  0.41260917792E+03  0.00000000000E+00 0. -1.
         22    1    3    3    0    0  0.93453431580E+02 -0.47760675392E+02 -0.25997180109E+03  0.28035685001E+03  0.00000000000E+00 0. -1.
</event>
<event>
 7    1  0.6273950E-006  0.9646325E+02  0.7818608E-02  0.1404974E+00
          2   -1    0    0  502    0  0.00000000000E+00  0.00000000000E+00  0.38572369963E+04  0.38572369963E+04  0.00000000000E+00 0. -1.
          1   -1    0    0  501    0 -0.00000000000E+00 -0.00000000000E+00 -0.12886453158E+04  0.12886453158E+04  0.00000000000E+00 0. -1.
         25    2    1    2    0    0  0.11238460571E+01  0.12004112558E+03  0.95619260260E+02  0.19793614728E+03  0.12499816241E+03 0.  0.
          2    1    1    2  501    0 -0.23360003451E+02 -0.26427884669E+02 -0.12366115932E+04  0.12371145279E+04  0.00000000000E+00 0. -1.
          1    1    1    2  502    0  0.22236157394E+02 -0.93613240915E+02  0.37095840133E+04  0.37108316369E+04  0.00000000000E+00 0. -1.
         22    1    3    3    0    0 -0.58049739643E+02  0.85656982221E+02  0.69673338220E+02  0.12474479923E+03  0.00000000000E+00 0.  1.
         22    1    3    3    0    0  0.59173585701E+02  0.34384143363E+02  0.25945922040E+02  0.73191348054E+02  0.00000000000E+00 0.  1.
</event>
<event>
 7    1  0.6273950E-006  0.5680987E+02  0.7818608E-02  0.1447426E+00
          2   -1    0    0  502    0  0.00000000000E+00  0.00000000000E+00  0.10890928529E+04  0.10890928529E+04  0.00000000000E+00 0. -1.
          1   -1    0    0  501    0 -0.00000000000E+00 -0.00000000000E+00 -0.47932386460E+03  0.47932386460E+03  0.00000000000E+00 0. -1.
         25    2    1    2    0    0 -0.55613634723E+02  0.79580387550E+01  0.18669156761E+03  0.23159092209E+03  0.12499762810E+03 0.  0.
          2    1    1    2  501    0  0.94862541297E+01 -0.42281400116E+02 -0.45490428644E+03  0.45696347298E+03  0.00000000000E+00 0. -1.
          1    1    1    2  502    0  0.46127380593E+02  0.34323361361E+02  0.87798170710E+03  0.87986232240E+03  0.00000000000E+00 0. -1.
         22    1    3    3    0    0  0.10662059922E+01  0.55751009583E+02  0.44921232177E+02  0.71604671391E+02  0.00000000000E+00 0. -1.
         22    1    3    3    0    0 -0.56679840715E+02 -0.47792970828E+02  0.14177033543E+03  0.15998625070E+03  0.00000000000E+00 0. -1.
</event>
<event>
 7    1  0.6273950E-006  0.9529383E+02  0.7818608E-02  0.1405233E+00
          2   -1    0    0  502    0  0.00000000000E+00  0.00000000000E+00  0.34901489107E+04  0.34901489107E+04  0.00000000000E+00 0. -1.
          1   -1    0    0  501    0 -0.00000000000E+00 -0.00000000000E+00 -0.90219689120E+01  0.90219689120E+01  0.00000000000E+00 0. -1.
         25    2    1    2    0    0 -0.40056126804E+02 -0.11418304312E+03  0.22019191151E+04  0.22087812332E+04  0.12499794504E+03 0.  0.
          2    1    1    2  501    0  0.45243514893E+02  0.78930280340E+02  0.39010868642E+03  0.40057677418E+03  0.00000000000E+00 0. -1.
          1    1    1    2  502    0 -0.51873880887E+01  0.35252762776E+02  0.88909914025E+03  0.88981287216E+03  0.00000000000E+00 0. -1.
         22    1    3    3    0    0 -0.78733262649E+02 -0.10058184320E+03  0.18665341797E+04  0.18708996439E+04  0.00000000000E+00 0. -1.
         22    1    3    3    0    0  0.38677135844E+02 -0.13601199915E+02  0.33538493544E+03  0.33788158932E+03  0.00000000000E+00 0. -1.
</event>
<event>
 7    1  0.6273950E-006  0.7408834E+02  0.7818608E-02  0.1420844E+00
          2   -1    0    0  502    0  0.00000000000E+00  0.00000000000E+00  0.42508220282E+03  0.42508220282E+03  0.00000000000E+00 0. -1.
          1   -1    0    0  501    0 -0.00000000000E+00 -0.00000000000E+00 -0.89881909513E+03  0.89881909513E+03  0.00000000000E+00 0. -1.
         25    2    1    2    0    0 -0.91996194085E+02 -0.15133847828E+02 -0.15850120737E+03  0.22235085730E+03  0.12499975171E+03 0.  0.
          2    1    1    2  501    0  0.30862798420E+02 -0.26373407591E+02 -0.70433141824E+03  0.70550040090E+03  0.00000000000E+00 0. -1.
          1    1    1    2  502    0  0.61133395665E+02  0.41507255419E+02  0.38909573329E+03  0.39605003975E+03  0.00000000000E+00 0. -1.
         22    1    3    3    0    0  0.60699769869E+01  0.55814331466E+01  0.17762102876E+02  0.19582883219E+02  0.00000000000E+00 0. -1.
         22    1    3    3    0    0 -0.98066171072E+02 -0.20715280975E+02 -0.17626331025E+03  0.20276797408E+03  0.00000000000E+00 0. -1.
</event>
<event>
 7    1  0.6273950E-006  0.3482799E+02  0.7818608E-02  0.1551410E+00
          2   -1    0    0  502    0  0.00000000000E+00  0.00000000000E+00  0.23852942761E+03  0.23852942761E+03  0.00000000000E+00 0. -1.
          1   -1    0    0  501    0 -0.00000000000E+00 -0.00000000000E+00 -0.51859016076E+03  0.51859016076E+03  0.00000000000E+00 0. -1.
         25    2    1    2    0    0 -0.40267209515E+02 -0.53081444718E+01 -0.19807510298E+03  0.23771237220E+03  0.12499520356E+03 0.  0.
          2    1    1    2  501    0  0.24050345043E+02 -0.25513966069E+02 -0.29827649158E+03  0.30033022989E+03  0.00000000000E+00 0. -1.
          1    1    1    2  502    0  0.16216864472E+02  0.30822110541E+02  0.21629086140E+03  0.21907698628E+03  0.00000000000E+00 0. -1.
         22    1    3    3    0    0 -0.67190909568E+02  0.13315359519E+01 -0.19892364763E+03  0.20996906654E+03  0.00000000000E+00 0. -1.
         22    1    3    3    0    0  0.26923700053E+02 -0.66396804237E+01  0.84854464947E+00  0.27743305655E+02  0.00000000000E+00 0. -1.
</event>
<event>
 7    1  0.6273950E-006  0.5959740E+02  0.7818608E-02  0.1466269E+00
          2   -1    0    0  502    0  0.00000000000E+00  0.00000000000E+00  0.97233137216E+03  0.97233137216E+03  0.00000000000E+00 0. -1.
          1   -1    0    0  501    0 -0.00000000000E+00 -0.00000000000E+00 -0.11550372742E+03  0.11550372742E+03  0.00000000000E+00 0. -1.
         25    2    1    2    0    0  0.70215385623E+01 -0.24583725232E+02  0.41528556321E+03  0.43444022389E+03  0.12499018989E+03 0.  0.
          2    1    1    2  501    0 -0.29937236560E+02  0.52347852306E+02 -0.96693420906E+02  0.11395680506E+03  0.00000000000E+00 0. -1.
          1    1    1    2  502    0  0.22915697997E+02 -0.27764127074E+02  0.53823550243E+03  0.53943807063E+03  0.00000000000E+00 0. -1.
         22    1    3    3    0    0  0.64082891851E+02 -0.15086577529E+02  0.16707283196E+03  0.17957603690E+03  0.00000000000E+00 0. -1.
         22    1    3    3    0    0 -0.57061353288E+02 -0.94971477037E+01  0.24821273126E+03  0.25486418699E+03  0.00000000000E+00 0. -1.
</event>
<event>
 7    1  0.6273950E-006  0.7988003E+02  0.7818608E-02  0.1424806E+00
          2   -1    0    0  502    0  0.00000000000E+00  0.00000000000E+00  0.65077971040E+03  0.65077971040E+03  0.00000000000E+00 0. -1.
          1   -1    0    0  501    0 -0.00000000000E+00 -0.00000000000E+00 -0.11963729686E+03  0.11963729686E+03  0.00000000000E+00 0. -1.
         25    2    1    2    0    0 -0.34723064574E+02  0.46448402000E+02  0.20620889322E+02  0.13932913459E+03  0.12499696559E+03 0.  0.
          2    1    1    2  501    0 -0.35947618333E+02 -0.64826856059E+01 -0.51551867378E+02  0.63181100866E+02  0.00000000000E+00 0. -1.
          1    1    1    2  502    0  0.70670682907E+02 -0.39965716394E+02  0.56207339160E+03  0.56790677180E+03  0.00000000000E+00 0. -1.
         22    1    3    3    0    0 -0.16359137036E+02  0.79705313382E+02 -0.19920276057E+02  0.83769778226E+02  0.00000000000E+00 0.  1.
         22    1    3    3    0    0 -0.18363927538E+02 -0.33256911382E+02  0.40541165379E+02  0.55559356364E+02  0.00000000000E+00 0.  1.
</event>
<event>
 7    1  0.6273950E-006  0.1372016E+03  0.7818608E-02  0.1332399E+00
          2   -1    0    0  502    0  0.00000000000E+00  0.00000000000E+00  0.17867989752E+04  0.17867989752E+04  0.00000000000E+00 0. -1.
          1   -1    0    0  501    0 -0.00000000000E+00 -0.00000000000E+00 -0.15665778903E+03  0.15665778903E+03  0.00000000000E+00 0. -1.
         25    2    1    2    0    0 -0.91069118857E+02  0.76829256629E+02  0.47558969959E+02  0.17911897924E+03  0.12500173605E+03 0.  0.
          2    1    1    2  501    0  0.13426732534E+03 -0.63208891263E+02 -0.29762637623E+02  0.15135684057E+03  0.00000000000E+00 0. -1.
          1    1    1    2  502    0 -0.43198206488E+02 -0.13620365366E+02  0.16123448538E+04  0.16129809444E+04  0.00000000000E+00 0. -1.
         22    1    3    3    0    0 -0.12054531687E+03  0.57368477478E+02  0.21488362760E+02  0.13521858364E+03  0.00000000000E+00 0. -1.
         22    1    3    3    0    0  0.29476198009E+02  0.19460779151E+02  0.26070607198E+02  0.43900395601E+02  0.00000000000E+00 0. -1.
</event>
<event>
 7    1  0.6273950E-006  0.9734935E+02  0.7818608E-02  0.1350233E+00
          2   -1    0    0  502    0  0.00000000000E+00  0.00000000000E+00  0.15622424007E+03  0.15622424007E+03  0.00000000000E+00 0. -1.
          1   -1    0    0  501    0 -0.00000000000E+00 -0.00000000000E+00 -0.75457306036E+03  0.75457306036E+03  0.00000000000E+00 0. -1.
         25    2    1    2    0    0 -0.56648391954E+02  0.78888026732E+02 -0.56550796992E+03  0.58724510225E+03  0.12500073999E+03 0.  0.
          2    1    1    2  501    0  0.97622975145E+02 -0.42626948448E+02 -0.15593426357E+03  0.18884595988E+03  0.00000000000E+00 0. -1.
          1    1    1    2  502    0 -0.40974583192E+02 -0.36261078284E+02  0.12309341320E+03  0.13470623831E+03  0.00000000000E+00 0. -1.
         22    1    3    3    0    0 -0.17862054896E+02  0.10765290674E+03 -0.36223466327E+03  0.37831488553E+03  0.00000000000E+00 0.  1.
         22    1    3    3    0    0 -0.38786337058E+02 -0.28764880007E+02 -0.20327330664E+03  0.20893021672E+03  0.00000000000E+00 0.  1.
</event>
<event>
 7    1  0.6273950E-006  0.1407367E+03  0.7818608E-02  0.1344779E+00
          2   -1    0    0  502    0  0.00000000000E+00  0.00000000000E+00  0.40220759814E+02  0.40220759814E+02  0.00000000000E+00 0. -1.
          1   -1    0    0  501    0 -0.00000000000E+00 -0.00000000000E+00 -0.11626599690E+04  0.11626599690E+04  0.00000000000E+00 0. -1.
         25    2    1    2    0    0  0.95914732348E+02 -0.10247952627E+03 -0.27190844472E+03  0.33054705896E+03  0.12500186675E+03 0.  0.
          2    1    1    2  501    0 -0.29593322971E+02 -0.26399141798E+02 -0.31679685059E+03  0.31926935962E+03  0.00000000000E+00 0. -1.
          1    1    1    2  502    0 -0.66321409377E+02  0.12887866807E+03 -0.53373391384E+03  0.55306431019E+03  0.00000000000E+00 0. -1.
         22    1    3    3    0    0  0.27823329630E+02 -0.50836306879E+02 -0.15092798870E+02  0.59885393432E+02  0.00000000000E+00 0.  1.
         22    1    3    3    0    0  0.68091402719E+02 -0.51643219390E+02 -0.25681564585E+03  0.27066166553E+03  0.00000000000E+00 0.  1.
</event>
<event>
 7    1  0.7390344E-006  0.1059095E+03  0.7818608E-02  0.1301141E+00
          2   -1    0    0  502    0  0.00000000000E+00  0.00000000000E+00  0.12013711552E+04  0.12013711552E+04  0.00000000000E+00 0. -1.
          1   -1    0    0  501    0 -0.00000000000E+00 -0.00000000000E+00 -0.14184785544E+04  0.14184785544E+04  0.00000000000E+00 0. -1.
         25    2    1    2    0    0  0.10650051275E+03  0.56678461585E+02 -0.16246884160E+03  0.23785828245E+03  0.12500252324E+03 0.  0.
          2    1    1    2  501    0 -0.25355696372E+01 -0.77650873830E+02 -0.12146547363E+04  0.12171368928E+04  0.00000000000E+00 0. -1.
          1    1    1    2  502    0 -0.10396494311E+03  0.20972412244E+02  0.11600161787E+04  0.11648545344E+04  0.00000000000E+00 0. -1.
         22    1    3    3    0    0  0.89258450915E+02  0.26894100935E+02 -0.25521025461E+02  0.96652400205E+02  0.00000000000E+00 0. -1.
         22    1    3    3    0    0  0.17242061832E+02  0.29784360651E+02 -0.13694781614E+03  0.14120588225E+03  0.00000000000E+00 0. -1.
</event>
<event>
 7    1  0.6273950E-006  0.4720620E+02  0.7818608E-02  0.1568362E+00
          2   -1    0    0  502    0  0.00000000000E+00  0.00000000000E+00  0.13097495613E+04  0.13097495613E+04  0.00000000000E+00 0. -1.
          1   -1    0    0  501    0 -0.00000000000E+00 -0.00000000000E+00 -0.82876017694E+03  0.82876017694E+03  0.00000000000E+00 0. -1.
         25    2    1    2    0    0  0.32077161523E+02 -0.51250034456E+02 -0.24215891819E+02  0.14093412049E+03  0.12498202502E+03 0.  0.
          2    1    1    2  501    0 -0.22309394313E+02  0.51182481842E+01 -0.74556525979E+03  0.74591652492E+03  0.00000000000E+00 0. -1.
          1    1    1    2  502    0 -0.97677672105E+01  0.46131786271E+02  0.12507705360E+04  0.12516590929E+04  0.00000000000E+00 0. -1.
         22    1    3    3    0    0  0.78290911530E+02 -0.16985355072E+02 -0.49568435010E+01  0.80265430994E+02  0.00000000000E+00 0.  1.
         22    1    3    3    0    0 -0.46213750006E+02 -0.34264679384E+02 -0.19259048318E+02  0.60668689495E+02  0.00000000000E+00 0.  1.
</event>
<event>
 7    1  0.6273950E-006  0.6008053E+02  0.7818608E-02  0.1411822E+00
          2   -1    0    0  502    0  0.00000000000E+00  0.00000000000E+00  0.35963116613E+04  0.35963116613E+04  0.00000000000E+00 0. -1.
          1   -1    0    0  501    0 -0.00000000000E+00 -0.00000000000E+00 -0.26903132241E+03  0.26903132241E+03  0.00000000000E+00 0. -1.
         25    2    1    2    0    0  0.10298275651E+03 -0.47983808024E+02 -0.28441159041E+02  0.17129784010E+03  0.12500462601E+03 0.  0.
          2    1    1    2  501    0 -0.48350610791E+02  0.23314295951E+02 -0.16464197527E+03  0.17317135439E+03  0.00000000000E+00 0. -1.
          1    1    1    2  502    0 -0.54632145716E+02  0.24669512073E+02  0.35203634732E+04  0.35208737892E+04  0.00000000000E+00 0. -1.
         22    1    3    3    0    0  0.15335751656E+01 -0.57734392899E+02 -0.37686111433E+02  0.68962707104E+02  0.00000000000E+00 0.  1.
         22    1    3    3    0    0  0.10144918134E+03  0.97505848747E+01  0.92449523919E+01  0.10233513299E+03  0.00000000000E+00 0.  1.
</event>
<event>
 7    1  0.6273950E-006  0.1542815E+03  0.7818608E-02  0.1234152E+00
          2   -1    0    0  502    0  0.00000000000E+00  0.00000000000E+00  0.32279826346E+03  0.32279826346E+03  0.00000000000E+00 0. -1.
          1   -1    0    0  501    0 -0.00000000000E+00 -0.00000000000E+00 -0.68392969082E+03  0.68392969082E+03  0.00000000000E+00 0. -1.
         25    2    1    2    0    0 -0.17674353874E+01  0.21437497193E+01  0.32790066887E+02  0.12925900221E+03  0.12499992670E+03 0.  0.
          2    1    1    2  501    0 -0.11306876615E+03  0.10496781885E+03 -0.59935289499E+03  0.61889149421E+03  0.00000000000E+00 0. -1.
          1    1    1    2  502    0  0.11483620154E+03 -0.10711156857E+03  0.20543140074E+03  0.25857745786E+03  0.00000000000E+00 0. -1.
         22    1    3    3    0    0 -0.17266182828E+02  0.36684676092E+02  0.66948026791E+02  0.78268287452E+02  0.00000000000E+00 0.  1.
         22    1    3    3    0    0  0.15498747440E+02 -0.34540926372E+02 -0.34157959904E+02  0.50990714760E+02  0.00000000000E+00 0.  1.
</event>
<event>
 7    1  0.6273950E-006  0.1690412E+03  0.7818608E-02  0.1289055E+00
          2   -1    0    0  502    0  0.00000000000E+00  0.00000000000E+00  0.32593713996E+03  0.32593713996E+03  0.00000000000E+00 0. -1.
          1   -1    0    0  501    0 -0.00000000000E+00 -0.00000000000E+00 -0.11871099645E+04  0.11871099645E+04  0.00000000000E+00 0. -1.
         25    2    1    2    0    0  0.16799230199E+03  0.34361165272E+02  0.15161435231E+03  0.26079453382E+03  0.12499909535E+03 0.  0.
          2    1    1    2  501    0 -0.19765040549E+02  0.50747289318E+02 -0.10704729498E+04  0.10718573975E+04  0.00000000000E+00 0. -1.
          1    1    1    2  502    0 -0.14822726144E+03 -0.85108454590E+02  0.57685773027E+02  0.18039517313E+03  0.00000000000E+00 0. -1.
         22    1    3    3    0    0  0.84652388055E+02  0.66479050223E-01  0.14812360436E+03  0.17060666280E+03  0.00000000000E+00 0. -1.
         22    1    3    3    0    0  0.83339913935E+02  0.34294686221E+02  0.34907479452E+01  0.90187871019E+02  0.00000000000E+00 0. -1.
</event>
<event>
 7    1  0.6273950E-006  0.1835514E+03  0.7818608E-02  0.1349467E+00
          2   -1    0    0  502    0  0.00000000000E+00  0.00000000000E+00  0.64978922016E+03  0.64978922016E+03  0.00000000000E+00 0. -1.
          1   -1    0    0  501    0 -0.00000000000E+00 -0.00000000000E+00 -0.13946489653E+04  0.13946489653E+04  0.00000000000E+00 0. -1.
         25    2    1    2    0    0 -0.43784990894E+02 -0.15114595446E+03 -0.58401993900E+03  0.61762985625E+03  0.12500050081E+03 0.  0.
          2    1    1    2  501    0 -0.19436077128E+02 -0.21804668487E+02 -0.78015252613E+03  0.78069915377E+03  0.00000000000E+00 0. -1.
          1    1    1    2  502    0  0.63221068022E+02  0.17295062295E+03  0.61931272000E+03  0.64610917543E+03  0.00000000000E+00 0. -1.
         22    1    3    3    0    0 -0.50597873087E+00  0.38782348683E+01 -0.21501299855E+03  0.21504856723E+03  0.00000000000E+00 0. -1.
         22    1    3    3    0    0 -0.43279012163E+02 -0.15502418933E+03 -0.36900694045E+03  0.40258128902E+03  0.00000000000E+00 0. -1.
</event>
<event>
 7    1  0.6273950E-006  0.2118632E+03  0.7818608E-02  0.1275227E+00
          2   -1    0    0  502    0  0.00000000000E+00  0.00000000000E+00  0.99032551622E+03  0.99032551622E+03  0.00000000000E+00 0. -1.
          1   -1    0    0  501    0 -0.00000000000E+00 -0.00000000000E+00 -0.15873731008E+04  0.15873731008E+04  0.00000000000E+00 0. -1.
         25    2    1    2    0    0  0.14262940337E+03  0.20413303346E+03 -0.16599332601E+03  0.32433226244E+03  0.12499676045E+03 0.  0.
          2    1    1    2  501    0 -0.13940588767E+03 -0.15469657400E+03 -0.13334496040E+04  0.13496121213E+04  0.00000000000E+00 0. -1.
          1    1    1    2  502    0 -0.32235156995E+01 -0.49436459464E+02  0.90239534547E+03  0.90375423325E+03  0.00000000000E+00 0. -1.
         22    1    3    3    0    0  0.78762443953E+02  0.14223438566E+03 -0.35507726108E+02  0.16641797275E+03  0.00000000000E+00 0. -1.
         22    1    3    3    0    0  0.63866959415E+02  0.61898647798E+02 -0.13048559990E+03  0.15791428968E+03  0.00000000000E+00 0. -1.
</event>
<event>
 7    1  0.6273950E-006  0.3933733E+02  0.7818608E-02  0.1590688E+00
          2   -1    0    0  502    0  0.00000000000E+00  0.00000000000E+00  0.16500418040E+04  0.16500418040E+04  0.00000000000E+00 0. -1.
          1   -1    0    0  501    0 -0.00000000000E+00 -0.00000000000E+00 -0.59260574050E+02  0.59260574050E+02  0.00000000000E+00 0. -1.
         25    2    1    2    0    0 -0.50580314170E+02  0.76138096901E+01  0.16122599883E+03  0.21032136014E+03  0.12499965421E+03 0.  0.
          2    1    1    2  501    0  0.31811704583E+02 -0.22456683475E+02 -0.23663124808E+02  0.45565674107E+02  0.00000000000E+00 0. -1.
          1    1    1    2  502    0  0.18768609587E+02  0.14842873785E+02  0.14532183560E+04  0.14534153438E+04  0.00000000000E+00 0. -1.
         22    1    3    3    0    0 -0.57497926391E+02 -0.31905992818E+00  0.17991096774E+03  0.18887580483E+03  0.00000000000E+00 0.  1.
         22    1    3    3    0    0  0.69176122219E+01  0.79328696183E+01 -0.18684968908E+02  0.21445555305E+02  0.00000000000E+00 0.  1.
</event>
<event>
 7    1  0.6273950E-006  0.1206043E+03  0.7818608E-02  0.1421061E+00
          2   -1    0    0  502    0  0.00000000000E+00  0.00000000000E+00  0.13043893408E+04  0.13043893408E+04  0.00000000000E+00 0. -1.
          1   -1    0    0  501    0 -0.00000000000E+00 -0.00000000000E+00 -0.15670927049E+04  0.15670927049E+04  0.00000000000E+00 0. -1.
         25    2    1    2    0    0 -0.10836986299E+03  0.81932216382E+01  0.35760009216E+01  0.16567678805E+03  0.12499941692E+03 0.  0.
          2    1    1    2  501    0  0.11680226910E+03 -0.31618942138E+02 -0.14834514530E+04  0.14883785611E+04  0.00000000000E+00 0. -1.
          1    1    1    2  502    0 -0.84324061109E+01  0.23425720500E+02  0.12171720880E+04  0.12174266966E+04  0.00000000000E+00 0. -1.
         22    1    3    3    0    0 -0.12362955975E+03 -0.78381799448E+01 -0.28109175626E+02  0.12702689032E+03  0.00000000000E+00 0.  1.
         22    1    3    3    0    0  0.15259696762E+02  0.16031401583E+02  0.31685176547E+02  0.38649897733E+02  0.00000000000E+00 0.  1.
</event>
<event>
 7    1  0.6273950E-006  0.1169621E+03  0.7818608E-02  0.1306399E+00
          2   -1    0    0  502    0  0.00000000000E+00  0.00000000000E+00  0.35766771537E+04  0.35766771537E+04  0.00000000000E+00 0. -1.
          1   -1    0    0  501    0 -0.00000000000E+00 -0.00000000000E+00 -0.28045995606E+03  0.28045995606E+03  0.00000000000E+00 0. -1.
         25    2    1    2    0    0  0.12146791055E+03 -0.38395399991E+02  0.83938870762E+03  0.85815330791E+03  0.12500014942E+03 0.  0.
          2    1    1    2  501    0 -0.76791525711E+02  0.88381173733E+02 -0.25800220970E+03  0.28332544979E+03  0.00000000000E+00 0. -1.
          1    1    1    2  502    0 -0.44676384836E+02 -0.49985773741E+02  0.27148306997E+04  0.27156583520E+04  0.00000000000E+00 0. -1.
         22    1    3    3    0    0  0.71016129530E+02 -0.51895046256E+02  0.74588032966E+03  0.75104850219E+03  0.00000000000E+00 0. -1.
         22    1    3    3    0    0  0.50451781017E+02  0.13499646265E+02  0.93508377966E+02  0.10710480571E+03  0.00000000000E+00 0. -1.
</event>
<event>
 7    1  0.6273950E-006  0.6269872E+02  0.7818608E-02  0.1440657E+00
          2   -1    0    0  502    0  0.00000000000E+00  0.00000000000E+00  0.44512456051E+03  0.44512456051E+03  0.00000000000E+00 0. -1.
          1   -1    0    0  501    0 -0.00000000000E+00 -0.00000000000E+00 -0.12388713449E+04  0.12388713449E+04  0.00000000000E+00 0. -1.
         25    2    1    2    0    0 -0.42263089518E+02  0.12738021619E+02 -0.12244194034E+03  0.18046120273E+03  0.12500316398E+03 0.  0.
          2    1    1    2  501    0 -0.15508264449E+02 -0.38264190273E+02 -0.10846280967E+04  0.10854136367E+04  0.00000000000E+00 0. -1.
          1    1    1    2  502    0  0.57771353967E+02  0.25526168654E+02  0.41332325267E+03  0.41812106599E+03  0.00000000000E+00 0. -1.
         22    1    3    3    0    0 -0.83289516749E+02  0.25282360061E+02 -0.98047161444E+02  0.13110906604E+03  0.00000000000E+00 0.  1.
         22    1    3    3    0    0  0.41026427231E+02 -0.12544338442E+02 -0.24394778894E+02  0.49352136687E+02  0.00000000000E+00 0.  1.
</event>
<event>
 7    1  0.6273950E-006  0.8990151E+02  0.7818608E-02  0.1344000E+00
          2   -1    0    0  502    0  0.00000000000E+00  0.00000000000E+00  0.21280590736E+04  0.21280590736E+04  0.00000000000E+00 0. -1.
          1   -1    0    0  501    0 -0.00000000000E+00 -0.00000000000E+00 -0.26394281204E+04  0.26394281204E+04  0.00000000000E+00 0. -1.
         25    2    1    2    0    0  0.15104222534E+02 -0.27497232066E+01  0.11971829732E+04  0.12037892682E+04  0.12500332994E+03 0.  0.
          2    1    1    2  501    0  0.89803941531E+02 -0.41872837190E+01 -0.26323759069E+04  0.26339106280E+04  0.00000000000E+00 0. -1.
          1    1    1    2  502    0 -0.10490816407E+03  0.69370069256E+01  0.92382388693E+03  0.92978729773E+03  0.00000000000E+00 0. -1.
         22    1    3    3    0    0 -0.89775177927E+01 -0.60954946290E+02  0.50455816313E+03  0.50830605080E+03  0.00000000000E+00 0. -1.
         22    1    3    3    0    0  0.24081740327E+02  0.58205223084E+02  0.69262481005E+03  0.69548321742E+03  0.00000000000E+00 0. -1.
</event>
<event>
 7    1  0.6273950E-006  0.7615456E+02  0.7818608E-02  0.1353361E+00
          2   -1    0    0  502    0  0.00000000000E+00  0.00000000000E+00  0.23075808363E+04  0.23075808363E+04  0.00000000000E+00 0. -1.
          1   -1    0    0  501    0 -0.00000000000E+00 -0.00000000000E+00 -0.89510645164E+03  0.89510645164E+03  0.00000000000E+00 0. -1.
         25    2    1    2    0    0 -0.29373455017E+02  0.56963937580E+02  0.16036170437E+04  0.16097580839E+04  0.12500310347E+03 0.  0.
          2    1    1    2  501    0 -0.38135521456E+02 -0.65966789406E+02 -0.88874738473E+03  0.89200776295E+03  0.00000000000E+00 0. -1.
          1    1    1    2  502    0  0.67508976472E+02  0.90028518258E+01  0.69760472570E+03  0.70092144108E+03  0.00000000000E+00 0. -1.
         22    1    3    3    0    0  0.85491374433E+01  0.77247716307E+02  0.57331937053E+03  0.57856321872E+03  0.00000000000E+00 0. -1.
         22    1    3    3    0    0 -0.37922592460E+02 -0.20283778727E+02  0.10302976731E+04  0.10311948652E+04  0.00000000000E+00 0. -1.
</event>
<event>
 7    1  0.6273950E-006  0.5980303E+02  0.7818608E-02  0.1458746E+00
          2   -1    0    0  502    0  0.00000000000E+00  0.00000000000E+00  0.11698810814E+04  0.11698810814E+04  0.00000000000E+00 0. -1.
          1   -1    0    0  501    0 -0.00000000000E+00 -0.00000000000E+00 -0.25583678802E+03  0.25583678802E+03  0.00000000000E+00 0. -1.
         25    2    1    2    0    0 -0.13499983219E+01  0.85995010079E+02 -0.13604596869E+03  0.20378786069E+03  0.12499608919E+03 0.  0.
          2    1    1    2  501    0  0.16569114211E+02 -0.51302841962E+02 -0.77113165153E+02  0.94090155590E+02  0.00000000000E+00 0. -1.
          1    1    1    2  502    0 -0.15219115889E+02 -0.34692168117E+02  0.11272034272E+04  0.11278398532E+04  0.00000000000E+00 0. -1.
         22    1    3    3    0    0  0.25386589302E+02 -0.21530617144E+02 -0.62466276195E+02  0.70781933095E+02  0.00000000000E+00 0. -1.
         22    1    3    3    0    0 -0.26736587624E+02  0.10752562722E+03 -0.73579692492E+02  0.13300592759E+03  0.00000000000E+00 0. -1.
</event>
<event>
 7    1  0.6273950E-006  0.1220246E+03  0.7818608E-02  0.1402766E+00
          2   -1    0    0  502    0  0.00000000000E+00  0.00000000000E+00  0.25359054026E+04  0.25359054026E+04  0.00000000000E+00 0. -1.
          1   -1    0    0  501    0 -0.00000000000E+00 -0.00000000000E+00 -0.80464996538E+03  0.80464996538E+03  0.00000000000E+00 0. -1.
         25    2    1    2    0    0  0.54730264981E+02 -0.13506351025E+03  0.19795269745E+03  0.27578384814E+03  0.12503562197E+03 0.  0.
          2    1    1    2  501    0  0.23470932694E+01  0.28275064774E+02 -0.76387652397E+03  0.76440325222E+03  0.00000000000E+00 0. -1.
          1    1    1    2  502    0 -0.57077358251E+02  0.10678844548E+03  0.22971792638E+04  0.23003682676E+04  0.00000000000E+00 0. -1.
         22    1    3    3    0    0 -0.90880928343E+01  0.15543594671E+02 -0.12277675670E+01  0.18047276245E+02  0.00000000000E+00 0. -1.
         22    1    3    3    0    0  0.63818357816E+02 -0.15060710493E+03  0.19918046502E+03  0.25773657190E+03  0.00000000000E+00 0. -1.
</event>
<event>
 7    1  0.6273950E-006  0.8722743E+02  0.7818608E-02  0.1331118E+00
          2   -1    0    0  502    0  0.00000000000E+00  0.00000000000E+00  0.32463162914E+03  0.32463162914E+03  0.00000000000E+00 0. -1.
          1   -1    0    0  501    0 -0.00000000000E+00 -0.00000000000E+00 -0.26083493293E+04  0.26083493293E+04  0.00000000000E+00 0. -1.
         25    2    1    2    0    0 -0.60147504041E+02 -0.20673052834E+02 -0.14461165250E+03  0.20145132090E+03  0.12500002919E+03 0.  0.
          2    1    1    2  501    0  0.73017256165E+02 -0.50217746737E+02 -0.24301169438E+04  0.24317322432E+04  0.00000000000E+00 0. -1.
          1    1    1    2  502    0 -0.12869752124E+02  0.70890799571E+02  0.29101089617E+03  0.29979739437E+03  0.00000000000E+00 0. -1.
         22    1    3    3    0    0 -0.49250362254E+02  0.44680607387E+01  0.46728567649E+01  0.49672903472E+02  0.00000000000E+00 0.  1.
         22    1    3    3    0    0 -0.10897141786E+02 -0.25141113573E+02 -0.14928450927E+03  0.15177841743E+03  0.00000000000E+00 0.  1.
</event>
<event>
 7    1  0.6273950E-006  0.2775864E+02  0.7818608E-02  0.1650447E+00
          2   -1    0    0  502    0  0.00000000000E+00  0.00000000000E+00  0.65771931845E+02  0.65771931845E+02  0.00000000000E+00 0. -1.
          1   -1    0    0  501    0 -0.00000000000E+00 -0.00000000000E+00 -0.10245739228E+04  0.10245739228E+04  0.00000000000E+00 0. -1.
         25    2    1    2    0    0  0.30430895254E+01  0.90095908709E+01 -0.19600163503E+03  0.23266368993E+03  0.12500127422E+03 0.  0.
          2    1    1    2  501    0 -0.26907294819E+02 -0.79418008569E+01 -0.80697485597E+03  0.80746237861E+03  0.00000000000E+00 0. -1.
          1    1    1    2  502    0  0.23864205294E+02 -0.10677900140E+01  0.44174499999E+02  0.50219786140E+02  0.00000000000E+00 0. -1.
         22    1    3    3    0    0  0.23618803964E+02  0.39288407616E+02 -0.19014140655E+03  0.19558931811E+03  0.00000000000E+00 0. -1.
         22    1    3    3    0    0 -0.20575714438E+02 -0.30278816745E+02 -0.58602284786E+01  0.37074371821E+02  0.00000000000E+00 0. -1.
</event>
<event>
 7    1  0.6273950E-006  0.9526054E+02  0.7818608E-02  0.1307894E+00
          2   -1    0    0  502    0  0.00000000000E+00  0.00000000000E+00  0.22162980108E+03  0.22162980108E+03  0.00000000000E+00 0. -1.
          1   -1    0    0  501    0 -0.00000000000E+00 -0.00000000000E+00 -0.88177531017E+03  0.88177531017E+03  0.00000000000E+00 0. -1.
         25    2    1    2    0    0  0.62494053120E+02 -0.64964863061E+02 -0.45375863374E+02  0.16065567573E+03  0.12500134824E+03 0.  0.
          2    1    1    2  501    0  0.37684121795E+02  0.71925871564E+02 -0.76102143169E+03  0.76534112886E+03  0.00000000000E+00 0. -1.
          1    1    1    2  502    0 -0.10017817492E+03 -0.69610085035E+01  0.14625178598E+03  0.17740830665E+03  0.00000000000E+00 0. -1.
         22    1    3    3    0    0  0.99632622490E+02 -0.33058324585E+02 -0.34523775043E+02  0.11050521857E+03  0.00000000000E+00 0. -1.
         22    1    3    3    0    0 -0.37138569370E+02 -0.31906538476E+02 -0.10852088331E+02  0.50150457161E+02  0.00000000000E+00 0. -1.
</event>
<event>
 7    1  0.6273950E-006  0.8942656E+02  0.7818608E-02  0.1380100E+00
          2   -1    0    0  502    0  0.00000000000E+00  0.00000000000E+00  0.62497881076E+03  0.62497881076E+03  0.00000000000E+00 0. -1.
          1   -1    0    0  501    0 -0.00000000000E+00 -0.00000000000E+00 -0.19901983826E+03  0.19901983826E+03  0.00000000000E+00 0. -1.
         25    2    1    2    0    0  0.10519392943E+03  0.68625102978E+02  0.16582440489E+03  0.24268899544E+03  0.12500019082E+03 0.  0.
          2    1    1    2  501    0 -0.24771180782E+02 -0.39271475577E+02 -0.15274568213E+03  0.15964680893E+03  0.00000000000E+00 0. -1.
          1    1    1    2  502    0 -0.80422748644E+02 -0.29353627401E+02  0.41288024973E+03  0.42166284465E+03  0.00000000000E+00 0. -1.
         22    1    3    3    0    0  0.11089878255E+03  0.89580672603E+02  0.10205822370E+03  0.17532574797E+03  0.00000000000E+00 0. -1.
         22    1    3    3    0    0 -0.57048531208E+01 -0.20955569625E+02  0.63766181187E+02  0.67363247476E+02  0.00000000000E+00 0. -1.
</event>
<event>
 7    1  0.6273950E-006  0.7588290E+02  0.7818608E-02  0.1415410E+00
          2   -1    0    0  502    0  0.00000000000E+00  0.00000000000E+00  0.10604621841E+03  0.10604621841E+03  0.00000000000E+00 0. -1.
          1   -1    0    0  501    0 -0.00000000000E+00 -0.00000000000E+00 -0.39251493454E+03  0.39251493454E+03  0.00000000000E+00 0. -1.
         25    2    1    2    0    0  0.94718464272E+02  0.26751006207E+01 -0.13092822784E+03  0.20431789593E+03  0.12499943246E+03 0.  0.
          2    1    1    2  501    0 -0.68005705448E+02  0.28865786413E+02 -0.21186713479E+03  0.22437845798E+03  0.00000000000E+00 0. -1.
          1    1    1    2  502    0 -0.26712758823E+02 -0.31540887034E+02  0.56326646499E+02  0.69864799038E+02  0.00000000000E+00 0. -1.
         22    1    3    3    0    0 -0.24020627166E+02 -0.25212500010E+02 -0.31496226046E+02  0.46953944897E+02  0.00000000000E+00 0.  1.
         22    1    3    3    0    0  0.11873909144E+03  0.27887600631E+02 -0.99432001794E+02  0.15736395103E+03  0.00000000000E+00 0.  1.
</event>
<event>
 7    1  0.6273950E-006  0.8370712E+02  0.7818608E-02  0.1327652E+00
          2   -1    0    0  502    0  0.00000000000E+00  0.00000000000E+00  0.19423860339E+04  0.19423860339E+04  0.00000000000E+00 0. -1.
          1   -1    0    0  501    0 -0.00000000000E+00 -0.00000000000E+00 -0.20975217758E+03  0.20975217758E+03  0.00000000000E+00 0. -1.
         25    2    1    2    0    0  0.58193354549E+02 -0.11605922727E+03  0.91325841100E+03  0.93087317000E+03  0.12501088998E+03 0.  0.
          2    1    1    2  501    0  0.11641462600E+02  0.82669696121E+02 -0.19072834779E+03  0.20819967570E+03  0.00000000000E+00 0. -1.
          1    1    1    2  502    0 -0.69834817148E+02  0.33389531152E+02  0.10101037931E+04  0.10130653657E+04  0.00000000000E+00 0. -1.
         22    1    3    3    0    0 -0.84261649613E+01 -0.98426530511E+02  0.35887993107E+03  0.37222786985E+03  0.00000000000E+00 0. -1.
         22    1    3    3    0    0  0.66619519510E+02 -0.17632696762E+02  0.55437847993E+03  0.55864530015E+03  0.00000000000E+00 0. -1.
</event>
<event>
 7    1  0.6273950E-006  0.6183607E+02  0.7818608E-02  0.1438152E+00
          2   -1    0    0  502    0  0.00000000000E+00  0.00000000000E+00  0.13277273205E+04  0.13277273205E+04  0.00000000000E+00 0. -1.
          1   -1    0    0  501    0 -0.00000000000E+00 -0.00000000000E+00 -0.69877093545E+03  0.69877093545E+03  0.00000000000E+00 0. -1.
         25    2    1    2    0    0 -0.31783209051E+02 -0.41829450624E+02  0.11519086929E+03  0.17791505981E+03  0.12499982729E+03 0.  0.
          2    1    1    2  501    0  0.61107646743E+02  0.10852825692E+02 -0.66557956954E+03  0.66846697129E+03  0.00000000000E+00 0. -1.
          1    1    1    2  502    0 -0.29324437692E+02  0.30976624932E+02  0.11793450853E+04  0.11801162249E+04  0.00000000000E+00 0. -1.
         22    1    3    3    0    0 -0.32824423340E+02 -0.51367499410E+02  0.13925253758E+03  0.15201096008E+03  0.00000000000E+00 0.  1.
         22    1    3    3    0    0  0.10412142889E+01  0.95380487858E+01 -0.24061668288E+02  0.25904099727E+02  0.00000000000E+00 0.  1.
</event>
<event>
 7    1  0.6273950E-006  0.8125276E+02  0.7818608E-02  0.1495067E+00
          2   -1    0    0  502    0  0.00000000000E+00  0.00000000000E+00  0.47790254431E+03  0.47790254431E+03  0.00000000000E+00 0. -1.
          1   -1    0    0  501    0 -0.00000000000E+00 -0.00000000000E+00 -0.76713303153E+03  0.76713303153E+03  0.00000000000E+00 0. -1.
         25    2    1    2    0    0 -0.28863103894E+02 -0.74908667568E+02 -0.75194487335E+01  0.14874948547E+03  0.12500192028E+03 0.  0.
          2    1    1    2  501    0  0.20660659476E+02 -0.61219167344E+01 -0.68475579079E+03  0.68509476259E+03  0.00000000000E+00 0. -1.
          1    1    1    2  502    0  0.82024444180E+01  0.81030584302E+02  0.40304475230E+03  0.41119132778E+03  0.00000000000E+00 0. -1.
         22    1    3    3    0    0  0.41613599433E+02 -0.20033927005E+02  0.26408516663E+02  0.53202064258E+02  0.00000000000E+00 0. -1.
         22    1    3    3    0    0 -0.70476703327E+02 -0.54874740563E+02 -0.33927965397E+02  0.95547421209E+02  0.00000000000E+00 0. -1.
</event>
<event>
 7    1  0.6273950E-006  0.4052292E+02  0.7818608E-02  0.1510254E+00
          2   -1    0    0  502    0  0.00000000000E+00  0.00000000000E+00  0.52451432846E+03  0.52451432846E+03  0.00000000000E+00 0. -1.
          1   -1    0    0  501    0 -0.00000000000E+00 -0.00000000000E+00 -0.34304032107E+03  0.34304032107E+03  0.00000000000E+00 0. -1.
         25    2    1    2    0    0 -0.37352889847E+02 -0.63959638035E+02  0.11669393023E+03  0.18635610869E+03  0.12500020886E+03 0.  0.
          2    1    1    2  501    0  0.29805908686E+02  0.25059324503E+02 -0.30591909447E+03  0.30838750672E+03  0.00000000000E+00 0. -1.
          1    1    1    2  502    0  0.75469811617E+01  0.38900313532E+02  0.37069917163E+03  0.37281103412E+03  0.00000000000E+00 0. -1.
         22    1    3    3    0    0  0.92584824089E+01  0.68652155607E+01  0.99093921764E+02  0.99761996831E+02  0.00000000000E+00 0. -1.
         22    1    3    3    0    0 -0.46611372256E+02 -0.70824853596E+02  0.17600008470E+02  0.86594111859E+02  0.00000000000E+00 0. -1.
</event>
<event>
 7    1  0.6273950E-006  0.1335894E+03  0.7818608E-02  0.1235657E+00
          2   -1    0    0  502    0  0.00000000000E+00  0.00000000000E+00  0.14092339893E+03  0.14092339893E+03  0.00000000000E+00 0. -1.
          1   -1    0    0  501    0 -0.00000000000E+00 -0.00000000000E+00 -0.59111061454E+03  0.59111061454E+03  0.00000000000E+00 0. -1.
         25    2    1    2    0    0  0.15911651850E+02 -0.20504662414E+02 -0.12953518441E+03  0.18187439010E+03  0.12500123170E+03 0.  0.
          2    1    1    2  501    0  0.13358691424E+03  0.81476431988E+00 -0.36849456772E+03  0.39196220984E+03  0.00000000000E+00 0. -1.
          1    1    1    2  502    0 -0.14949856609E+03  0.19689898094E+02  0.47842536523E+02  0.15819741354E+03  0.00000000000E+00 0. -1.
         22    1    3    3    0    0  0.22080704120E+02 -0.74868442044E+01  0.20562258388E+02  0.31087244982E+02  0.00000000000E+00 0.  1.
         22    1    3    3    0    0 -0.61690522699E+01 -0.13017818210E+02 -0.15009744280E+03  0.15078714511E+03  0.00000000000E+00 0.  1.
</event>
<event>
 7    1  0.6273950E-006  0.5116953E+02  0.7818608E-02  0.1458357E+00
          2   -1    0    0  502    0  0.00000000000E+00  0.00000000000E+00  0.16895403279E+02  0.16895403279E+02  0.00000000000E+00 0. -1.
          1   -1    0    0  501    0 -0.00000000000E+00 -0.00000000000E+00 -0.17976875369E+04  0.17976875369E+04  0.00000000000E+00 0. -1.
         25    2    1    2    0    0 -0.81070552460E+00 -0.26134415557E+02 -0.39224543877E+03  0.41250713864E+03  0.12498796051E+03 0.  0.
          2    1    1    2  501    0 -0.38234231906E+02 -0.22574433924E+02 -0.12419163808E+04  0.12427098449E+04  0.00000000000E+00 0. -1.
          1    1    1    2  502    0  0.39044937431E+02  0.48708849481E+02 -0.14663031406E+03  0.15936595671E+03  0.00000000000E+00 0. -1.
         22    1    3    3    0    0  0.45958160743E+02 -0.29423502310E+02 -0.33052077119E+03  0.33499533611E+03  0.00000000000E+00 0. -1.
         22    1    3    3    0    0 -0.46768866268E+02  0.32890867522E+01 -0.61724667575E+02  0.77511802527E+02  0.00000000000E+00 0. -1.
</event>
<event>
 7    1  0.6273950E-006  0.1301791E+03  0.7818608E-02  0.1422180E+00
          2   -1    0    0  502    0  0.00000000000E+00  0.00000000000E+00  0.12688911033E+04  0.12688911033E+04  0.00000000000E+00 0. -1.
          1   -1    0    0  501    0 -0.00000000000E+00 -0.00000000000E+00 -0.92983497614E+03  0.92983497614E+03  0.00000000000E+00 0. -1.
         25    2    1    2    0    0  0.40334344676E+02 -0.14302290407E+03 -0.71309265444E+01  0.19431232261E+03  0.12499607256E+03 0.  0.
          2    1    1    2  501    0 -0.16670037149E+02  0.15655493205E+02 -0.82538467170E+03  0.82570142357E+03  0.00000000000E+00 0. -1.
          1    1    1    2  502    0 -0.23664307527E+02  0.12736741087E+03  0.11715717254E+04  0.11787123333E+04  0.00000000000E+00 0. -1.
         22    1    3    3    0    0  0.13097625007E+02 -0.15201854452E+03 -0.32516954149E+02  0.15600813429E+03  0.00000000000E+00 0. -1.
         22    1    3    3    0    0  0.27236719669E+02  0.89956404447E+01  0.25386027605E+02  0.38304188320E+02  0.00000000000E+00 0. -1.
</event>
<event>
 7    1  0.6273950E-006  0.8100408E+02  0.7818608E-02  0.1357151E+00
          2   -1    0    0  502    0  0.00000000000E+00  0.00000000000E+00  0.23993132555E+04  0.23993132555E+04  0.00000000000E+00 0. -1.
          1   -1    0    0  501    0 -0.00000000000E+00 -0.00000000000E+00 -0.26741925010E+03  0.26741925010E+03  0.00000000000E+00 0. -1.
         25    2    1    2    0    0  0.11029600581E+03  0.90066446039E+02  0.64600308231E+03  0.67321767700E+03  0.12499953864E+03 0.  0.
          2    1    1    2  501    0 -0.63034518906E+02 -0.49924384526E+02 -0.24687474427E+03  0.25964000867E+03  0.00000000000E+00 0. -1.
          1    1    1    2  502    0 -0.47261486906E+02 -0.40142061513E+02  0.17327656674E+04  0.17338748200E+04  0.00000000000E+00 0. -1.
         22    1    3    3    0    0 -0.14843046950E+02  0.51522970203E+02  0.12504203948E+03  0.13605309309E+03  0.00000000000E+00 0. -1.
         22    1    3    3    0    0  0.12513905276E+03  0.38543475836E+02  0.52096104283E+03  0.53716458391E+03  0.00000000000E+00 0. -1.
</event>
<event>
 7    1  0.6273950E-006  0.3250666E+02  0.7818608E-02  0.1617422E+00
          2   -1    0    0  502    0  0.00000000000E+00  0.00000000000E+00  0.10140161010E+03  0.10140161010E+03  0.00000000000E+00 0. -1.
          1   -1    0    0  501    0 -0.00000000000E+00 -0.00000000000E+00 -0.84724111947E+03  0.84724111947E+03  0.00000000000E+00 0. -1.
         25    2    1    2    0    0 -0.51730124866E+02  0.23237293790E+02 -0.15977104459E+03  0.21063677333E+03  0.12500034379E+03 0.  0.
          2    1    1    2  501    0  0.22860392773E+02 -0.92869669130E+01 -0.65841257862E+03  0.65887477490E+03  0.00000000000E+00 0. -1.
          1    1    1    2  502    0  0.28869732093E+02 -0.13950326877E+02  0.72344113846E+02  0.79131181334E+02  0.00000000000E+00 0. -1.
         22    1    3    3    0    0 -0.15262866169E+02  0.73552846677E+02 -0.87992126481E+02  0.11569611342E+03  0.00000000000E+00 0.  1.
         22    1    3    3    0    0 -0.36467258696E+02 -0.50315552888E+02 -0.71778918107E+02  0.94940659908E+02  0.00000000000E+00 0.  1.
</event>
<event>
 7    1  0.6273950E-006  0.5579031E+02  0.7818608E-02  0.1473158E+00
          2   -1    0    0  502    0  0.00000000000E+00  0.00000000000E+00  0.38660834620E+03  0.38660834620E+03  0.00000000000E+00 0. -1.
          1   -1    0    0  501    0 -0.00000000000E+00 -0.00000000000E+00 -0.36694237592E+02  0.36694237592E+02  0.00000000000E+00 0. -1.
         25    2    1    2    0    0 -0.30548709362E+01  0.38317957120E+02  0.17080593247E+03  0.21512122140E+03  0.12499950102E+03 0.  0.
          2    1    1    2  501    0 -0.25075635186E+02 -0.61738565916E+02  0.91147127112E+02  0.11290808998E+03  0.00000000000E+00 0. -1.
          1    1    1    2  502    0  0.28130506122E+02  0.23420608796E+02  0.87961049023E+02  0.95273272413E+02  0.00000000000E+00 0. -1.
         22    1    3    3    0    0 -0.43387806252E+02  0.39841641771E+02  0.16391172663E+03  0.17417494733E+03  0.00000000000E+00 0.  1.
         22    1    3    3    0    0  0.40332935316E+02 -0.15236846506E+01  0.68942058407E+01  0.40946274071E+02  0.00000000000E+00 0.  1.
</event>
<event>
 7    1  0.6273950E-006  0.1443488E+03  0.7818608E-02  0.1397109E+00
          2   -1    0    0  502    0  0.00000000000E+00  0.00000000000E+00  0.10797467674E+04  0.10797467674E+04  0.00000000000E+00 0. -1.
          1   -1    0    0  501    0 -0.00000000000E+00 -0.00000000000E+00 -0.32574826601E+04  0.32574826601E+04  0.00000000000E+00 0. -1.
         25    2    1    2    0    0  0.14196576555E+03 -0.23857690182E+02  0.99691883125E+02  0.21514390527E+03  0.12499984178E+03 0.  0.
          2    1    1    2  501    0 -0.13607753169E+03  0.48239924964E+02 -0.31979571476E+04  0.32012144732E+04  0.00000000000E+00 0. -1.
          1    1    1    2  502    0 -0.58882338628E+01 -0.24382234782E+02  0.92052937177E+03  0.92087104904E+03  0.00000000000E+00 0. -1.
         22    1    3    3    0    0  0.14711329061E+03 -0.55410451332E+02  0.72246109551E+02  0.17300907125E+03  0.00000000000E+00 0. -1.
         22    1    3    3    0    0 -0.51475250604E+01  0.31552761150E+02  0.27445773574E+02  0.42134834015E+02  0.00000000000E+00 0. -1.
</event>
<event>
 7    1  0.6273950E-006  0.5612856E+02  0.7818608E-02  0.1463953E+00
          2   -1    0    0  502    0  0.00000000000E+00  0.00000000000E+00  0.25425194991E+03  0.25425194991E+03  0.00000000000E+00 0. -1.
          1   -1    0    0  501    0 -0.00000000000E+00 -0.00000000000E+00 -0.54983089086E+02  0.54983089086E+02  0.00000000000E+00 0. -1.
         25    2    1    2    0    0 -0.72746596533E+02  0.27856158101E+02  0.14317323125E+03  0.20540620415E+03  0.12500040682E+03 0.  0.
          2    1    1    2  501    0  0.38580315823E+02  0.47234995324E+01  0.34266806299E+02  0.51816659780E+02  0.00000000000E+00 0. -1.
          1    1    1    2  502    0  0.34166280710E+02 -0.32579657634E+02  0.21828823267E+02  0.52012175058E+02  0.00000000000E+00 0. -1.
         22    1    3    3    0    0 -0.52165494215E+02  0.19032826806E+01  0.15996740055E+03  0.16826892319E+03  0.00000000000E+00 0. -1.
         22    1    3    3    0    0 -0.20581102318E+02  0.25952875421E+02 -0.16794169296E+02  0.37137280966E+02  0.00000000000E+00 0. -1.
</event>
<event>
 7    1  0.6273950E-006  0.1039253E+03  0.7818608E-02  0.1354357E+00
          2   -1    0    0  502    0  0.00000000000E+00  0.00000000000E+00  0.67391360256E+03  0.67391360256E+03  0.00000000000E+00 0. -1.
          1   -1    0    0  501    0 -0.00000000000E+00 -0.00000000000E+00 -0.62755719742E+03  0.62755719742E+03  0.00000000000E+00 0. -1.
         25    2    1    2    0    0 -0.37321929404E+02 -0.10714487243E+03 -0.23291367547E+03  0.28765739053E+03  0.12500017602E+03 0.  0.
          2    1    1    2  501    0  0.73420395049E+02  0.73293374604E+02 -0.35896869408E+03  0.37365893071E+03  0.00000000000E+00 0. -1.
          1    1    1    2  502    0 -0.36098465644E+02  0.33851497824E+02  0.63823877469E+03  0.64015447873E+03  0.00000000000E+00 0. -1.
         22    1    3    3    0    0 -0.73166391198E+02 -0.72908389295E+02 -0.92151128399E+02  0.13842248551E+03  0.00000000000E+00 0. -1.
         22    1    3    3    0    0  0.35844461794E+02 -0.34236483133E+02 -0.14076254707E+03  0.14923490502E+03  0.00000000000E+00 0. -1.
</event>
<event>
 7    1  0.6273950E-006  0.7071339E+02  0.7818608E-02  0.1488396E+00
          2   -1    0    0  502    0  0.00000000000E+00  0.00000000000E+00  0.20455927171E+04  0.20455927171E+04  0.00000000000E+00 0. -1.
          1   -1    0    0  501    0 -0.00000000000E+00 -0.00000000000E+00 -0.73883871849E+02  0.73883871849E+02  0.00000000000E+00 0. -1.
         25    2    1    2    0    0 -0.16165492945E+02  0.44379512307E+02  0.97163581452E+03  0.98078126022E+03  0.12499944028E+03 0.  0.
          2    1    1    2  501    0  0.12518546272E+02 -0.70057119754E+02 -0.50840860064E+02  0.87461460547E+02  0.00000000000E+00 0. -1.
          1    1    1    2  502    0  0.36469466726E+01  0.25677607447E+02  0.10509138908E+04  0.10512338682E+04  0.00000000000E+00 0. -1.
         22    1    3    3    0    0  0.42154605674E+02  0.54312323970E+02  0.66069697616E+03  0.66426450577E+03  0.00000000000E+00 0.  1.
         22    1    3    3    0    0 -0.58320098618E+02 -0.99328116624E+01  0.31093883836E+03  0.31651675445E+03  0.00000000000E+00 0.  1.
</event>
<event>
 7    1  0.6273950E-006  0.1255265E+03  0.7818608E-02  0.1269960E+00
          2   -1    0    0  502    0  0.00000000000E+00  0.00000000000E+00  0.31384115003E+02  0.31384115003E+02  0.00000000000E+00 0. -1.
          1   -1    0    0  501    0 -0.00000000000E+00 -0.00000000000E+00 -0.21131638771E+04  0.21131638771E+04  0.00000000000E+00 0. -1.
         25    2    1    2    0    0 -0.16434088686E+02  0.50945896896E+02 -0.27677707047E+03  0.30837748388E+03  0.12500224857E+03 0.  0.
          2    1    1    2  501    0  0.70583629899E+02  0.10380204681E+03 -0.12805866118E+04  0.12867241290E+04  0.00000000000E+00 0. -1.
          1    1    1    2  502    0 -0.54149541213E+02 -0.15474794370E+03 -0.52441607980E+03  0.54944637923E+03  0.00000000000E+00 0. -1.
         22    1    3    3    0    0  0.39848589822E+02  0.62410976671E+02 -0.19375866108E+03  0.20742579122E+03  0.00000000000E+00 0.  1.
         22    1    3    3    0    0 -0.56282678508E+02 -0.11465079775E+02 -0.83018409388E+02  0.10095169266E+03  0.00000000000E+00 0.  1.
</event>
<event>
 7    1  0.6273950E-006  0.1027118E+03  0.7818608E-02  0.1439372E+00
          2   -1    0    0  502    0  0.00000000000E+00  0.00000000000E+00  0.42988065942E+03  0.42988065942E+03  0.00000000000E+00 0. -1.
          1   -1    0    0  501    0 -0.00000000000E+00 -0.00000000000E+00 -0.64330617249E+03  0.64330617249E+03  0.00000000000E+00 0. -1.
         25    2    1    2    0    0  0.70719947169E+01  0.99515612714E+02 -0.43364749859E+03  0.46219992736E+03  0.12500099813E+03 0.  0.
          2    1    1    2  501    0 -0.25393960371E+02  0.16356478496E+01 -0.18815630351E+03  0.18986922636E+03  0.00000000000E+00 0. -1.
          1    1    1    2  502    0  0.18321965654E+02 -0.10115126056E+03  0.40837828903E+03  0.42111767820E+03  0.00000000000E+00 0. -1.
         22    1    3    3    0    0  0.35126536956E+02 -0.32974284995E+01 -0.35553924458E+02  0.50088203977E+02  0.00000000000E+00 0.  1.
         22    1    3    3    0    0 -0.28054542239E+02  0.10281304121E+03 -0.39809357413E+03  0.41211172338E+03  0.00000000000E+00 0.  1.
</event>
<event>
 7    1  0.6273950E-006  0.4436174E+02  0.7818608E-02  0.1537831E+00
          2   -1    0    0  502    0  0.00000000000E+00  0.00000000000E+00  0.33890451063E+03  0.33890451063E+03  0.00000000000E+00 0. -1.
          1   -1    0    0  501    0 -0.00000000000E+00 -0.00000000000E+00 -0.68897446151E+03  0.68897446151E+03  0.00000000000E+00 0. -1.
         25    2    1    2    0    0  0.70399280832E+01  0.35661138608E+02 -0.10940405121E+03  0.17004568917E+03  0.12500005035E+03 0.  0.
          2    1    1    2  501    0  0.28340973954E+02 -0.85760714329E+01 -0.54723877192E+03  0.54803926255E+03  0.00000000000E+00 0. -1.
          1    1    1    2  502    0 -0.35380902037E+02 -0.27085067175E+02  0.30657287224E+03  0.30979402042E+03  0.00000000000E+00 0. -1.
         22    1    3    3    0    0 -0.84094075357E+01 -0.45371061630E+02 -0.52139143454E+02  0.69625725480E+02  0.00000000000E+00 0.  1.
         22    1    3    3    0    0  0.15449335619E+02  0.81032200237E+02 -0.57264907756E+02  0.10041996369E+03  0.00000000000E+00 0.  1.
</event>
<event>
 7    1  0.6273950E-006  0.8656684E+02  0.7818608E-02  0.1314821E+00
          2   -1    0    0  502    0  0.00000000000E+00  0.00000000000E+00  0.12056959982E+04  0.12056959982E+04  0.00000000000E+00 0. -1.
          1   -1    0    0  501    0 -0.00000000000E+00 -0.00000000000E+00 -0.42797842861E+03  0.42797842861E+03  0.00000000000E+00 0. -1.
         25    2    1    2    0    0  0.65771594009E+02  0.21986547504E+01 -0.87933633138E+02  0.16639833662E+03  0.12500138373E+03 0.  0.
          2    1    1    2  501    0 -0.47126853864E+02 -0.84023684006E+02 -0.29154050302E+03  0.30704524867E+03  0.00000000000E+00 0. -1.
          1    1    1    2  502    0 -0.18644740145E+02  0.81825029256E+02  0.11571917057E+04  0.11602308415E+04  0.00000000000E+00 0. -1.
         22    1    3    3    0    0 -0.23231971628E+02  0.12146127633E+02 -0.70423786507E+02  0.75144944129E+02  0.00000000000E+00 0.  1.
         22    1    3    3    0    0  0.89003565637E+02 -0.99474728821E+01 -0.17509846631E+02  0.91253392496E+02  0.00000000000E+00 0.  1.
</event>
<event>
 7    1  0.6273950E-006  0.3910577E+02  0.7818608E-02  0.1595599E+00
          2   -1    0    0  502    0  0.00000000000E+00  0.00000000000E+00  0.81970392257E+03  0.81970392257E+03  0.00000000000E+00 0. -1.
          1   -1    0    0  501    0 -0.00000000000E+00 -0.00000000000E+00 -0.39704034662E+03  0.39704034662E+03  0.00000000000E+00 0. -1.
         25    2    1    2    0    0 -0.27401356281E+02  0.49591618960E+02  0.19429720253E+03  0.23787919915E+03  0.12499978992E+03 0.  0.
          2    1    1    2  501    0  0.68785828050E+01 -0.38426524628E+02 -0.37400701496E+03  0.37603877451E+03  0.00000000000E+00 0. -1.
          1    1    1    2  502    0  0.20522773476E+02 -0.11165094332E+02  0.60237338838E+03  0.60282629554E+03  0.00000000000E+00 0. -1.
         22    1    3    3    0    0  0.33297197483E+02  0.64904326799E+02  0.85806921196E+02  0.11262372185E+03  0.00000000000E+00 0.  1.
         22    1    3    3    0    0 -0.60698553764E+02 -0.15312707839E+02  0.10849028133E+03  0.12525547730E+03  0.00000000000E+00 0.  1.
</event>
<event>
 7    1  0.6273950E-006  0.9523175E+02  0.7818608E-02  0.1300287E+00
          2   -1    0    0  502    0  0.00000000000E+00  0.00000000000E+00  0.10711722485E+04  0.10711722485E+04  0.00000000000E+00 0. -1.
          1   -1    0    0  501    0 -0.00000000000E+00 -0.00000000000E+00 -0.11807372976E+03  0.11807372976E+03  0.00000000000E+00 0. -1.
         25    2    1    2    0    0 -0.47552896770E+02  0.72991977653E+02  0.11963936418E+03  0.19371916382E+03  0.12499772069E+03 0.  0.
          2    1    1    2  501    0 -0.50894289369E+02 -0.70665892412E+02 -0.54099835203E+02  0.10252165239E+03  0.00000000000E+00 0. -1.
          1    1    1    2  502    0  0.98447186139E+02 -0.23260852413E+01  0.88755898978E+03  0.89300516206E+03  0.00000000000E+00 0. -1.
         22    1    3    3    0    0 -0.37179127970E+02 -0.20338234356E+02  0.82478271272E+02  0.92728617834E+02  0.00000000000E+00 0. -1.
         22    1    3    3    0    0 -0.10373768800E+02  0.93330212010E+02  0.37161092909E+02  0.10099054599E+03  0.00000000000E+00 0. -1.
</event>
<event>
 7    1  0.6273950E-006  0.5237185E+02  0.7818608E-02  0.1557283E+00
          2   -1    0    0  502    0  0.00000000000E+00  0.00000000000E+00  0.19778151680E+03  0.19778151680E+03  0.00000000000E+00 0. -1.
          1   -1    0    0  501    0 -0.00000000000E+00 -0.00000000000E+00 -0.77392832293E+03  0.77392832293E+03  0.00000000000E+00 0. -1.
         25    2    1    2    0    0 -0.48806201200E+02  0.50930640733E+02 -0.19968387898E+03  0.24591713605E+03  0.12500244332E+03 0.  0.
          2    1    1    2  501    0  0.41908613540E+02 -0.29906646637E+02 -0.54921824523E+03  0.55162615991E+03  0.00000000000E+00 0. -1.
          1    1    1    2  502    0  0.68975876594E+01 -0.21023994096E+02  0.17275531808E+03  0.17416654377E+03  0.00000000000E+00 0. -1.
         22    1    3    3    0    0  0.29166482552E+02  0.30066951249E+02 -0.15222997136E+02  0.44569551306E+02  0.00000000000E+00 0.  1.
         22    1    3    3    0    0 -0.77972683751E+02  0.20863689484E+02 -0.18446088184E+03  0.20134758474E+03  0.00000000000E+00 0.  1.
</event>
<event>
 7    1  0.6273950E-006  0.6114331E+02  0.7818608E-02  0.1434131E+00
          2   -1    0    0  502    0  0.00000000000E+00  0.00000000000E+00  0.17179644693E+03  0.17179644693E+03  0.00000000000E+00 0. -1.
          1   -1    0    0  501    0 -0.00000000000E+00 -0.00000000000E+00 -0.32267204591E+03  0.32267204591E+03  0.00000000000E+00 0. -1.
         25    2    1    2    0    0 -0.45809636120E+02 -0.17047554003E+02  0.11170969246E+01  0.13422031496E+03  0.12499881273E+03 0.  0.
          2    1    1    2  501    0  0.26147789784E+02  0.56925855723E+02 -0.24728353816E+03  0.25509490039E+03  0.00000000000E+00 0. -1.
          1    1    1    2  502    0  0.19661846337E+02 -0.39878301720E+02  0.95290842258E+02  0.10515327749E+03  0.00000000000E+00 0. -1.
         22    1    3    3    0    0 -0.67421074810E+02  0.15979020053E+02 -0.37683588225E+02  0.78873209849E+02  0.00000000000E+00 0. -1.
         22    1    3    3    0    0  0.21611438690E+02 -0.33026574056E+02  0.38800685150E+02  0.55347105111E+02  0.00000000000E+00 0. -1.
</event>
<event>
 7    1  0.6273950E-006  0.8074932E+02  0.7818608E-02  0.1501588E+00
          2   -1    0    0  502    0  0.00000000000E+00  0.00000000000E+00  0.17274611107E+03  0.17274611107E+03  0.00000000000E+00 0. -1.
          1   -1    0    0  501    0 -0.00000000000E+00 -0.00000000000E+00 -0.93206792964E+03  0.93206792964E+03  0.00000000000E+00 0. -1.
         25    2    1    2    0    0  0.81746612106E+02  0.12940784704E+02 -0.26575607556E+02  0.15225312198E+03  0.12499911094E+03 0.  0.
          2    1    1    2  501    0 -0.13294834317E+01 -0.20687980553E+02 -0.82765977597E+03  0.82791935889E+03  0.00000000000E+00 0. -1.
          1    1    1    2  502    0 -0.80417128675E+02  0.77471958488E+01  0.94913564961E+02  0.12464155985E+03  0.00000000000E+00 0. -1.
         22    1    3    3    0    0 -0.21516029438E+01 -0.44557673732E+02 -0.23672259265E+02  0.50501401390E+02  0.00000000000E+00 0. -1.
         22    1    3    3    0    0  0.83898215050E+02  0.57498458436E+02 -0.29033482904E+01  0.10175172059E+03  0.00000000000E+00 0. -1.
</event>
<event>
 7    1  0.6273950E-006  0.7673354E+02  0.7818608E-02  0.1360382E+00
          2   -1    0    0  502    0  0.00000000000E+00  0.00000000000E+00  0.19141752512E+04  0.19141752512E+04  0.00000000000E+00 0. -1.
          1   -1    0    0  501    0 -0.00000000000E+00 -0.00000000000E+00 -0.11702823903E+03  0.11702823903E+03  0.00000000000E+00 0. -1.
         25    2    1    2    0    0 -0.38305345798E+02  0.12895370573E+03  0.65343035186E+03  0.67874392729E+03  0.12500294538E+03 0.  0.
          2    1    1    2  501    0  0.26596389404E+02 -0.57884768181E+02 -0.93505383969E+02  0.11314270258E+03  0.00000000000E+00 0. -1.
          1    1    1    2  502    0  0.11708956394E+02 -0.71068937546E+02  0.12372220443E+04  0.12393168603E+04  0.00000000000E+00 0. -1.
         22    1    3    3    0    0  0.24871169663E+02  0.73060362369E+02  0.47679348109E+03  0.48299939466E+03  0.00000000000E+00 0.  1.
         22    1    3    3    0    0 -0.63176515461E+02  0.55893343358E+02  0.17663687078E+03  0.19574453263E+03  0.00000000000E+00 0.  1.
</event>
<event>
 7    1  0.6273950E-006  0.1073544E+03  0.7818608E-02  0.1340909E+00
          2   -1    0    0  502    0  0.00000000000E+00  0.00000000000E+00  0.23303936142E+04  0.23303936142E+04  0.00000000000E+00 0. -1.
          1   -1    0    0  501    0 -0.00000000000E+00 -0.00000000000E+00 -0.41106293092E+03  0.41106293092E+03  0.00000000000E+00 0. -1.
         25    2    1    2    0    0 -0.52714779279E+02 -0.28664276528E+02  0.89120962108E+01  0.13894356137E+03  0.12500159632E+03 0.  0.
          2    1    1    2  501    0  0.10367630064E+03  0.45761877791E+02 -0.33643881933E+03  0.35501268136E+03  0.00000000000E+00 0. -1.
          1    1    1    2  502    0 -0.50961521360E+02 -0.17097601263E+02  0.22468574064E+04  0.22475003024E+04  0.00000000000E+00 0. -1.
         22    1    3    3    0    0 -0.58523659000E+02  0.33950245385E+02  0.28005604108E+02  0.73225348657E+02  0.00000000000E+00 0.  1.
         22    1    3    3    0    0  0.58088797203E+01 -0.62614521913E+02 -0.19093507897E+02  0.65718212711E+02  0.00000000000E+00 0.  1.
</event>
<event>
 7    1  0.6273950E-006  0.3239154E+02  0.7818608E-02  0.1632280E+00
          2   -1    0    0  502    0  0.00000000000E+00  0.00000000000E+00  0.67549176483E+03  0.67549176483E+03  0.00000000000E+00 0. -1.
          1   -1    0    0  501    0 -0.00000000000E+00 -0.00000000000E+00 -0.16490447116E+03  0.16490447116E+03  0.00000000000E+00 0. -1.
         25    2    1    2    0    0  0.49210296509E+02 -0.21478609882E+02 -0.39437300303E+02  0.14165051875E+03  0.12500633921E+03 0.  0.
          2    1    1    2  501    0 -0.22453884697E+02  0.33899880313E+01 -0.72198242241E+02  0.75685237263E+02  0.00000000000E+00 0. -1.
          1    1    1    2  502    0 -0.26756411811E+02  0.18088621851E+02  0.62222283621E+03  0.62306047998E+03  0.00000000000E+00 0. -1.
         22    1    3    3    0    0  0.11134171964E+02 -0.71820844535E+02 -0.25392191681E+02  0.76986796877E+02  0.00000000000E+00 0.  1.
         22    1    3    3    0    0  0.38076124545E+02  0.50342234653E+02 -0.14045108622E+02  0.64663721873E+02  0.00000000000E+00 0.  1.
</event>
<event>
 7    1  0.6273950E-006  0.9913342E+02  0.7818608E-02  0.1406282E+00
          2   -1    0    0  502    0  0.00000000000E+00  0.00000000000E+00  0.88686785367E+02  0.88686785367E+02  0.00000000000E+00 0. -1.
          1   -1    0    0  501    0 -0.00000000000E+00 -0.00000000000E+00 -0.11017887239E+04  0.11017887239E+04  0.00000000000E+00 0. -1.
         25    2    1    2    0    0  0.97314720073E+02 -0.55737350878E+02 -0.29742329491E+03  0.34155744423E+03  0.12499625725E+03 0.  0.
          2    1    1    2  501    0 -0.16224204216E+01  0.33932498943E+02 -0.74555327784E+03  0.74632682977E+03  0.00000000000E+00 0. -1.
          1    1    1    2  502    0 -0.95692299651E+02  0.21804851935E+02  0.29874634233E+02  0.10259123525E+03  0.00000000000E+00 0. -1.
         22    1    3    3    0    0  0.46991163643E+01 -0.64327126403E+02 -0.18338672961E+03  0.19439844002E+03  0.00000000000E+00 0.  1.
         22    1    3    3    0    0  0.92615603709E+02  0.85897755251E+01 -0.11403656530E+03  0.14715900421E+03  0.00000000000E+00 0.  1.
</event>
<event>
 7    1  0.6273950E-006  0.8728245E+02  0.7818608E-02  0.1410979E+00
          2   -1    0    0  502    0  0.00000000000E+00  0.00000000000E+00  0.71986802979E+03  0.71986802979E+03  0.00000000000E+00 0. -1.
          1   -1    0    0  501    0 -0.00000000000E+00 -0.00000000000E+00 -0.91033370217E+03  0.91033370217E+03  0.00000000000E+00 0. -1.
         25    2    1    2    0    0  0.80835798117E+02  0.89284819666E+02  0.51044445091E+03  0.53915239818E+03  0.12500226289E+03 0.  0.
          2    1    1    2  501    0 -0.47299893313E+02 -0.73202785869E+02 -0.89206370574E+03  0.89631109714E+03  0.00000000000E+00 0. -1.
          1    1    1    2  502    0 -0.33535904804E+02 -0.16082033797E+02  0.19115358246E+03  0.19473823664E+03  0.00000000000E+00 0. -1.
         22    1    3    3    0    0  0.85881805290E+01  0.95729776005E+02  0.35214492866E+03  0.36502602324E+03  0.00000000000E+00 0.  1.
         22    1    3    3    0    0  0.72247617588E+02 -0.64449563387E+01  0.15829952225E+03  0.17412637495E+03  0.00000000000E+00 0.  1.
</event>
<event>
 7    1  0.6273950E-006  0.1707868E+03  0.7818608E-02  0.1343884E+00
          2   -1    0    0  502    0  0.00000000000E+00  0.00000000000E+00  0.32000753588E+03  0.32000753588E+03  0.00000000000E+00 0. -1.
          1   -1    0    0  501    0 -0.00000000000E+00 -0.00000000000E+00 -0.12138537739E+04  0.12138537739E+04  0.00000000000E+00 0. -1.
         25    2    1    2    0    0  0.15617169795E+03  0.11708630454E+03 -0.17813944147E+03  0.29233006427E+03  0.12499761564E+03 0.  0.
          2    1    1    2  501    0 -0.11979283629E+02 -0.30675954185E+02 -0.95143461415E+03  0.95200438150E+03  0.00000000000E+00 0. -1.
          1    1    1    2  502    0 -0.14419241432E+03 -0.86410350354E+02  0.23572781759E+03  0.28952686401E+03  0.00000000000E+00 0. -1.
         22    1    3    3    0    0  0.11803141704E+03  0.79675812502E+02 -0.19015750233E+03  0.23757004483E+03  0.00000000000E+00 0. -1.
         22    1    3    3    0    0  0.38140280906E+02  0.37410492038E+02  0.12018060859E+02  0.54760019439E+02  0.00000000000E+00 0. -1.
</event>
<event>
 7    1  0.6273950E-006  0.3267938E+02  0.7818608E-02  0.1620773E+00
          2   -1    0    0  502    0  0.00000000000E+00  0.00000000000E+00  0.54964428375E+03  0.54964428375E+03  0.00000000000E+00 0. -1.
          1   -1    0    0  501    0 -0.00000000000E+00 -0.00000000000E+00 -0.10734658440E+04  0.10734658440E+04  0.00000000000E+00 0. -1.
         25    2    1    2    0    0  0.39375814008E+02 -0.30772452562E+02 -0.19317425339E+03  0.23545213676E+03  0.12499607181E+03 0.  0.
          2    1    1    2  501    0 -0.23984662214E+02  0.19792282263E+01 -0.85847963366E+03  0.85881689712E+03  0.00000000000E+00 0. -1.
          1    1    1    2  502    0 -0.15391151794E+02  0.28793224335E+02  0.52783232682E+03  0.52884109386E+03  0.00000000000E+00 0. -1.
         22    1    3    3    0    0 -0.17876320242E+02  0.38364760997E+02 -0.84428896881E+02  0.94443932258E+02  0.00000000000E+00 0. -1.
         22    1    3    3    0    0  0.57252134250E+02 -0.69137213559E+02 -0.10874535651E+03  0.14100820451E+03  0.00000000000E+00 0. -1.
</event>
<event>
 7    1  0.6273950E-006  0.1688917E+03  0.7818608E-02  0.1231714E+00
          2   -1    0    0  502    0  0.00000000000E+00  0.00000000000E+00  0.12709369164E+04  0.12709369164E+04  0.00000000000E+00 0. -1.
          1   -1    0    0  501    0 -0.00000000000E+00 -0.00000000000E+00 -0.16145903532E+04  0.16145903532E+04  0.00000000000E+00 0. -1.
         25    2    1    2    0    0 -0.14252191271E+03 -0.15441468332E+02  0.23206516054E+03  0.30004749388E+03  0.12499330104E+03 0.  0.
          2    1    1    2  501    0  0.14969430327E+03 -0.80046635019E+02 -0.15737431971E+04  0.15828719148E+04  0.00000000000E+00 0. -1.
          1    1    1    2  502    0 -0.71723905675E+01  0.95488103352E+02  0.99802459980E+03  0.10026078610E+04  0.00000000000E+00 0. -1.
         22    1    3    3    0    0 -0.50713320610E+02  0.26133240545E+02  0.17535990808E+03  0.18440684507E+03  0.00000000000E+00 0. -1.
         22    1    3    3    0    0 -0.91808592097E+02 -0.41574708877E+02  0.56705252458E+02  0.11564064881E+03  0.00000000000E+00 0. -1.
</event>
<event>
 7    1  0.6273950E-006  0.9043982E+02  0.7818608E-02  0.1476710E+00
          2   -1    0    0  502    0  0.00000000000E+00  0.00000000000E+00  0.28607709328E+03  0.28607709328E+03  0.00000000000E+00 0. -1.
          1   -1    0    0  501    0 -0.00000000000E+00 -0.00000000000E+00 -0.14823898819E+03  0.14823898819E+03  0.00000000000E+00 0. -1.
         25    2    1    2    0    0 -0.18729158973E+02  0.94575516187E+02  0.10404658042E+03  0.18906414001E+03  0.12499699389E+03 0.  0.
          2    1    1    2  501    0  0.36834836256E+02 -0.82048481625E+02 -0.85412052440E+02  0.12403216196E+03  0.00000000000E+00 0. -1.
          1    1    1    2  502    0 -0.18105677283E+02 -0.12527034562E+02  0.11920357711E+03  0.12121977950E+03  0.00000000000E+00 0. -1.
         22    1    3    3    0    0 -0.85740173234E+01  0.30608181984E+02  0.11851141006E+03  0.12270015848E+03  0.00000000000E+00 0.  1.
         22    1    3    3    0    0 -0.10155141650E+02  0.63967334204E+02 -0.14464829639E+02  0.66363981523E+02  0.00000000000E+00 0.  1.
</event>
<event>
 7    1  0.1117577E-005  0.8776232E+02  0.7818608E-02  0.1311722E+00
          2   -1    0    0  502    0  0.00000000000E+00  0.00000000000E+00  0.18788394225E+04  0.18788394225E+04  0.00000000000E+00 0. -1.
          1   -1    0    0  501    0 -0.00000000000E+00 -0.00000000000E+00 -0.12633021890E+04  0.12633021890E+04  0.00000000000E+00 0. -1.
         25    2    1    2    0    0  0.21049808537E+02  0.20954210417E+02 -0.15875031226E+03  0.20422431963E+03  0.12499495075E+03 0.  0.
          2    1    1    2  501    0  0.28765416677E+02 -0.89983995367E+02 -0.10787734553E+04  0.10829019977E+04  0.00000000000E+00 0. -1.
          1    1    1    2  502    0 -0.49815225215E+02  0.69029784950E+02  0.18530610011E+04  0.18550152942E+04  0.00000000000E+00 0. -1.
         22    1    3    3    0    0 -0.12413290383E+02 -0.20473085143E+02  0.10976802325E+02  0.26338701234E+02  0.00000000000E+00 0.  1.
         22    1    3    3    0    0  0.33463098920E+02  0.41427295560E+02 -0.16972711459E+03  0.17788561840E+03  0.00000000000E+00 0.  1.
</event>
<event>
 7    1  0.6273950E-006  0.4586593E+02  0.7818608E-02  0.1545680E+00
          2   -1    0    0  502    0  0.00000000000E+00  0.00000000000E+00  0.32829616898E+03  0.32829616898E+03  0.00000000000E+00 0. -1.
          1   -1    0    0  501    0 -0.00000000000E+00 -0.00000000000E+00 -0.25325005733E+03  0.25325005733E+03  0.00000000000E+00 0. -1.
         25    2    1    2    0    0  0.15615237302E+02 -0.60026272807E+02 -0.11340706265E+03  0.17981488343E+03  0.12500096552E+03 0.  0.
          2    1    1    2  501    0 -0.22799425618E+02  0.14862423429E+02 -0.10309061415E+03  0.10662260625E+03  0.00000000000E+00 0. -1.
          1    1    1    2  502    0  0.71841883157E+01  0.45163849378E+02  0.29154378845E+03  0.29510873663E+03  0.00000000000E+00 0. -1.
         22    1    3    3    0    0  0.16505751222E+02 -0.16426677685E+02 -0.13080655786E+03  0.13286320462E+03  0.00000000000E+00 0. -1.
         22    1    3    3    0    0 -0.89051391962E+00 -0.43599595122E+02  0.17399495203E+02  0.46951678811E+02  0.00000000000E+00 0. -1.
</event>
<event>
 7    1  0.6273950E-006  0.5472689E+02  0.7818608E-02  0.1526081E+00
          2   -1    0    0  502    0  0.00000000000E+00  0.00000000000E+00  0.30638297619E+03  0.30638297619E+03  0.00000000000E+00 0. -1.
          1   -1    0    0  501    0 -0.00000000000E+00 -0.00000000000E+00 -0.24294395019E+03  0.24294395019E+03  0.00000000000E+00 0. -1.
         25    2    1    2    0    0 -0.24194632097E+02  0.71023890325E+02 -0.10505349933E+03  0.17969625772E+03  0.12499893640E+03 0.  0.
          2    1    1    2  501    0  0.24447727117E+02 -0.45093860542E+02 -0.93346042180E+02  0.10651117881E+03  0.00000000000E+00 0. -1.
          1    1    1    2  502    0 -0.25309502054E+00 -0.25930029783E+02  0.26183856751E+03  0.26311948985E+03  0.00000000000E+00 0. -1.
         22    1    3    3    0    0 -0.55535912354E+02 -0.25598964232E+00 -0.93505383684E+01  0.56318164561E+02  0.00000000000E+00 0.  1.
         22    1    3    3    0    0  0.31341280258E+02  0.71279879967E+02 -0.95702960958E+02  0.12337809316E+03  0.00000000000E+00 0.  1.
</event>
<event>
 7    1  0.6273950E-006  0.6354404E+02  0.7818608E-02  0.1468000E+00
          2   -1    0    0  502    0  0.00000000000E+00  0.00000000000E+00  0.13435678241E+03  0.13435678241E+03  0.00000000000E+00 0. -1.
          1   -1    0    0  501    0 -0.00000000000E+00 -0.00000000000E+00 -0.22201929177E+04  0.22201929177E+04  0.00000000000E+00 0. -1.
         25    2    1    2    0    0 -0.61884277982E+02 -0.73097369221E+02 -0.54297791537E+03  0.56535179673E+03  0.12499899292E+03 0.  0.
          2    1    1    2  501    0  0.25323804671E+02  0.21694707118E+02 -0.16577733343E+04  0.16581086765E+04  0.00000000000E+00 0. -1.
          1    1    1    2  502    0  0.36560473312E+02  0.51402662103E+02  0.11491511436E+03  0.13108922682E+03  0.00000000000E+00 0. -1.
         22    1    3    3    0    0  0.35410043903E+02 -0.35080925868E+02 -0.12630199195E+03  0.13578194188E+03  0.00000000000E+00 0.  1.
         22    1    3    3    0    0 -0.97294321885E+02 -0.38016443353E+02 -0.41667592342E+03  0.42956985485E+03  0.00000000000E+00 0.  1.
</event>
<event>
 7    1  0.6273950E-006  0.8849912E+02  0.7818608E-02  0.1387985E+00
          2   -1    0    0  502    0  0.00000000000E+00  0.00000000000E+00  0.26030074451E+03  0.26030074451E+03  0.00000000000E+00 0. -1.
          1   -1    0    0  501    0 -0.00000000000E+00 -0.00000000000E+00 -0.47196829196E+03  0.47196829196E+03  0.00000000000E+00 0. -1.
         25    2    1    2    0    0 -0.97059744977E+01  0.49751304736E+02  0.96608622012E+02  0.16591121610E+03  0.12499562999E+03 0.  0.
          2    1    1    2  501    0  0.42262573447E+02 -0.79368910210E+02 -0.42875954983E+03  0.43808709248E+03  0.00000000000E+00 0. -1.
          1    1    1    2  502    0 -0.32556598949E+02  0.29617605474E+02  0.12048338037E+03  0.12827072789E+03  0.00000000000E+00 0. -1.
         22    1    3    3    0    0 -0.46558680758E+02  0.46058123714E+02  0.33607074042E+01  0.65577098657E+02  0.00000000000E+00 0. -1.
         22    1    3    3    0    0  0.36852706261E+02  0.36931810221E+01  0.93247914608E+02  0.10033411744E+03  0.00000000000E+00 0. -1.
</event>
<event>
 7    1  0.6273950E-006  0.5532518E+02  0.7818608E-02  0.1419628E+00
          2   -1    0    0  502    0  0.00000000000E+00  0.00000000000E+00  0.11686636311E+04  0.11686636311E+04  0.00000000000E+00 0. -1.
          1   -1    0    0  501    0 -0.00000000000E+00 -0.00000000000E+00 -0.13134203665E+04  0.13134203665E+04  0.00000000000E+00 0. -1.
         25    2    1    2    0    0 -0.87836355563E+02 -0.61672027984E+02  0.81308907747E+02  0.18372462586E+03  0.12499974110E+03 0.  0.
          2    1    1    2  501    0  0.37117455367E+02  0.40723188437E+02 -0.12608838445E+04  0.12620872208E+04  0.00000000000E+00 0. -1.
          1    1    1    2  502    0  0.50718900196E+02  0.20948839547E+02  0.10348182014E+04  0.10362721509E+04  0.00000000000E+00 0. -1.
         22    1    3    3    0    0 -0.38022197972E+02 -0.11588818521E+02 -0.31436875129E+02  0.50678056111E+02  0.00000000000E+00 0. -1.
         22    1    3    3    0    0 -0.49814157591E+02 -0.50083209463E+02  0.11274578288E+03  0.13304656975E+03  0.00000000000E+00 0. -1.
</event>
<event>
 7    1  0.6273950E-006  0.7082921E+02  0.7818608E-02  0.1435735E+00
          2   -1    0    0  502    0  0.00000000000E+00  0.00000000000E+00  0.21303101932E+03  0.21303101932E+03  0.00000000000E+00 0. -1.
          1   -1    0    0  501    0 -0.00000000000E+00 -0.00000000000E+00 -0.11018105101E+04  0.11018105101E+04  0.00000000000E+00 0. -1.
         25    2    1    2    0    0  0.44662546572E+02 -0.90079147630E+02  0.18961990267E+02  0.16153782547E+03  0.12500366426E+03 0.  0.
          2    1    1    2  501    0 -0.12953988968E+02  0.69280450415E+02 -0.10263568905E+04  0.10287740536E+04  0.00000000000E+00 0. -1.
          1    1    1    2  502    0 -0.31708557604E+02  0.20798697215E+02  0.11861540951E+03  0.12452965031E+03  0.00000000000E+00 0. -1.
         22    1    3    3    0    0 -0.41263013932E+02 -0.89069325007E+01  0.44943037467E+01  0.42451955568E+02  0.00000000000E+00 0. -1.
         22    1    3    3    0    0  0.85925560504E+02 -0.81172215130E+02  0.14467686520E+02  0.11908586990E+03  0.00000000000E+00 0. -1.
</event>
<event>
 7    1  0.6273950E-006  0.8435433E+02  0.7818608E-02  0.1356262E+00
          2   -1    0    0  502    0  0.00000000000E+00  0.00000000000E+00  0.15392301258E+04  0.15392301258E+04  0.00000000000E+00 0. -1.
          1   -1    0    0  501    0 -0.00000000000E+00 -0.00000000000E+00 -0.17649996550E+04  0.17649996550E+04  0.00000000000E+00 0. -1.
         25    2    1    2    0    0  0.14074327891E+03  0.29493087294E+02  0.38202114427E+02  0.19432747263E+03  0.12500100926E+03 0.  0.
          2    1    1    2  501    0 -0.81820118479E+02 -0.18209015967E+02 -0.16852625172E+04  0.16873458009E+04  0.00000000000E+00 0. -1.
          1    1    1    2  502    0 -0.58923160431E+02 -0.11284071327E+02  0.14212908736E+04  0.14225565073E+04  0.00000000000E+00 0. -1.
         22    1    3    3    0    0  0.23492642752E+02  0.47670401305E+02 -0.26278873099E+02  0.59287018777E+02  0.00000000000E+00 0. -1.
         22    1    3    3    0    0  0.11725063616E+03 -0.18177314011E+02  0.64480987526E+02  0.13504045385E+03  0.00000000000E+00 0. -1.
</event>
<event>
 7    1  0.6273950E-006  0.6762375E+02  0.7818608E-02  0.1517340E+00
          2   -1    0    0  502    0  0.00000000000E+00  0.00000000000E+00  0.13676681324E+04  0.13676681324E+04  0.00000000000E+00 0. -1.
          1   -1    0    0  501    0 -0.00000000000E+00 -0.00000000000E+00 -0.64126719496E+03  0.64126719496E+03  0.00000000000E+00 0. -1.
         25    2    1    2    0    0  0.78876632045E+02  0.39948775154E+02  0.61386627918E+03  0.63267204887E+03  0.12499873995E+03 0.  0.
          2    1    1    2  501    0 -0.56913700006E+02 -0.36411931944E+02 -0.62989106601E+03  0.63350434337E+03  0.00000000000E+00 0. -1.
          1    1    1    2  502    0 -0.21962932038E+02 -0.35368432100E+01  0.74242572431E+03  0.74275893516E+03  0.00000000000E+00 0. -1.
         22    1    3    3    0    0  0.37717356053E+02 -0.80607679698E+01  0.50723572377E+03  0.50869996501E+03  0.00000000000E+00 0. -1.
         22    1    3    3    0    0  0.41159275991E+02  0.48009543124E+02  0.10663055541E+03  0.12397208387E+03  0.00000000000E+00 0. -1.
</event>
<event>
 7    1  0.6273950E-006  0.9335027E+02  0.7818608E-02  0.1432985E+00
          2   -1    0    0  502    0  0.00000000000E+00  0.00000000000E+00  0.11507836121E+04  0.11507836121E+04  0.00000000000E+00 0. -1.
          1   -1    0    0  501    0 -0.00000000000E+00 -0.00000000000E+00 -0.23981801434E+03  0.23981801434E+03  0.00000000000E+00 0. -1.
         25    2    1    2    0    0  0.26557849605E+02  0.68649843618E+02  0.10359112752E+03  0.17826116527E+03  0.12501120325E+03 0.  0.
          2    1    1    2  501    0 -0.54418658065E+02 -0.77958771188E+02 -0.19109492574E+03  0.21343905687E+03  0.00000000000E+00 0. -1.
          1    1    1    2  502    0  0.27860808460E+02  0.93089275696E+01  0.99846939603E+03  0.99890140434E+03  0.00000000000E+00 0. -1.
         22    1    3    3    0    0 -0.46513595686E+02  0.51080715198E+02  0.59171213972E+02  0.90961456737E+02  0.00000000000E+00 0.  1.
         22    1    3    3    0    0  0.73071445291E+02  0.17569128420E+02  0.44419913543E+02  0.87299708530E+02  0.00000000000E+00 0.  1.
</event>
<event>
 7    1  0.6273950E-006  0.1835981E+03  0.7818608E-02  0.1303467E+00
          2   -1    0    0  502    0  0.00000000000E+00  0.00000000000E+00  0.74610580362E+03  0.74610580362E+03  0.00000000000E+00 0. -1.
          1   -1    0    0  501    0 -0.00000000000E+00 -0.00000000000E+00 -0.20454348408E+04  0.20454348408E+04  0.00000000000E+00 0. -1.
         25    2    1    2    0    0 -0.12786781141E+03 -0.80479320424E+02 -0.21259643856E+03  0.28922218389E+03  0.12500051103E+03 0.  0.
          2    1    1    2  501    0 -0.10639115593E+02 -0.42560371902E+02 -0.17821277362E+04  0.17826676202E+04  0.00000000000E+00 0. -1.
          1    1    1    2  502    0  0.13850692700E+03  0.12303969233E+03  0.69539513753E+03  0.71965084035E+03  0.00000000000E+00 0. -1.
         22    1    3    3    0    0 -0.10265094913E+03  0.74940681646E+01 -0.13113057603E+03  0.16669914932E+03  0.00000000000E+00 0. -1.
         22    1    3    3    0    0 -0.25216862276E+02 -0.87973388588E+02 -0.81465862532E+02  0.12252303457E+03  0.00000000000E+00 0. -1.
</event>
<event>
 7    1  0.6273950E-006  0.5868720E+02  0.7818608E-02  0.1422688E+00
          2   -1    0    0  502    0  0.00000000000E+00  0.00000000000E+00  0.16389446428E+03  0.16389446428E+03  0.00000000000E+00 0. -1.
          1   -1    0    0  501    0 -0.00000000000E+00 -0.00000000000E+00 -0.10617462641E+04  0.10617462641E+04  0.00000000000E+00 0. -1.
         25    2    1    2    0    0  0.86119398429E+02  0.34887763508E+02 -0.10449233003E+03  0.18755640030E+03  0.12500019773E+03 0.  0.
          2    1    1    2  501    0 -0.49602824487E+02  0.96364427450E+01 -0.90820581237E+03  0.90961041048E+03  0.00000000000E+00 0. -1.
          1    1    1    2  502    0 -0.36516573942E+02 -0.44524206253E+02  0.11484634255E+03  0.12847391763E+03  0.00000000000E+00 0. -1.
         22    1    3    3    0    0  0.48845088193E+02  0.76868653932E+02 -0.93162660944E+02  0.13028397443E+03  0.00000000000E+00 0. -1.
         22    1    3    3    0    0  0.37274310236E+02 -0.41980890424E+02 -0.11329669083E+02  0.57272425877E+02  0.00000000000E+00 0. -1.
</event>
<event>
 7    1  0.6273950E-006  0.8048057E+02  0.7818608E-02  0.1351493E+00
          2   -1    0    0  502    0  0.00000000000E+00  0.00000000000E+00  0.10638982155E+04  0.10638982155E+04  0.00000000000E+00 0. -1.
          1   -1    0    0  501    0 -0.00000000000E+00 -0.00000000000E+00 -0.82779636474E+02  0.82779636474E+02  0.00000000000E+00 0. -1.
         25    2    1    2    0    0  0.61811028996E+02 -0.22181048824E+02  0.81156838408E+03  0.82376001016E+03  0.12499884027E+03 0.  0.
          2    1    1    2  501    0  0.63660229856E+02  0.15317545660E+02 -0.41335305933E+02  0.77432936060E+02  0.00000000000E+00 0. -1.
          1    1    1    2  502    0 -0.12547125885E+03  0.68635031639E+01  0.21088550090E+03  0.24548490578E+03  0.00000000000E+00 0. -1.
         22    1    3    3    0    0 -0.12779842681E+02 -0.53765328237E+02  0.22827837332E+03  0.23487241350E+03  0.00000000000E+00 0. -1.
         22    1    3    3    0    0  0.74590871676E+02  0.31584279413E+02  0.58329001076E+03  0.58888759666E+03  0.00000000000E+00 0. -1.
</event>
<event>
 7    1  0.6273950E-006  0.4398683E+02  0.7818608E-02  0.1481855E+00
          2   -1    0    0  502    0  0.00000000000E+00  0.00000000000E+00  0.14578657953E+04  0.14578657953E+04  0.00000000000E+00 0. -1.
          1   -1    0    0  501    0 -0.00000000000E+00 -0.00000000000E+00 -0.31152682776E+03  0.31152682776E+03  0.00000000000E+00 0. -1.
         25    2    1    2    0    0 -0.33038122989E+02  0.29527325465E+01 -0.11229118024E+03  0.17126621329E+03  0.12499028143E+03 0.  0.
          2    1    1    2  501    0  0.17470563398E+02 -0.43733336075E+02 -0.16614108221E+03  0.17268666558E+03  0.00000000000E+00 0. -1.
          1    1    1    2  502    0  0.15567559590E+02  0.40780603528E+02  0.14247712300E+04  0.14254397442E+04  0.00000000000E+00 0. -1.
         22    1    3    3    0    0 -0.65802740067E+02  0.82371424802E+01 -0.12008107464E+03  0.13717622098E+03  0.00000000000E+00 0.  1.
         22    1    3    3    0    0  0.32764617078E+02 -0.52844099337E+01  0.77898943951E+01  0.34089992305E+02  0.00000000000E+00 0.  1.
</event>
<event>
 7    1  0.6273950E-006  0.8122569E+02  0.7818608E-02  0.1363990E+00
          2   -1    0    0  502    0  0.00000000000E+00  0.00000000000E+00  0.10698609091E+04  0.10698609091E+04  0.00000000000E+00 0. -1.
          1   -1    0    0  501    0 -0.00000000000E+00 -0.00000000000E+00 -0.70651527076E+03  0.70651527076E+03  0.00000000000E+00 0. -1.
         25    2    1    2    0    0 -0.92091018001E+02 -0.79919539480E+02  0.47817031697E+03  0.50905797227E+03  0.12500111485E+03 0.  0.
          2    1    1    2  501    0  0.20715272638E+02  0.54589885200E+02 -0.68733976952E+03  0.68981529184E+03  0.00000000000E+00 0. -1.
          1    1    1    2  502    0  0.71375745363E+02  0.25329654280E+02  0.57251509087E+03  0.57750291574E+03  0.00000000000E+00 0. -1.
         22    1    3    3    0    0 -0.13881115682E+02 -0.70957374856E+02  0.35917511854E+03  0.36638013074E+03  0.00000000000E+00 0.  1.
         22    1    3    3    0    0 -0.78209902320E+02 -0.89621646236E+01  0.11899519843E+03  0.14267784154E+03  0.00000000000E+00 0.  1.
</event>
<event>
 7    1  0.6273950E-006  0.1151623E+03  0.7818608E-02  0.1333477E+00
          2   -1    0    0  502    0  0.00000000000E+00  0.00000000000E+00  0.24258724950E+03  0.24258724950E+03  0.00000000000E+00 0. -1.
          1   -1    0    0  501    0 -0.00000000000E+00 -0.00000000000E+00 -0.20453279746E+04  0.20453279746E+04  0.00000000000E+00 0. -1.
         25    2    1    2    0    0  0.34630618174E+02  0.95610481574E+02  0.95128941667E+02  0.18712241011E+03  0.12499854768E+03 0.  0.
          2    1    1    2  501    0  0.53398457771E+02  0.24800311004E+01 -0.19560098932E+04  0.19567402097E+04  0.00000000000E+00 0. -1.
          1    1    1    2  502    0 -0.88029075946E+02 -0.98090512675E+02  0.58140226420E+02  0.14405260434E+03  0.00000000000E+00 0. -1.
         22    1    3    3    0    0 -0.33253048381E+02  0.66307236570E+02  0.84474438589E+02  0.11242039683E+03  0.00000000000E+00 0. -1.
         22    1    3    3    0    0  0.67883666556E+02  0.29303245004E+02  0.10654503078E+02  0.74702013284E+02  0.00000000000E+00 0. -1.
</event>
<event>
 7    1  0.6273950E-006  0.1262088E+03  0.7818608E-02  0.1281044E+00
          2   -1    0    0  502    0  0.00000000000E+00  0.00000000000E+00  0.16603567325E+03  0.16603567325E+03  0.00000000000E+00 0. -1.
          1   -1    0    0  501    0 -0.00000000000E+00 -0.00000000000E+00 -0.16753683570E+04  0.16753683570E+04  0.00000000000E+00 0. -1.
         25    2    1    2    0    0 -0.12938154596E+02  0.75963292277E+02 -0.49872273914E+03  0.51989171242E+03  0.12500081798E+03 0.  0.
          2    1    1    2  501    0 -0.16357072218E+02 -0.14897801934E+03 -0.11509275236E+04  0.11606447211E+04  0.00000000000E+00 0. -1.
          1    1    1    2  502    0  0.29295226814E+02  0.73014727060E+02  0.14031757902E+03  0.16086759669E+03  0.00000000000E+00 0. -1.
         22    1    3    3    0    0 -0.26241822811E+02 -0.29815263569E+02 -0.15548755871E+03  0.16048041662E+03  0.00000000000E+00 0. -1.
         22    1    3    3    0    0  0.13303668215E+02  0.10577855585E+03 -0.34323518043E+03  0.35941129580E+03  0.00000000000E+00 0. -1.
</event>
<event>
 7    1  0.6273950E-006  0.5688077E+02  0.7818608E-02  0.1534016E+00
          2   -1    0    0  502    0  0.00000000000E+00  0.00000000000E+00  0.37507903627E+03  0.37507903627E+03  0.00000000000E+00 0. -1.
          1   -1    0    0  501    0 -0.00000000000E+00 -0.00000000000E+00 -0.14787792227E+04  0.14787792227E+04  0.00000000000E+00 0. -1.
         25    2    1    2    0    0  0.19606816090E+02  0.58347081657E+02 -0.79396705792E+03  0.80610109663E+03  0.12500591889E+03 0.  0.
          2    1    1    2  501    0 -0.37368540704E+02 -0.42690717968E+02 -0.67717784737E+03  0.67955039710E+03  0.00000000000E+00 0. -1.
          1    1    1    2  502    0  0.17761724614E+02 -0.15656363689E+02  0.36744471883E+03  0.36820676526E+03  0.00000000000E+00 0. -1.
         22    1    3    3    0    0 -0.16030291400E+02 -0.11711098044E+02 -0.53734013001E+03  0.53770673734E+03  0.00000000000E+00 0.  1.
         22    1    3    3    0    0  0.35637107490E+02  0.70058179701E+02 -0.25662692791E+03  0.26839435929E+03  0.00000000000E+00 0.  1.
</event>
<event>
 7    1  0.6273950E-006  0.6575419E+02  0.7818608E-02  0.1473231E+00
          2   -1    0    0  502    0  0.00000000000E+00  0.00000000000E+00  0.90200288663E+03  0.90200288663E+03  0.00000000000E+00 0. -1.
          1   -1    0    0  501    0 -0.00000000000E+00 -0.00000000000E+00 -0.10027617254E+03  0.10027617254E+03  0.00000000000E+00 0. -1.
         25    2    1    2    0    0 -0.15294932060E+02  0.44600570192E+02  0.34521503393E+03  0.37016361663E+03  0.12499815048E+03 0.  0.
          2    1    1    2  501    0  0.46152831002E+02 -0.47968704924E+02 -0.74666620091E+02  0.10003091831E+03  0.00000000000E+00 0. -1.
          1    1    1    2  502    0 -0.30857898941E+02  0.33681347329E+01  0.53117830025E+03  0.53208452422E+03  0.00000000000E+00 0. -1.
         22    1    3    3    0    0 -0.58935879182E+02 -0.10877780138E+02  0.11978458326E+03  0.13394069711E+03  0.00000000000E+00 0. -1.
         22    1    3    3    0    0  0.43640947122E+02  0.55478350329E+02  0.22543045067E+03  0.23622291952E+03  0.00000000000E+00 0. -1.
</event>
<event>
 7    1  0.6273950E-006  0.5504570E+02  0.7818608E-02  0.1434264E+00
          2   -1    0    0  502    0  0.00000000000E+00  0.00000000000E+00  0.18364793855E+04  0.18364793855E+04  0.00000000000E+00 0. -1.
          1   -1    0    0  501    0 -0.00000000000E+00 -0.00000000000E+00 -0.64815853923E+03  0.64815853923E+03  0.00000000000E+00 0. -1.
         25    2    1    2    0    0  0.58863663522E+02 -0.77543083384E+02  0.39816402593E+03  0.42852812590E+03  0.12499560983E+03 0.  0.
          2    1    1    2  501    0 -0.16390669021E+02  0.52438258647E+02 -0.63135555454E+03  0.63374147825E+03  0.00000000000E+00 0. -1.
          1    1    1    2  502    0 -0.42472994502E+02  0.25104824737E+02  0.14215123749E+04  0.14223683206E+04  0.00000000000E+00 0. -1.
         22    1    3    3    0    0  0.85111200512E+02 -0.48030590913E+02  0.16285805532E+03  0.18993051440E+03  0.00000000000E+00 0. -1.
         22    1    3    3    0    0 -0.26247536990E+02 -0.29512492471E+02  0.23530597061E+03  0.23859761150E+03  0.00000000000E+00 0. -1.
</event>
<event>
 7    1  0.6273950E-006  0.5208719E+02  0.7818608E-02  0.1545551E+00
          2   -1    0    0  502    0  0.00000000000E+00  0.00000000000E+00  0.19834122921E+03  0.19834122921E+03  0.00000000000E+00 0. -1.
          1   -1    0    0  501    0 -0.00000000000E+00 -0.00000000000E+00 -0.88914404803E+03  0.88914404803E+03  0.00000000000E+00 0. -1.
         25    2    1    2    0    0 -0.12779182123E+02 -0.56466581929E+02 -0.33502772009E+02  0.14177223801E+03  0.12500059746E+03 0.  0.
          2    1    1    2  501    0 -0.18696102206E+02  0.15024937851E+02 -0.79662532352E+03  0.79698632301E+03  0.00000000000E+00 0. -1.
          1    1    1    2  502    0  0.31475284329E+02  0.41441644078E+02  0.13932527671E+03  0.14872671622E+03  0.00000000000E+00 0. -1.
         22    1    3    3    0    0 -0.29490510413E+02  0.28332097480E+02  0.13905188302E+02  0.43194353957E+02  0.00000000000E+00 0.  1.
         22    1    3    3    0    0  0.16711328290E+02 -0.84798679409E+02 -0.47407960311E+02  0.98577884049E+02  0.00000000000E+00 0.  1.
</event>
<event>
 7    1  0.6273950E-006  0.1381992E+03  0.7818608E-02  0.1234284E+00
          2   -1    0    0  502    0  0.00000000000E+00  0.00000000000E+00  0.18476586915E+03  0.18476586915E+03  0.00000000000E+00 0. -1.
          1   -1    0    0  501    0 -0.00000000000E+00 -0.00000000000E+00 -0.57742323951E+03  0.57742323951E+03  0.00000000000E+00 0. -1.
         25    2    1    2    0    0  0.94873347651E+01 -0.92997471570E+02 -0.68348154985E+02  0.17039680850E+03  0.12500025127E+03 0.  0.
          2    1    1    2  501    0  0.10091520673E+03  0.12130809458E+03 -0.41637872409E+03  0.44527606564E+03  0.00000000000E+00 0. -1.
          1    1    1    2  502    0 -0.11040254149E+03 -0.28310623009E+02  0.92069508717E+02  0.14651623452E+03  0.00000000000E+00 0. -1.
         22    1    3    3    0    0  0.18469795851E+02 -0.10648531882E+03 -0.85174367010E+01  0.10841034642E+03  0.00000000000E+00 0.  1.
         22    1    3    3    0    0 -0.89824610859E+01  0.13487847251E+02 -0.59830718284E+02  0.61986462078E+02  0.00000000000E+00 0.  1.
</event>
<event>
 7    1  0.6273950E-006  0.6205767E+02  0.7818608E-02  0.1417840E+00
          2   -1    0    0  502    0  0.00000000000E+00  0.00000000000E+00  0.22530341756E+04  0.22530341756E+04  0.00000000000E+00 0. -1.
          1   -1    0    0  501    0 -0.00000000000E+00 -0.00000000000E+00 -0.70980483134E+02  0.70980483134E+02  0.00000000000E+00 0. -1.
         25    2    1    2    0    0  0.31423644616E+02  0.74334280258E+02  0.78941021872E+03  0.80330972771E+03  0.12499997822E+03 0.  0.
          2    1    1    2  501    0 -0.47375197951E+02 -0.14690244729E+02 -0.53666714242E+02  0.73077553931E+02  0.00000000000E+00 0. -1.
          1    1    1    2  502    0  0.15951553335E+02 -0.59644035528E+02  0.14463101880E+04  0.14476273771E+04  0.00000000000E+00 0. -1.
         22    1    3    3    0    0 -0.17996400045E+01 -0.32650695386E+02  0.26889313096E+03  0.27087418203E+03  0.00000000000E+00 0.  1.
         22    1    3    3    0    0  0.33223284620E+02  0.10698497564E+03  0.52051708776E+03  0.53243554568E+03  0.00000000000E+00 0.  1.
</event>
<event>
 7    1  0.6273950E-006  0.1600534E+03  0.7818608E-02  0.1339942E+00
          2   -1    0    0  502    0  0.00000000000E+00  0.00000000000E+00  0.65661716794E+02  0.65661716794E+02  0.00000000000E+00 0. -1.
          1   -1    0    0  501    0 -0.00000000000E+00 -0.00000000000E+00 -0.93763244880E+03  0.93763244880E+03  0.00000000000E+00 0. -1.
         25    2    1    2    0    0 -0.16314608229E+03 -0.95338570957E+01 -0.17872072726E+03  0.27253230859E+03  0.12500088910E+03 0.  0.
          2    1    1    2  501    0  0.15370696880E+03  0.44644794909E+02 -0.66695481861E+03  0.68589191571E+03  0.00000000000E+00 0. -1.
          1    1    1    2  502    0  0.94391134864E+01 -0.35110937814E+02 -0.26295186136E+02  0.44869941291E+02  0.00000000000E+00 0. -1.
         22    1    3    3    0    0 -0.70556826513E+02  0.56084111935E+02 -0.98773365487E+02  0.13371563524E+03  0.00000000000E+00 0.  1.
         22    1    3    3    0    0 -0.92589255777E+02 -0.65617969031E+02 -0.79947361777E+02  0.13881667335E+03  0.00000000000E+00 0.  1.
</event>
<event>
 7    1  0.6273950E-006  0.1015428E+03  0.7818608E-02  0.1448963E+00
          2   -1    0    0  502    0  0.00000000000E+00  0.00000000000E+00  0.86583823795E+03  0.86583823795E+03  0.00000000000E+00 0. -1.
          1   -1    0    0  501    0 -0.00000000000E+00 -0.00000000000E+00 -0.12720180110E+04  0.12720180110E+04  0.00000000000E+00 0. -1.
         25    2    1    2    0    0 -0.75732597874E+02 -0.31575619566E+02  0.21457929530E+03  0.26153505077E+03  0.12499545062E+03 0.  0.
          2    1    1    2  501    0 -0.18534134431E+02 -0.15199205819E+02 -0.12440138568E+04  0.12442447532E+04  0.00000000000E+00 0. -1.
          1    1    1    2  502    0  0.94266732304E+02  0.46774825385E+02  0.62325478839E+03  0.63207644502E+03  0.00000000000E+00 0. -1.
         22    1    3    3    0    0 -0.29157931606E+02 -0.31288091082E+02  0.21047804603E+03  0.21477927619E+03  0.00000000000E+00 0. -1.
         22    1    3    3    0    0 -0.46574666268E+02 -0.28752848400E+00  0.41012492702E+01  0.46755774576E+02  0.00000000000E+00 0. -1.
</event>
<event>
 7    1  0.6273950E-006  0.4728591E+02  0.7818608E-02  0.1583075E+00
          2   -1    0    0  502    0  0.00000000000E+00  0.00000000000E+00  0.96100040443E+03  0.96100040443E+03  0.00000000000E+00 0. -1.
          1   -1    0    0  501    0 -0.00000000000E+00 -0.00000000000E+00 -0.79789575887E+03  0.79789575887E+03  0.00000000000E+00 0. -1.
         25    2    1    2    0    0  0.45431478896E+01 -0.28566489215E+02  0.13220255579E+03  0.18423903309E+03  0.12501928273E+03 0.  0.
          2    1    1    2  501    0  0.50006062923E+01  0.47110193874E+02 -0.77101489663E+03  0.77246899437E+03  0.00000000000E+00 0. -1.
          1    1    1    2  502    0 -0.95437541819E+01 -0.18543704660E+02  0.80191698639E+03  0.80218813585E+03  0.00000000000E+00 0. -1.
         22    1    3    3    0    0 -0.90673843204E+01 -0.57092295204E+02  0.10823487401E+02  0.58812375480E+02  0.00000000000E+00 0.  1.
         22    1    3    3    0    0  0.13610532210E+02  0.28525805990E+02  0.12137906839E+03  0.12542665761E+03  0.00000000000E+00 0.  1.
</event>
<event>
 7    1  0.6273950E-006  0.1417860E+03  0.7818608E-02  0.1227050E+00
          2   -1    0    0  502    0  0.00000000000E+00  0.00000000000E+00  0.88823504016E+03  0.88823504016E+03  0.00000000000E+00 0. -1.
          1   -1    0    0  501    0 -0.00000000000E+00 -0.00000000000E+00 -0.20364564487E+03  0.20364564487E+03  0.00000000000E+00 0. -1.
         25    2    1    2    0    0  0.79239405120E+02  0.10441313877E+03  0.54319612481E+03  0.57259800218E+03  0.12500182087E+03 0.  0.
          2    1    1    2  501    0  0.34858650296E+02 -0.14059103168E+03 -0.14740502025E+03  0.20666205187E+03  0.00000000000E+00 0. -1.
          1    1    1    2  502    0 -0.11409805542E+03  0.36177892907E+02  0.28879829073E+03  0.31262063098E+03  0.00000000000E+00 0. -1.
         22    1    3    3    0    0 -0.21502809693E+02 -0.12833620710E+02  0.10467195342E+03  0.10762569618E+03  0.00000000000E+00 0. -1.
         22    1    3    3    0    0  0.10074221481E+03  0.11724675948E+03  0.43852417138E+03  0.46497230600E+03  0.00000000000E+00 0. -1.
</event>
<event>
 7    1  0.6273950E-006  0.6451892E+02  0.7818608E-02  0.1481653E+00
          2   -1    0    0  502    0  0.00000000000E+00  0.00000000000E+00  0.81045759473E+03  0.81045759473E+03  0.00000000000E+00 0. -1.
          1   -1    0    0  501    0 -0.00000000000E+00 -0.00000000000E+00 -0.47282816200E+03  0.47282816200E+03  0.00000000000E+00 0. -1.
         25    2    1    2    0    0 -0.91935384942E+02 -0.81487673765E+01  0.42725125595E+03  0.45462901754E+03  0.12500156188E+03 0.  0.
          2    1    1    2  501    0  0.64309501444E+02 -0.30305782519E+01 -0.45627482726E+03  0.46079454681E+03  0.00000000000E+00 0. -1.
          1    1    1    2  502    0  0.27625883498E+02  0.11179345628E+02  0.36665300404E+03  0.36786219238E+03  0.00000000000E+00 0. -1.
         22    1    3    3    0    0 -0.11643067822E+03  0.19290611852E+02  0.34166004180E+03  0.36146896783E+03  0.00000000000E+00 0.  1.
         22    1    3    3    0    0  0.24495293277E+02 -0.27439379228E+02  0.85591214144E+02  0.93160049720E+02  0.00000000000E+00 0.  1.
</event>
<event>
 7    1  0.6273950E-006  0.6589748E+02  0.7818608E-02  0.1475868E+00
          2   -1    0    0  502    0  0.00000000000E+00  0.00000000000E+00  0.15287977371E+04  0.15287977371E+04  0.00000000000E+00 0. -1.
          1   -1    0    0  501    0 -0.00000000000E+00 -0.00000000000E+00 -0.14691270622E+03  0.14691270622E+03  0.00000000000E+00 0. -1.
         25    2    1    2    0    0  0.24151866773E+02  0.49219607397E+02  0.25351749430E+02  0.13883040501E+03  0.12500115094E+03 0.  0.
          2    1    1    2  501    0 -0.25269855708E+02  0.16895629074E+02 -0.86832940007E+02  0.91999931302E+02  0.00000000000E+00 0. -1.
          1    1    1    2  502    0  0.11179889347E+01 -0.66115236471E+02  0.14433662214E+04  0.14448801070E+04  0.00000000000E+00 0. -1.
         22    1    3    3    0    0  0.33431224079E+02 -0.15108955880E+02 -0.34584741875E+02  0.50418564654E+02  0.00000000000E+00 0. -1.
         22    1    3    3    0    0 -0.92793573052E+01  0.64328563277E+02  0.59936491306E+02  0.88411840357E+02  0.00000000000E+00 0. -1.
</event>
<event>
 7    1  0.6273950E-006  0.8118326E+02  0.7818608E-02  0.1434884E+00
          2   -1    0    0  502    0  0.00000000000E+00  0.00000000000E+00  0.19222769472E+03  0.19222769472E+03  0.00000000000E+00 0. -1.
          1   -1    0    0  501    0 -0.00000000000E+00 -0.00000000000E+00 -0.30945257595E+03  0.30945257595E+03  0.00000000000E+00 0. -1.
         25    2    1    2    0    0 -0.40593534606E+02 -0.10195304150E+03  0.14172811427E+01  0.16634064644E+03  0.12499977700E+03 0.  0.
          2    1    1    2  501    0  0.13136384386E+02  0.30596305932E+02 -0.21203986097E+03  0.21463830313E+03  0.00000000000E+00 0. -1.
          1    1    1    2  502    0  0.27457150220E+02  0.71356735568E+02  0.93397698605E+02  0.12070132109E+03  0.00000000000E+00 0. -1.
         22    1    3    3    0    0  0.44553960805E+02 -0.25931460842E+02 -0.62964540135E+01  0.51934010224E+02  0.00000000000E+00 0.  1.
         22    1    3    3    0    0 -0.85147495411E+02 -0.76021580658E+02  0.77137351562E+01  0.11440663622E+03  0.00000000000E+00 0.  1.
</event>
<event>
 7    1  0.6273950E-006  0.1214145E+03  0.7818608E-02  0.1412604E+00
          2   -1    0    0  502    0  0.00000000000E+00  0.00000000000E+00  0.99997878236E+03  0.99997878236E+03  0.00000000000E+00 0. -1.
          1   -1    0    0  501    0 -0.00000000000E+00 -0.00000000000E+00 -0.11358541496E+03  0.11358541496E+03  0.00000000000E+00 0. -1.
         25    2    1    2    0    0 -0.13265165993E+03 -0.28522639920E+02  0.77447905887E+00  0.18449125865E+03  0.12500568320E+03 0.  0.
          2    1    1    2  501    0  0.20526222999E+02 -0.16603932918E+02 -0.77892467711E+01  0.27526147282E+02  0.00000000000E+00 0. -1.
          1    1    1    2  502    0  0.11212543693E+03  0.45126572838E+02  0.89340813511E+03  0.90154679139E+03  0.00000000000E+00 0. -1.
         22    1    3    3    0    0 -0.11698454264E+03 -0.69288096849E+02 -0.17624030715E+02  0.13710153187E+03  0.00000000000E+00 0. -1.
         22    1    3    3    0    0 -0.15667117287E+02  0.40765456929E+02  0.18398509774E+02  0.47389726783E+02  0.00000000000E+00 0. -1.
</event>
<event>
 7    1  0.6273950E-006  0.1161966E+03  0.7818608E-02  0.1253389E+00
          2   -1    0    0  502    0  0.00000000000E+00  0.00000000000E+00  0.53753678809E+02  0.53753678809E+02  0.00000000000E+00 0. -1.
          1   -1    0    0  501    0 -0.00000000000E+00 -0.00000000000E+00 -0.24559984057E+04  0.24559984057E+04  0.00000000000E+00 0. -1.
         25    2    1    2    0    0 -0.70040797608E+02  0.27571623042E+02 -0.97795246017E+03  0.98877822802E+03  0.12500184851E+03 0.  0.
          2    1    1    2  501    0  0.13991105923E+03  0.65271180812E+02 -0.13917768551E+04  0.14003136241E+04  0.00000000000E+00 0. -1.
          1    1    1    2  502    0 -0.69870261620E+02 -0.92842803854E+02 -0.32515411661E+02  0.12066023240E+03  0.00000000000E+00 0. -1.
         22    1    3    3    0    0 -0.87352440543E+02  0.31215292101E+02 -0.40238270951E+03  0.41293666372E+03  0.00000000000E+00 0.  1.
         22    1    3    3    0    0  0.17311642934E+02 -0.36436690595E+01 -0.57556975066E+03  0.57584156430E+03  0.00000000000E+00 0.  1.
</event>
<event>
 7    1  0.6273950E-006  0.6493535E+02  0.7818608E-02  0.1378657E+00
          2   -1    0    0  502    0  0.00000000000E+00  0.00000000000E+00  0.75717410551E+03  0.75717410551E+03  0.00000000000E+00 0. -1.
          1   -1    0    0  501    0 -0.00000000000E+00 -0.00000000000E+00 -0.13277721985E+04  0.13277721985E+04  0.00000000000E+00 0. -1.
         25    2    1    2    0    0 -0.34361147414E+02 -0.76566413176E+01  0.24617559163E+02  0.13217622688E+03  0.12500087249E+03 0.  0.
          2    1    1    2  501    0  0.31447280051E+02 -0.57213296610E+02 -0.12716005068E+04  0.12732753597E+04  0.00000000000E+00 0. -1.
          1    1    1    2  502    0  0.29138673640E+01  0.64869937927E+02  0.67638485463E+03  0.67949471745E+03  0.00000000000E+00 0. -1.
         22    1    3    3    0    0  0.26698786551E+02 -0.39841260909E+02 -0.17805491447E+02  0.51158447980E+02  0.00000000000E+00 0.  1.
         22    1    3    3    0    0 -0.61059933966E+02  0.32184619591E+02  0.42423050610E+02  0.81017778895E+02  0.00000000000E+00 0.  1.
</event>
<event>
 7    1  0.6273950E-006  0.8693098E+02  0.7818608E-02  0.1356983E+00
          2   -1    0    0  502    0  0.00000000000E+00  0.00000000000E+00  0.17455358465E+04  0.17455358465E+04  0.00000000000E+00 0. -1.
          1   -1    0    0  501    0 -0.00000000000E+00 -0.00000000000E+00 -0.10755060450E+03  0.10755060450E+03  0.00000000000E+00 0. -1.
         25    2    1    2    0    0 -0.94335635952E+02  0.45917088656E+02  0.13915830588E+04  0.14011193977E+04  0.12499826293E+03 0.  0.
          2    1    1    2  501    0  0.17530032259E+02 -0.55142981675E+02 -0.89884025394E+02  0.10689802842E+03  0.00000000000E+00 0. -1.
          1    1    1    2  502    0  0.76805603693E+02  0.92258930191E+01  0.33628620857E+03  0.34506902488E+03  0.00000000000E+00 0. -1.
         22    1    3    3    0    0 -0.51146997582E+02  0.59996204316E+02  0.35977273988E+03  0.36830963095E+03  0.00000000000E+00 0. -1.
         22    1    3    3    0    0 -0.43188638371E+02 -0.14079115659E+02  0.10318103189E+04  0.10328097667E+04  0.00000000000E+00 0. -1.
</event>
<event>
 7    1  0.6273950E-006  0.7355294E+02  0.7818608E-02  0.1465212E+00
          2   -1    0    0  502    0  0.00000000000E+00  0.00000000000E+00  0.45192611276E+04  0.45192611276E+04  0.00000000000E+00 0. -1.
          1   -1    0    0  501    0 -0.00000000000E+00 -0.00000000000E+00 -0.13447798467E+04  0.13447798467E+04  0.00000000000E+00 0. -1.
         25    2    1    2    0    0  0.91264122926E+02  0.13571143540E+02  0.34720152631E+04  0.34754897620E+04  0.12500313102E+03 0.  0.
          2    1    1    2  501    0 -0.28191202590E+02 -0.83168531601E+01 -0.13419236628E+04  0.13422455180E+04  0.00000000000E+00 0. -1.
          1    1    1    2  502    0 -0.63072920337E+02 -0.52542903801E+01  0.10443896806E+04  0.10463056943E+04  0.00000000000E+00 0. -1.
         22    1    3    3    0    0  0.90049471898E+02 -0.11210639096E+02  0.12321315790E+04  0.12354686615E+04  0.00000000000E+00 0.  1.
         22    1    3    3    0    0  0.12146510284E+01  0.24781782637E+02  0.22398836841E+04  0.22400211004E+04  0.00000000000E+00 0.  1.
</event>
<event>
 7    1  0.6273950E-006  0.5168890E+02  0.7818608E-02  0.1487064E+00
          2   -1    0    0  502    0  0.00000000000E+00  0.00000000000E+00  0.24184394485E+02  0.24184394485E+02  0.00000000000E+00 0. -1.
          1   -1    0    0  501    0 -0.00000000000E+00 -0.00000000000E+00 -0.25663930198E+04  0.25663930198E+04  0.00000000000E+00 0. -1.
         25    2    1    2    0    0 -0.29420172123E+02 -0.15358672763E+02 -0.21245374283E+03  0.24872214803E+03  0.12499871487E+03 0.  0.
          2    1    1    2  501    0 -0.35676948331E+02 -0.31166393903E+01 -0.21416471027E+04  0.21419465144E+04  0.00000000000E+00 0. -1.
          1    1    1    2  502    0  0.65097120454E+02  0.18475312153E+02 -0.18810777980E+03  0.19990875186E+03  0.00000000000E+00 0. -1.
         22    1    3    3    0    0 -0.21581450207E+02  0.39064345880E+02 -0.20617704816E+02  0.49161691021E+02  0.00000000000E+00 0.  1.
         22    1    3    3    0    0 -0.78387219153E+01 -0.54423018643E+02 -0.19183603801E+03  0.19956045700E+03  0.00000000000E+00 0.  1.
</event>
<event>
 7    1  0.6273950E-006  0.3622858E+02  0.7818608E-02  0.1606710E+00
          2   -1    0    0  502    0  0.00000000000E+00  0.00000000000E+00  0.39019162532E+02  0.39019162532E+02  0.00000000000E+00 0. -1.
          1   -1    0    0  501    0 -0.00000000000E+00 -0.00000000000E+00 -0.15374530959E+04  0.15374530959E+04  0.00000000000E+00 0. -1.
         25    2    1    2    0    0  0.41939439899E+02 -0.38616420562E+02 -0.13700305941E+03  0.19402067696E+03  0.12499616092E+03 0.  0.
          2    1    1    2  501    0 -0.19963940291E+02  0.30038535088E+02 -0.13581562507E+04  0.13586350775E+04  0.00000000000E+00 0. -1.
          1    1    1    2  502    0 -0.21975499608E+02  0.85778854739E+01 -0.32746232146E+01  0.23816503929E+02  0.00000000000E+00 0. -1.
         22    1    3    3    0    0 -0.36120484509E+02 -0.23774356015E+02 -0.94465697718E+02  0.10389262462E+03  0.00000000000E+00 0. -1.
         22    1    3    3    0    0  0.78059924408E+02 -0.14842064546E+02 -0.42537361692E+02  0.90128052338E+02  0.00000000000E+00 0. -1.
</event>
<event>
 7    1  0.6273950E-006  0.3818859E+03  0.7818608E-02  0.1193291E+00
          2   -1    0    0  502    0  0.00000000000E+00  0.00000000000E+00  0.17415691765E+03  0.17415691765E+03  0.00000000000E+00 0. -1.
          1   -1    0    0  501    0 -0.00000000000E+00 -0.00000000000E+00 -0.16441357800E+04  0.16441357800E+04  0.00000000000E+00 0. -1.
         25    2    1    2    0    0 -0.39552875303E+03 -0.98353339828E+02 -0.58498294779E+03  0.72383973117E+03  0.12499013274E+03 0.  0.
          2    1    1    2  501    0  0.27776772889E+02  0.57351392672E+02 -0.65644294993E+03  0.65952867858E+03  0.00000000000E+00 0. -1.
          1    1    1    2  502    0  0.36775198014E+03  0.41001947155E+02 -0.22855296463E+03  0.43492428790E+03  0.00000000000E+00 0. -1.
         22    1    3    3    0    0 -0.30961342245E+03 -0.55867621990E+02 -0.35309647747E+03  0.47292577108E+03  0.00000000000E+00 0. -1.
         22    1    3    3    0    0 -0.85915330576E+02 -0.42485717838E+02 -0.23188647033E+03  0.25091396009E+03  0.00000000000E+00 0. -1.
</event>
<event>
 7    1  0.6273950E-006  0.5890810E+02  0.7818608E-02  0.1408765E+00
          2   -1    0    0  502    0  0.00000000000E+00  0.00000000000E+00  0.83753658194E+03  0.83753658194E+03  0.00000000000E+00 0. -1.
          1   -1    0    0  501    0 -0.00000000000E+00 -0.00000000000E+00 -0.14457041305E+04  0.14457041305E+04  0.00000000000E+00 0. -1.
         25    2    1    2    0    0 -0.29892623340E+02 -0.98929489606E+02  0.42532979717E+03  0.45520433769E+03  0.12499975939E+03 0.  0.
          2    1    1    2  501    0 -0.86602388634E+01  0.58219919155E+02 -0.14281793809E+04  0.14293917947E+04  0.00000000000E+00 0. -1.
          1    1    1    2  502    0  0.38552862203E+02  0.40709570451E+02  0.39468203518E+03  0.39864458005E+03  0.00000000000E+00 0. -1.
         22    1    3    3    0    0 -0.78966508993E+02 -0.54640824416E+02  0.25787750880E+03  0.27517655928E+03  0.00000000000E+00 0. -1.
         22    1    3    3    0    0  0.49073885653E+02 -0.44288665190E+02  0.16745228837E+03  0.18002777841E+03  0.00000000000E+00 0. -1.
</event>
<event>
 7    1  0.6273950E-006  0.7450602E+02  0.7818608E-02  0.1497838E+00
          2   -1    0    0  502    0  0.00000000000E+00  0.00000000000E+00  0.25998959992E+04  0.25998959992E+04  0.00000000000E+00 0. -1.
          1   -1    0    0  501    0 -0.00000000000E+00 -0.00000000000E+00 -0.27243770351E+03  0.27243770351E+03  0.00000000000E+00 0. -1.
         25    2    1    2    0    0 -0.33066915843E+02  0.46881308788E+02  0.10949754836E+04  0.11035792934E+04  0.12499867600E+03 0.  0.
          2    1    1    2  501    0  0.55996014129E+02 -0.49282452772E+02 -0.26285726086E+03  0.27323662518E+03  0.00000000000E+00 0. -1.
          1    1    1    2  502    0 -0.22929098286E+02  0.24011439840E+01  0.14953400729E+04  0.14955177842E+04  0.00000000000E+00 0. -1.
         22    1    3    3    0    0  0.24359991490E+02 -0.20113909163E+02  0.59779647485E+03  0.59863060719E+03  0.00000000000E+00 0.  1.
         22    1    3    3    0    0 -0.57426907333E+02  0.66995217951E+02  0.49717900877E+03  0.50494868618E+03  0.00000000000E+00 0.  1.
</event>
<event>
 7    1  0.6273950E-006  0.6204792E+02  0.7818608E-02  0.1419197E+00
          2   -1    0    0  502    0  0.00000000000E+00  0.00000000000E+00  0.17952746690E+03  0.17952746690E+03  0.00000000000E+00 0. -1.
          1   -1    0    0  501    0 -0.00000000000E+00 -0.00000000000E+00 -0.67541876713E+03  0.67541876713E+03  0.00000000000E+00 0. -1.
         25    2    1    2    0    0  0.36295761816E+02  0.28287128155E+02  0.64585739533E+02  0.14803352019E+03  0.12500024562E+03 0.  0.
          2    1    1    2  501    0 -0.60900558191E+02  0.14194133182E+02 -0.62372285097E+03  0.62684969987E+03  0.00000000000E+00 0. -1.
          1    1    1    2  502    0  0.24604796375E+02 -0.42481261337E+02  0.63245811209E+02  0.80063013963E+02  0.00000000000E+00 0. -1.
         22    1    3    3    0    0  0.39333230768E+02 -0.39194174737E+02  0.14103770052E+01  0.55545256676E+02  0.00000000000E+00 0.  1.
         22    1    3    3    0    0 -0.30374689516E+01  0.67481302892E+02  0.63175362528E+02  0.92488263516E+02  0.00000000000E+00 0.  1.
</event>
<event>
 7    1  0.6273950E-006  0.5611970E+02  0.7818608E-02  0.1475352E+00
          2   -1    0    0  502    0  0.00000000000E+00  0.00000000000E+00  0.41439942023E+04  0.41439942023E+04  0.00000000000E+00 0. -1.
          1   -1    0    0  501    0 -0.00000000000E+00 -0.00000000000E+00 -0.97858063808E+01  0.97858063808E+01  0.00000000000E+00 0. -1.
         25    2    1    2    0    0 -0.36581465389E+02  0.51047167238E+02  0.22647100875E+04  0.22690267110E+04  0.12500567141E+03 0.  0.
          2    1    1    2  501    0  0.11417013537E+01 -0.56288227260E+02  0.98971410529E+02  0.11386398953E+03  0.00000000000E+00 0. -1.
          1    1    1    2  502    0  0.35439764035E+02  0.52410600224E+01  0.17705268979E+04  0.17708893082E+04  0.00000000000E+00 0. -1.
         22    1    3    3    0    0 -0.68645936277E+02  0.20038583168E+01  0.73683112367E+03  0.74002458393E+03  0.00000000000E+00 0.  1.
         22    1    3    3    0    0  0.32064470888E+02  0.49043308921E+02  0.15278789638E+04  0.15290021271E+04  0.00000000000E+00 0.  1.
</event>
<event>
 7    1  0.6273950E-006  0.1562903E+03  0.7818608E-02  0.1320520E+00
          2   -1    0    0  502    0  0.00000000000E+00  0.00000000000E+00  0.15369441800E+04  0.15369441800E+04  0.00000000000E+00 0. -1.
          1   -1    0    0  501    0 -0.00000000000E+00 -0.00000000000E+00 -0.19052051635E+03  0.19052051635E+03  0.00000000000E+00 0. -1.
         25    2    1    2    0    0  0.15696924946E+03 -0.68609309225E+02  0.10826070141E+04  0.11031806312E+04  0.12499190133E+03 0.  0.
          2    1    1    2  501    0 -0.18353134185E+02  0.40174059353E+02 -0.16599927174E+03  0.17177470943E+03  0.00000000000E+00 0. -1.
          1    1    1    2  502    0 -0.13861611528E+03  0.28435249872E+02  0.42981592124E+03  0.45250935571E+03  0.00000000000E+00 0. -1.
         22    1    3    3    0    0  0.51044731208E+02 -0.87446352434E+02  0.62109447436E+03  0.62929387031E+03  0.00000000000E+00 0.  1.
         22    1    3    3    0    0  0.10592451826E+03  0.18837043208E+02  0.46151253978E+03  0.47388676088E+03  0.00000000000E+00 0.  1.
</event>
<event>
 7    1  0.6273950E-006  0.1968620E+03  0.7818608E-02  0.1211891E+00
          2   -1    0    0  502    0  0.00000000000E+00  0.00000000000E+00  0.10516288941E+04  0.10516288941E+04  0.00000000000E+00 0. -1.
          1   -1    0    0  501    0 -0.00000000000E+00 -0.00000000000E+00 -0.27617327756E+04  0.27617327756E+04  0.00000000000E+00 0. -1.
         25    2    1    2    0    0 -0.16552932553E+03  0.96808420997E+02 -0.14722363371E+04  0.14899249649E+04  0.12499896256E+03 0.  0.
          2    1    1    2  501    0 -0.31525329089E+02 -0.96054044310E+02 -0.12693149140E+04  0.12733344324E+04  0.00000000000E+00 0. -1.
          1    1    1    2  502    0  0.19705465462E+03 -0.75437668694E+00  0.10314473697E+04  0.10501022723E+04  0.00000000000E+00 0. -1.
         22    1    3    3    0    0  0.14461441815E+02  0.19376574026E+02 -0.69842511013E+02  0.73909141958E+02  0.00000000000E+00 0. -1.
         22    1    3    3    0    0 -0.17999076735E+03  0.77431846971E+02 -0.14023938261E+04  0.14160158229E+04  0.00000000000E+00 0. -1.
</event>
<event>
 7    1  0.6273950E-006  0.1440071E+03  0.7818608E-02  0.1257207E+00
          2   -1    0    0  502    0  0.00000000000E+00  0.00000000000E+00  0.12728746241E+04  0.12728746241E+04  0.00000000000E+00 0. -1.
          1   -1    0    0  501    0 -0.00000000000E+00 -0.00000000000E+00 -0.25800991712E+03  0.25800991712E+03  0.00000000000E+00 0. -1.
         25    2    1    2    0    0  0.41444446053E+02 -0.19749032689E+03 -0.70387853975E+01  0.23745894524E+03  0.12496853545E+03 0.  0.
          2    1    1    2  501    0  0.12447800295E+02  0.12938110125E+03 -0.10258741184E+03  0.16558560976E+03  0.00000000000E+00 0. -1.
          1    1    1    2  502    0 -0.53892246348E+02  0.68109225638E+02  0.11244909042E+04  0.11278399862E+04  0.00000000000E+00 0. -1.
         22    1    3    3    0    0  0.55422868012E+02 -0.51941493918E+02 -0.42447969749E+02  0.87014040390E+02  0.00000000000E+00 0.  1.
         22    1    3    3    0    0 -0.13978421960E+02 -0.14554883297E+03  0.35409184351E+02  0.15044490485E+03  0.00000000000E+00 0.  1.
</event>
<event>
 7    1  0.6273950E-006  0.2840367E+03  0.7818608E-02  0.1321696E+00
          2   -1    0    0  502    0  0.00000000000E+00  0.00000000000E+00  0.17813037271E+03  0.17813037271E+03  0.00000000000E+00 0. -1.
          1   -1    0    0  501    0 -0.00000000000E+00 -0.00000000000E+00 -0.16125895546E+04  0.16125895546E+04  0.00000000000E+00 0. -1.
         25    2    1    2    0    0  0.14699956664E+03  0.24943118284E+03 -0.91540686425E+03  0.96820609713E+03  0.12501412651E+03 0.  0.
          2    1    1    2  501    0 -0.23395086610E+02  0.55728679086E+01 -0.53796454698E+03  0.53850184841E+03  0.00000000000E+00 0. -1.
          1    1    1    2  502    0 -0.12360448003E+03 -0.25500405075E+03  0.18912229319E+02  0.28401198179E+03  0.00000000000E+00 0. -1.
         22    1    3    3    0    0  0.82710718508E+02  0.23545091071E+03 -0.72058225483E+03  0.76257260657E+03  0.00000000000E+00 0. -1.
         22    1    3    3    0    0  0.64288848129E+02  0.13980272129E+02 -0.19482460942E+03  0.20563349056E+03  0.00000000000E+00 0. -1.
</event>
<event>
 7    1  0.6273950E-006  0.4832195E+02  0.7818608E-02  0.1495829E+00
          2   -1    0    0  502    0  0.00000000000E+00  0.00000000000E+00  0.15027301609E+04  0.15027301609E+04  0.00000000000E+00 0. -1.
          1   -1    0    0  501    0 -0.00000000000E+00 -0.00000000000E+00 -0.38586072843E+03  0.38586072843E+03  0.00000000000E+00 0. -1.
         25    2    1    2    0    0  0.41608404935E+02  0.59852594249E+02 -0.49182912087E+02  0.15282430145E+03  0.12499086316E+03 0.  0.
          2    1    1    2  501    0  0.35997275818E+00 -0.36041464620E+02 -0.28331386683E+03  0.28559738075E+03  0.00000000000E+00 0. -1.
          1    1    1    2  502    0 -0.41968377693E+02 -0.23811129629E+02  0.14493662114E+04  0.14501692071E+04  0.00000000000E+00 0. -1.
         22    1    3    3    0    0  0.99846258699E+01 -0.37237190779E+02 -0.30180916492E+02  0.48961095281E+02  0.00000000000E+00 0.  1.
         22    1    3    3    0    0  0.31623779065E+02  0.97089785028E+02 -0.19001995595E+02  0.10386320617E+03  0.00000000000E+00 0.  1.
</event>
<event>
 7    1  0.6273950E-006  0.9347631E+02  0.7818608E-02  0.1309795E+00
          2   -1    0    0  502    0  0.00000000000E+00  0.00000000000E+00  0.27186594395E+03  0.27186594395E+03  0.00000000000E+00 0. -1.
          1   -1    0    0  501    0 -0.00000000000E+00 -0.00000000000E+00 -0.75818735794E+03  0.75818735794E+03  0.00000000000E+00 0. -1.
         25    2    1    2    0    0 -0.43670321850E+02  0.24879288977E+02  0.85532196623E+02  0.15958478294E+03  0.12500188101E+03 0.  0.
          2    1    1    2  501    0 -0.81321179608E+02 -0.13560503141E+01 -0.69125196042E+03  0.69602029130E+03  0.00000000000E+00 0. -1.
          1    1    1    2  502    0  0.12499150146E+03 -0.23523238663E+02  0.11939834981E+03  0.17444822765E+03  0.00000000000E+00 0. -1.
         22    1    3    3    0    0  0.22412028409E+02 -0.35038787030E+02  0.45996507695E+02  0.62013662479E+02  0.00000000000E+00 0.  1.
         22    1    3    3    0    0 -0.66082350260E+02  0.59918076008E+02  0.39535688928E+02  0.97571120457E+02  0.00000000000E+00 0.  1.
</event>
<event>
 7    1  0.6273950E-006  0.3633992E+02  0.7818608E-02  0.1556570E+00
          2   -1    0    0  502    0  0.00000000000E+00  0.00000000000E+00  0.39077190707E+03  0.39077190707E+03  0.00000000000E+00 0. -1.
          1   -1    0    0  501    0 -0.00000000000E+00 -0.00000000000E+00 -0.12046008167E+03  0.12046008167E+03  0.00000000000E+00 0. -1.
         25    2    1    2    0    0  0.63745307231E+01  0.55771449819E+02 -0.49042600648E+02  0.14553576516E+03  0.12499757200E+03 0.  0.
          2    1    1    2  501    0 -0.22135701371E+02 -0.23154364259E+02 -0.10613669693E+02  0.33745575173E+02  0.00000000000E+00 0. -1.
          1    1    1    2  502    0  0.15761170648E+02 -0.32617085560E+02  0.32996809574E+03  0.33195064841E+03  0.00000000000E+00 0. -1.
         22    1    3    3    0    0  0.36862830118E+02  0.85723941764E+02 -0.41541092911E+02  0.10214266903E+03  0.00000000000E+00 0. -1.
         22    1    3    3    0    0 -0.30488299395E+02 -0.29952491945E+02 -0.75015077375E+01  0.43393096133E+02  0.00000000000E+00 0. -1.
</event>
<event>
 7    1  0.6273950E-006  0.1414482E+03  0.7818608E-02  0.1277293E+00
          2   -1    0    0  502    0  0.00000000000E+00  0.00000000000E+00  0.29312576299E+04  0.29312576299E+04  0.00000000000E+00 0. -1.
          1   -1    0    0  501    0 -0.00000000000E+00 -0.00000000000E+00 -0.42000502670E+03  0.42000502670E+03  0.00000000000E+00 0. -1.
         25    2    1    2    0    0 -0.10548197725E+03 -0.99897612633E+02  0.11990634497E+04  0.12142833228E+04  0.12499940449E+03 0.  0.
          2    1    1    2  501    0 -0.35138397331E+02  0.63701806289E+02 -0.40610045810E+03  0.41256539986E+03  0.00000000000E+00 0. -1.
          1    1    1    2  502    0  0.14062037458E+03  0.36195806344E+02  0.17182896116E+04  0.17244139339E+04  0.00000000000E+00 0. -1.
         22    1    3    3    0    0 -0.71438484200E+02  0.13314248571E+02  0.51023461069E+03  0.51538343414E+03  0.00000000000E+00 0.  1.
         22    1    3    3    0    0 -0.34043493055E+02 -0.11321186120E+03  0.68882883896E+03  0.69889988863E+03  0.00000000000E+00 0.  1.
</event>
<event>
 7    1  0.6273950E-006  0.5104672E+02  0.7818608E-02  0.1548602E+00
          2   -1    0    0  502    0  0.00000000000E+00  0.00000000000E+00  0.10294840039E+04  0.10294840039E+04  0.00000000000E+00 0. -1.
          1   -1    0    0  501    0 -0.00000000000E+00 -0.00000000000E+00 -0.55921259972E+02  0.55921259972E+02  0.00000000000E+00 0. -1.
         25    2    1    2    0    0 -0.51080778948E+01 -0.37085642862E+02  0.37304566773E+03  0.39520776209E+03  0.12499867055E+03 0.  0.
          2    1    1    2  501    0 -0.22758607511E+02 -0.76107962232E+01 -0.40469998592E+02  0.47049965155E+02  0.00000000000E+00 0. -1.
          1    1    1    2  502    0  0.27866685406E+02  0.44696439086E+02  0.64098707476E+03  0.64314753659E+03  0.00000000000E+00 0. -1.
         22    1    3    3    0    0 -0.28946332450E+02 -0.23294947549E+02  0.22199468495E+02  0.43282342186E+02  0.00000000000E+00 0. -1.
         22    1    3    3    0    0  0.23838254555E+02 -0.13790695314E+02  0.35084619924E+03  0.35192541991E+03  0.00000000000E+00 0. -1.
</event>
<event>
 7    1  0.6273950E-006  0.4819263E+02  0.7818608E-02  0.1490566E+00
          2   -1    0    0  502    0  0.00000000000E+00  0.00000000000E+00  0.16175888962E+04  0.16175888962E+04  0.00000000000E+00 0. -1.
          1   -1    0    0  501    0 -0.00000000000E+00 -0.00000000000E+00 -0.13255310159E+03  0.13255310159E+03  0.00000000000E+00 0. -1.
         25    2    1    2    0    0 -0.60912806379E+02  0.50492560552E+02  0.89818362967E+03  0.91028498507E+03  0.12500021114E+03 0.  0.
          2    1    1    2  501    0  0.34726814501E+02 -0.14109102403E+02 -0.12300315824E+03  0.12858769519E+03  0.00000000000E+00 0. -1.
          1    1    1    2  502    0  0.26185991878E+02 -0.36383458149E+02  0.70985532318E+03  0.71126931752E+03  0.00000000000E+00 0. -1.
         22    1    3    3    0    0 -0.34328933297E+02  0.24399525847E+02  0.73129351519E+02  0.84390251667E+02  0.00000000000E+00 0.  1.
         22    1    3    3    0    0 -0.26583873082E+02  0.26093034705E+02  0.82505427815E+03  0.82589473340E+03  0.00000000000E+00 0.  1.
</event>
<event>
 7    1  0.6273950E-006  0.6995861E+02  0.7818608E-02  0.1384153E+00
          2   -1    0    0  502    0  0.00000000000E+00  0.00000000000E+00  0.12775954995E+04  0.12775954995E+04  0.00000000000E+00 0. -1.
          1   -1    0    0  501    0 -0.00000000000E+00 -0.00000000000E+00 -0.69963810306E+02  0.69963810306E+02  0.00000000000E+00 0. -1.
         25    2    1    2    0    0 -0.17566445951E+02  0.54715120412E+02  0.28499950350E+03  0.31646872754E+03  0.12500165633E+03 0.  0.
          2    1    1    2  501    0 -0.39523813015E+02 -0.60937305581E+02 -0.28648277801E+02  0.78078235301E+02  0.00000000000E+00 0. -1.
          1    1    1    2  502    0  0.57090258967E+02  0.62221851687E+01  0.95128046354E+03  0.95301234701E+03  0.00000000000E+00 0. -1.
         22    1    3    3    0    0  0.27863872984E+02  0.73860032477E+02  0.22707286080E+03  0.24040337753E+03  0.00000000000E+00 0.  1.
         22    1    3    3    0    0 -0.45430318936E+02 -0.19144912064E+02  0.57926642700E+02  0.76065350003E+02  0.00000000000E+00 0.  1.
</event>
<event>
 7    1  0.6273950E-006  0.1359642E+03  0.7818608E-02  0.1281288E+00
          2   -1    0    0  502    0  0.00000000000E+00  0.00000000000E+00  0.44625571577E+03  0.44625571577E+03  0.00000000000E+00 0. -1.
          1   -1    0    0  501    0 -0.00000000000E+00 -0.00000000000E+00 -0.12427783682E+04  0.12427783682E+04  0.00000000000E+00 0. -1.
         25    2    1    2    0    0  0.11113739658E+03 -0.11843785937E+02 -0.27014932278E+03  0.31796244044E+03  0.12501064254E+03 0.  0.
          2    1    1    2  501    0 -0.11718754937E+03  0.84450648667E+02 -0.94002208495E+03  0.95105538954E+03  0.00000000000E+00 0. -1.
          1    1    1    2  502    0  0.60501527864E+01 -0.72606862730E+02  0.41364875529E+03  0.42001625399E+03  0.00000000000E+00 0. -1.
         22    1    3    3    0    0  0.87768385450E+02 -0.65149052877E+02 -0.16917389343E+03  0.20141374033E+03  0.00000000000E+00 0. -1.
         22    1    3    3    0    0  0.23369011129E+02  0.53305266940E+02 -0.10097542935E+03  0.11654870011E+03  0.00000000000E+00 0. -1.
</event>
<event>
 7    1  0.6273950E-006  0.5027894E+02  0.7818608E-02  0.1478539E+00
          2   -1    0    0  502    0  0.00000000000E+00  0.00000000000E+00  0.17621238366E+03  0.17621238366E+03  0.00000000000E+00 0. -1.
          1   -1    0    0  501    0 -0.00000000000E+00 -0.00000000000E+00 -0.12815137359E+03  0.12815137359E+03  0.00000000000E+00 0. -1.
         25    2    1    2    0    0 -0.17425088612E+02 -0.16274098026E+02  0.47278457887E+02  0.13575643897E+03  0.12500431258E+03 0.  0.
          2    1    1    2  501    0  0.47749570932E+01  0.53263853337E+02 -0.69794383342E+02  0.87926641205E+02  0.00000000000E+00 0. -1.
          1    1    1    2  502    0  0.12650131519E+02 -0.36989755311E+02  0.70576935517E+02  0.80680677069E+02  0.00000000000E+00 0. -1.
         22    1    3    3    0    0 -0.51624938233E+02  0.25411045178E+02  0.56971524908E+02  0.80972897410E+02  0.00000000000E+00 0. -1.
         22    1    3    3    0    0  0.34199849621E+02 -0.41685143204E+02 -0.96930670211E+01  0.54783541564E+02  0.00000000000E+00 0. -1.
</event>
<event>
 7    1  0.6273950E-006  0.6492595E+02  0.7818608E-02  0.1389722E+00
          2   -1    0    0  502    0  0.00000000000E+00  0.00000000000E+00  0.30554426548E+04  0.30554426548E+04  0.00000000000E+00 0. -1.
          1   -1    0    0  501    0 -0.00000000000E+00 -0.00000000000E+00 -0.36289548017E+02  0.36289548017E+02  0.00000000000E+00 0. -1.
         25    2    1    2    0    0  0.41256245003E+02 -0.85938644734E+02  0.48435101374E+03  0.50922512790E+03  0.12500719164E+03 0.  0.
          2    1    1    2  501    0 -0.56895078646E+02  0.28883438135E+02  0.19798543773E+02  0.66807823705E+02  0.00000000000E+00 0. -1.
          1    1    1    2  502    0  0.15638833643E+02  0.57055206600E+02  0.25150035492E+04  0.25156992512E+04  0.00000000000E+00 0. -1.
         22    1    3    3    0    0  0.84315721147E+02 -0.72184780822E+02  0.36905355985E+03  0.38538333313E+03  0.00000000000E+00 0. -1.
         22    1    3    3    0    0 -0.43059476144E+02 -0.13753863912E+02  0.11529745389E+03  0.12384179477E+03  0.00000000000E+00 0. -1.
</event>
<event>
 7    1  0.6273950E-006  0.1834444E+03  0.7818608E-02  0.1169064E+00
          2   -1    0    0  502    0  0.00000000000E+00  0.00000000000E+00  0.68078114894E+03  0.68078114894E+03  0.00000000000E+00 0. -1.
          1   -1    0    0  501    0 -0.00000000000E+00 -0.00000000000E+00 -0.26486724204E+03  0.26486724204E+03  0.00000000000E+00 0. -1.
         25    2    1    2    0    0  0.42979236262E+02 -0.20891783790E+03  0.22663054690E+03  0.33538020532E+03  0.12499839833E+03 0.  0.
          2    1    1    2  501    0  0.12524070594E+03  0.13403963840E+03 -0.14150815121E+03  0.23168171258E+03  0.00000000000E+00 0. -1.
          1    1    1    2  502    0 -0.16821994220E+03  0.74878199505E+02  0.33079151121E+03  0.37858647309E+03  0.00000000000E+00 0. -1.
         22    1    3    3    0    0 -0.16834833256E+02 -0.20658010092E+02 -0.87940272543E+01  0.28062428745E+02  0.00000000000E+00 0.  1.
         22    1    3    3    0    0  0.59814069519E+02 -0.18825982781E+03  0.23542457416E+03  0.30731777657E+03  0.00000000000E+00 0.  1.
</event>
<event>
 7    1  0.6273950E-006  0.2307998E+03  0.7818608E-02  0.1299112E+00
          2   -1    0    0  502    0  0.00000000000E+00  0.00000000000E+00  0.17162825571E+03  0.17162825571E+03  0.00000000000E+00 0. -1.
          1   -1    0    0  501    0 -0.00000000000E+00 -0.00000000000E+00 -0.29181756934E+04  0.29181756934E+04  0.00000000000E+00 0. -1.
         25    2    1    2    0    0  0.25181364866E+02 -0.20159753072E+03 -0.42728490748E+03  0.48935959588E+03  0.12499902553E+03 0.  0.
          2    1    1    2  501    0 -0.12397467495E+02  0.23559799272E+03 -0.24517462222E+04  0.24630711824E+04  0.00000000000E+00 0. -1.
          1    1    1    2  502    0 -0.12783897371E+02 -0.34000461998E+02  0.13248369196E+03  0.13737317090E+03  0.00000000000E+00 0. -1.
         22    1    3    3    0    0 -0.32826341419E+02 -0.55760598057E+01 -0.46802384588E+02  0.57438004292E+02  0.00000000000E+00 0. -1.
         22    1    3    3    0    0  0.58007706286E+02 -0.19602147092E+03 -0.38048252290E+03  0.43192159159E+03  0.00000000000E+00 0. -1.
</event>
<event>
 7    1  0.6273950E-006  0.1115429E+03  0.7818608E-02  0.1325368E+00
          2   -1    0    0  502    0  0.00000000000E+00  0.00000000000E+00  0.65204875276E+03  0.65204875276E+03  0.00000000000E+00 0. -1.
          1   -1    0    0  501    0 -0.00000000000E+00 -0.00000000000E+00 -0.47075083568E+03  0.47075083568E+03  0.00000000000E+00 0. -1.
         25    2    1    2    0    0  0.81995832281E+02  0.10115635364E+03 -0.17980847966E+02  0.18136383184E+03  0.12495440855E+03 0.  0.
          2    1    1    2  501    0  0.19646841506E+02 -0.55924313155E+02 -0.36322798820E+03  0.36803274120E+03  0.00000000000E+00 0. -1.
          1    1    1    2  502    0 -0.10164267379E+03 -0.45232040481E+02  0.56250675324E+03  0.57340301540E+03  0.00000000000E+00 0. -1.
         22    1    3    3    0    0  0.65288004126E+02 -0.77081699275E+01 -0.26531389165E+02  0.70893257630E+02  0.00000000000E+00 0. -1.
         22    1    3    3    0    0  0.16707828155E+02  0.10886452356E+03  0.85505411992E+01  0.11047057421E+03  0.00000000000E+00 0. -1.
</event>
<event>
 7    1  0.6273950E-006  0.6884710E+02  0.7818608E-02  0.1409400E+00
          2   -1    0    0  502    0  0.00000000000E+00  0.00000000000E+00  0.11403196930E+04  0.11403196930E+04  0.00000000000E+00 0. -1.
          1   -1    0    0  501    0 -0.00000000000E+00 -0.00000000000E+00 -0.14655144958E+04  0.14655144958E+04  0.00000000000E+00 0. -1.
         25    2    1    2    0    0 -0.32006333244E+02  0.55103220341E+01  0.79578685870E+03  0.80619899602E+03  0.12500131080E+03 0.  0.
          2    1    1    2  501    0  0.20752767847E+02  0.65644841894E+02 -0.14556621161E+04  0.14572893052E+04  0.00000000000E+00 0. -1.
          1    1    1    2  502    0  0.11253565397E+02 -0.71155163928E+02  0.33468045459E+03  0.34234588762E+03  0.00000000000E+00 0. -1.
         22    1    3    3    0    0 -0.63183984590E+02  0.39920033342E+02  0.61580973850E+03  0.62032850894E+03  0.00000000000E+00 0. -1.
         22    1    3    3    0    0  0.31177651346E+02 -0.34409711308E+02  0.17997712020E+03  0.18587048709E+03  0.00000000000E+00 0. -1.
</event>
<event>
 7    1  0.6273950E-006  0.1965791E+03  0.7818608E-02  0.1344431E+00
          2   -1    0    0  502    0  0.00000000000E+00  0.00000000000E+00  0.26146172100E+03  0.26146172100E+03  0.00000000000E+00 0. -1.
          1   -1    0    0  501    0 -0.00000000000E+00 -0.00000000000E+00 -0.11788895618E+04  0.11788895618E+04  0.00000000000E+00 0. -1.
         25    2    1    2    0    0  0.12980781333E+03  0.15615018663E+03 -0.39846749394E+02  0.24175753944E+03  0.12500398095E+03 0.  0.
          2    1    1    2  501    0 -0.10335911878E+03 -0.16670487286E+03 -0.10274693545E+04  0.10460243289E+04  0.00000000000E+00 0. -1.
          1    1    1    2  502    0 -0.26448694551E+02  0.10554686233E+02  0.14988826308E+03  0.15256941454E+03  0.00000000000E+00 0. -1.
         22    1    3    3    0    0 -0.33707876800E+01  0.43178392180E+02 -0.50822085613E+02  0.66772899794E+02  0.00000000000E+00 0.  1.
         22    1    3    3    0    0  0.13317860101E+03  0.11297179445E+03  0.10975336218E+02  0.17498463965E+03  0.00000000000E+00 0.  1.
</event>
<event>
 7    1  0.6273950E-006  0.9096576E+02  0.7818608E-02  0.1427306E+00
          2   -1    0    0  502    0  0.00000000000E+00  0.00000000000E+00  0.10479733756E+04  0.10479733756E+04  0.00000000000E+00 0. -1.
          1   -1    0    0  501    0 -0.00000000000E+00 -0.00000000000E+00 -0.15520506891E+03  0.15520506891E+03  0.00000000000E+00 0. -1.
         25    2    1    2    0    0  0.51850476638E+02  0.71195688248E+02  0.73220704480E+03  0.74800274213E+03  0.12499459122E+03 0.  0.
          2    1    1    2  501    0 -0.25008086919E+02 -0.87623534684E+02 -0.13229128150E+03  0.16063707979E+03  0.00000000000E+00 0. -1.
          1    1    1    2  502    0 -0.26842389719E+02  0.16427846437E+02  0.29285254339E+03  0.29453862258E+03  0.00000000000E+00 0. -1.
         22    1    3    3    0    0  0.51859867989E+02 -0.17295816787E+02  0.16213394637E+03  0.17110233123E+03  0.00000000000E+00 0.  1.
         22    1    3    3    0    0 -0.93913503376E-02  0.88491505035E+02  0.57007309843E+03  0.57690041091E+03  0.00000000000E+00 0.  1.
</event>
<event>
 7    1  0.6273950E-006  0.3147126E+02  0.7818608E-02  0.1636481E+00
          2   -1    0    0  502    0  0.00000000000E+00  0.00000000000E+00  0.93599279136E+03  0.93599279136E+03  0.00000000000E+00 0. -1.
          1   -1    0    0  501    0 -0.00000000000E+00 -0.00000000000E+00 -0.54916717300E+03  0.54916717300E+03  0.00000000000E+00 0. -1.
         25    2    1    2    0    0 -0.12971065208E+02 -0.49051260421E+02  0.34555775758E+03  0.37095731184E+03  0.12499955482E+03 0.  0.
          2    1    1    2  501    0  0.16831375727E+02  0.26566439970E+02 -0.53578088418E+03  0.53670310862E+03  0.00000000000E+00 0. -1.
          1    1    1    2  502    0 -0.38603105186E+01  0.22484820452E+02  0.57704874496E+03  0.57749954390E+03  0.00000000000E+00 0. -1.
         22    1    3    3    0    0 -0.52747755789E+02  0.18646207678E+02  0.12921605241E+03  0.14080765250E+03  0.00000000000E+00 0. -1.
         22    1    3    3    0    0  0.39776690581E+02 -0.67697468099E+02  0.21634170517E+03  0.23014965934E+03  0.00000000000E+00 0. -1.
</event>
<event>
 7    1  0.6273950E-006  0.7271228E+02  0.7818608E-02  0.1412131E+00
          2   -1    0    0  502    0  0.00000000000E+00  0.00000000000E+00  0.25237970347E+03  0.25237970347E+03  0.00000000000E+00 0. -1.
          1   -1    0    0  501    0 -0.00000000000E+00 -0.00000000000E+00 -0.62784877620E+03  0.62784877620E+03  0.00000000000E+00 0. -1.
         25    2    1    2    0    0 -0.47688507027E+01 -0.74631368566E+02  0.14165528107E+02  0.14635154970E+03  0.12500212319E+03 0.  0.
          2    1    1    2  501    0 -0.37783787884E+02  0.62505249897E+02 -0.55648590671E+03  0.56125848346E+03  0.00000000000E+00 0. -1.
          1    1    1    2  502    0  0.42552638587E+02  0.12126118669E+02  0.16685130587E+03  0.17261844651E+03  0.00000000000E+00 0. -1.
         22    1    3    3    0    0 -0.17747277305E+01  0.16201691479E+02 -0.38151052540E+02  0.41486712031E+02  0.00000000000E+00 0.  1.
         22    1    3    3    0    0 -0.29941229722E+01 -0.90833060045E+02  0.52316580646E+02  0.10486483767E+03  0.00000000000E+00 0.  1.
</event>
<event>
 7    1  0.6273950E-006  0.5288693E+02  0.7818608E-02  0.1496108E+00
          2   -1    0    0  502    0  0.00000000000E+00  0.00000000000E+00  0.18652455776E+04  0.18652455776E+04  0.00000000000E+00 0. -1.
          1   -1    0    0  501    0 -0.00000000000E+00 -0.00000000000E+00 -0.24934458907E+02  0.24934458907E+02  0.00000000000E+00 0. -1.
         25    2    1    2    0    0  0.82859360496E+01  0.75960874971E+02  0.24533805413E+03  0.28575246626E+03  0.12499999961E+03 0.  0.
          2    1    1    2  501    0 -0.29321539775E+01 -0.43530996189E+02  0.10012214039E+03  0.10921532929E+03  0.00000000000E+00 0. -1.
          1    1    1    2  502    0 -0.53537820721E+01 -0.32429878782E+02  0.14948509241E+04  0.14952122409E+04  0.00000000000E+00 0. -1.
         22    1    3    3    0    0 -0.13097043328E+02  0.47540891387E+02  0.13395584610E+02  0.51099027240E+02  0.00000000000E+00 0. -1.
         22    1    3    3    0    0  0.21382979378E+02  0.28419983584E+02  0.23194246952E+03  0.23465343902E+03  0.00000000000E+00 0. -1.
</event>
<event>
 7    1  0.6273950E-006  0.1320793E+03  0.7818608E-02  0.1243094E+00
          2   -1    0    0  502    0  0.00000000000E+00  0.00000000000E+00  0.16071154187E+04  0.16071154187E+04  0.00000000000E+00 0. -1.
          1   -1    0    0  501    0 -0.00000000000E+00 -0.00000000000E+00 -0.48060014459E+03  0.48060014459E+03  0.00000000000E+00 0. -1.
         25    2    1    2    0    0  0.16938400679E+02 -0.60244636195E+01  0.34618178069E+03  0.36849913315E+03  0.12500632893E+03 0.  0.
          2    1    1    2  501    0  0.11907013634E+03  0.57159804641E+02 -0.45581091049E+03  0.47456140462E+03  0.00000000000E+00 0. -1.
          1    1    1    2  502    0 -0.13600853702E+03 -0.51135341021E+02  0.12361444039E+04  0.12446550255E+04  0.00000000000E+00 0. -1.
         22    1    3    3    0    0 -0.33545198065E+02 -0.34957140952E+02  0.26024636016E+03  0.26471767979E+03  0.00000000000E+00 0. -1.
         22    1    3    3    0    0  0.50483598744E+02  0.28932677333E+02  0.85935420523E+02  0.10378145335E+03  0.00000000000E+00 0. -1.
</event>
<event>
 7    1  0.6273950E-006  0.4276599E+02  0.7818608E-02  0.1516404E+00
          2   -1    0    0  502    0  0.00000000000E+00  0.00000000000E+00  0.25098368344E+03  0.25098368344E+03  0.00000000000E+00 0. -1.
          1   -1    0    0  501    0 -0.00000000000E+00 -0.00000000000E+00 -0.59852822307E+03  0.59852822307E+03  0.00000000000E+00 0. -1.
         25    2    1    2    0    0 -0.16604713995E+01 -0.54977017649E+02 -0.19967040147E+02  0.13801738161E+03  0.12499954120E+03 0.  0.
          2    1    1    2  501    0  0.28498582407E+02  0.31895663195E+02 -0.51701342254E+03  0.51877970433E+03  0.00000000000E+00 0. -1.
          1    1    1    2  502    0 -0.26838111007E+02  0.23081354454E+02  0.18943592306E+03  0.19271482058E+03  0.00000000000E+00 0. -1.
         22    1    3    3    0    0 -0.23410324870E+02  0.32462045298E+02  0.12986247750E+02  0.42076957187E+02  0.00000000000E+00 0.  1.
         22    1    3    3    0    0  0.21749853470E+02 -0.87439062947E+02 -0.32953287897E+02  0.95940424422E+02  0.00000000000E+00 0.  1.
</event>
<event>
 7    1  0.6273950E-006  0.9559653E+02  0.7818608E-02  0.1392911E+00
          2   -1    0    0  502    0  0.00000000000E+00  0.00000000000E+00  0.50926218501E+03  0.50926218501E+03  0.00000000000E+00 0. -1.
          1   -1    0    0  501    0 -0.00000000000E+00 -0.00000000000E+00 -0.26095813209E+04  0.26095813209E+04  0.00000000000E+00 0. -1.
         25    2    1    2    0    0 -0.10687499541E+02 -0.13180984720E+03 -0.78064718073E+02  0.19800922197E+03  0.12500197324E+03 0.  0.
          2    1    1    2  501    0  0.11258084836E+02  0.37512036405E+02 -0.24664391397E+04  0.24667500739E+04  0.00000000000E+00 0. -1.
          1    1    1    2  502    0 -0.57058529502E+00  0.94297810790E+02  0.44418472186E+03  0.45408421005E+03  0.00000000000E+00 0. -1.
         22    1    3    3    0    0 -0.34755377025E+02 -0.53894007172E+01 -0.57904093929E+02  0.67748549549E+02  0.00000000000E+00 0.  1.
         22    1    3    3    0    0  0.24067877484E+02 -0.12642044648E+03 -0.20160624144E+02  0.13026067242E+03  0.00000000000E+00 0.  1.
</event>
<event>
 7    1  0.6273950E-006  0.3852564E+02  0.7818608E-02  0.1564849E+00
          2   -1    0    0  502    0  0.00000000000E+00  0.00000000000E+00  0.10098919242E+04  0.10098919242E+04  0.00000000000E+00 0. -1.
          1   -1    0    0  501    0 -0.00000000000E+00 -0.00000000000E+00 -0.69856265575E+03  0.69856265575E+03  0.00000000000E+00 0. -1.
         25    2    1    2    0    0  0.42235913657E+02 -0.76723807383E+01 -0.14293062827E+03  0.19467265548E+03  0.12500216183E+03 0.  0.
          2    1    1    2  501    0 -0.24333732911E+02  0.30069180444E+02 -0.52884560774E+03  0.53025839267E+03  0.00000000000E+00 0. -1.
          1    1    1    2  502    0 -0.17902180746E+02 -0.22396799705E+02  0.98310550447E+03  0.98352353181E+03  0.00000000000E+00 0. -1.
         22    1    3    3    0    0  0.79506099101E+02 -0.23903132626E+02 -0.12542458314E+03  0.15041245161E+03  0.00000000000E+00 0. -1.
         22    1    3    3    0    0 -0.37270185445E+02  0.16230751888E+02 -0.17506045131E+02  0.44260203864E+02  0.00000000000E+00 0. -1.
</event>
<event>
 7    1  0.6273950E-006  0.2642333E+03  0.7818608E-02  0.1189210E+00
          2   -1    0    0  502    0  0.00000000000E+00  0.00000000000E+00  0.23044935059E+04  0.23044935059E+04  0.00000000000E+00 0. -1.
          1   -1    0    0  501    0 -0.00000000000E+00 -0.00000000000E+00 -0.13845317839E+04  0.13845317839E+04  0.00000000000E+00 0. -1.
         25    2    1    2    0    0 -0.61442813046E+02  0.34269580845E+03  0.94092669335E+03  0.10110322638E+04  0.12501023894E+03 0.  0.
          2    1    1    2  501    0  0.72038915775E+01 -0.26308046349E+03 -0.13348672797E+04  0.13605638099E+04  0.00000000000E+00 0. -1.
          1    1    1    2  502    0  0.54238921469E+02 -0.79615344966E+02  0.13139023083E+04  0.13174292161E+04  0.00000000000E+00 0. -1.
         22    1    3    3    0    0 -0.90516170082E+01  0.16606725673E+03  0.61012955010E+03  0.63239096565E+03  0.00000000000E+00 0. -1.
         22    1    3    3    0    0 -0.52391196038E+02  0.17662855172E+03  0.33079714325E+03  0.37864129819E+03  0.00000000000E+00 0. -1.
</event>
<event>
 7    1  0.6273950E-006  0.3279628E+02  0.7818608E-02  0.1593124E+00
          2   -1    0    0  502    0  0.00000000000E+00  0.00000000000E+00  0.82430856682E+03  0.82430856682E+03  0.00000000000E+00 0. -1.
          1   -1    0    0  501    0 -0.00000000000E+00 -0.00000000000E+00 -0.17634256722E+04  0.17634256722E+04  0.00000000000E+00 0. -1.
         25    2    1    2    0    0 -0.91930675076E+01  0.22510634950E+02  0.23054679297E+02  0.12941346239E+03  0.12500033934E+03 0.  0.
          2    1    1    2  501    0 -0.23137041234E+02 -0.16259693340E+02 -0.17097669338E+04  0.17100007802E+04  0.00000000000E+00 0. -1.
          1    1    1    2  502    0  0.32330108742E+02 -0.62509416095E+01  0.74759514908E+03  0.74831999648E+03  0.00000000000E+00 0. -1.
         22    1    3    3    0    0 -0.22317735611E+01 -0.55642256196E+01  0.72167379035E+02  0.72415965207E+02  0.00000000000E+00 0. -1.
         22    1    3    3    0    0 -0.69612939465E+01  0.28074860569E+02 -0.49112699739E+02  0.56997497182E+02  0.00000000000E+00 0. -1.
</event>
<event>
 7    1  0.6273950E-006  0.5710023E+02  0.7818608E-02  0.1468708E+00
          2   -1    0    0  502    0  0.00000000000E+00  0.00000000000E+00  0.80002009639E+03  0.80002009639E+03  0.00000000000E+00 0. -1.
          1   -1    0    0  501    0 -0.00000000000E+00 -0.00000000000E+00 -0.21606584780E+02  0.21606584780E+02  0.00000000000E+00 0. -1.
         25    2    1    2    0    0  0.86481426225E+01 -0.35662755467E+02  0.40868492751E+03  0.42894593362E+03  0.12499848598E+03 0.  0.
          2    1    1    2  501    0 -0.12950194606E+02  0.72332456520E+02  0.33144982827E+03  0.33949768846E+03  0.00000000000E+00 0. -1.
          1    1    1    2  502    0  0.43020519840E+01 -0.36669701053E+02  0.38278755825E+02  0.53183059090E+02  0.00000000000E+00 0. -1.
         22    1    3    3    0    0  0.50645842860E+02 -0.46576359726E+02  0.34556976668E+03  0.35235326354E+03  0.00000000000E+00 0.  1.
         22    1    3    3    0    0 -0.41997700238E+02  0.10913604259E+02  0.63115160824E+02  0.76592670074E+02  0.00000000000E+00 0.  1.
</event>
<event>
 7    1  0.6273950E-006  0.9440099E+02  0.7818608E-02  0.1418339E+00
          2   -1    0    0  502    0  0.00000000000E+00  0.00000000000E+00  0.99710442392E+02  0.99710442392E+02  0.00000000000E+00 0. -1.
          1   -1    0    0  501    0 -0.00000000000E+00 -0.00000000000E+00 -0.11921364131E+04  0.11921364131E+04  0.00000000000E+00 0. -1.
         25    2    1    2    0    0  0.69668609683E+02  0.75668466894E+02 -0.35688168937E+03  0.39187862775E+03  0.12499954649E+03 0.  0.
          2    1    1    2  501    0 -0.38688937580E+02 -0.85430676361E+02 -0.81173924179E+03  0.81713880768E+03  0.00000000000E+00 0. -1.
          1    1    1    2  502    0 -0.30979672102E+02  0.97622094673E+01  0.76194960491E+02  0.82829420024E+02  0.00000000000E+00 0. -1.
         22    1    3    3    0    0  0.67290283364E+02  0.10436881895E+03 -0.22603785868E+03  0.25790297819E+03  0.00000000000E+00 0. -1.
         22    1    3    3    0    0  0.23783263189E+01 -0.28700352058E+02 -0.13084383069E+03  0.13397564956E+03  0.00000000000E+00 0. -1.
</event>
<event>
 7    1  0.6273950E-006  0.4179362E+02  0.7818608E-02  0.1546827E+00
          2   -1    0    0  502    0  0.00000000000E+00  0.00000000000E+00  0.13083695765E+04  0.13083695765E+04  0.00000000000E+00 0. -1.
          1   -1    0    0  501    0 -0.00000000000E+00 -0.00000000000E+00 -0.18923829718E+04  0.18923829718E+04  0.00000000000E+00 0. -1.
         25    2    1    2    0    0 -0.69348670608E+02  0.65102852814E+00 -0.13858571452E+03  0.19909763785E+03  0.12499682866E+03 0.  0.
          2    1    1    2  501    0  0.40874161794E+02  0.76059060307E+01 -0.17231185827E+04  0.17236200849E+04  0.00000000000E+00 0. -1.
          1    1    1    2  502    0  0.28474508814E+02 -0.82569345588E+01  0.12776909019E+04  0.12780348256E+04  0.00000000000E+00 0. -1.
         22    1    3    3    0    0 -0.17990541251E+02 -0.60483628549E+02 -0.61383772623E+02  0.88033496116E+02  0.00000000000E+00 0.  1.
         22    1    3    3    0    0 -0.51358129357E+02  0.61134657077E+02 -0.77201941898E+02  0.11106414174E+03  0.00000000000E+00 0.  1.
</event>
<event>
 7    1  0.1608678E-005  0.1049726E+03  0.7818608E-02  0.1309603E+00
          2   -1    0    0  502    0  0.00000000000E+00  0.00000000000E+00  0.18925702799E+04  0.18925702799E+04  0.00000000000E+00 0. -1.
          1   -1    0    0  501    0 -0.00000000000E+00 -0.00000000000E+00 -0.14337379625E+04  0.14337379625E+04  0.00000000000E+00 0. -1.
         25    2    1    2    0    0  0.76081491811E+01  0.40801046611E+02 -0.33904998117E+03  0.36373824415E+03  0.12501204415E+03 0.  0.
          2    1    1    2  501    0  0.61349652087E+02  0.38729251050E+02 -0.10796521587E+04  0.10820871122E+04  0.00000000000E+00 0. -1.
          1    1    1    2  502    0 -0.68957801268E+02 -0.79530297660E+02  0.18775344572E+04  0.18804828861E+04  0.00000000000E+00 0. -1.
         22    1    3    3    0    0  0.52166588003E+02 -0.20125337184E+02 -0.13175742181E+03  0.14313071055E+03  0.00000000000E+00 0.  1.
         22    1    3    3    0    0 -0.44558438822E+02  0.60926383795E+02 -0.20729255936E+03  0.22060753359E+03  0.00000000000E+00 0.  1.
</event>
<event>
 7    1  0.6273950E-006  0.2229141E+03  0.7818608E-02  0.1210043E+00
          2   -1    0    0  502    0  0.00000000000E+00  0.00000000000E+00  0.84369132306E+03  0.84369132306E+03  0.00000000000E+00 0. -1.
          1   -1    0    0  501    0 -0.00000000000E+00 -0.00000000000E+00 -0.51277214197E+03  0.51277214197E+03  0.00000000000E+00 0. -1.
         25    2    1    2    0    0  0.22994162667E+03  0.57699092782E+01 -0.31139018234E+02  0.26363248215E+03  0.12500401457E+03 0.  0.
          2    1    1    2  501    0 -0.26132643570E+02  0.87225880461E+02 -0.34204009865E+03  0.35395296067E+03  0.00000000000E+00 0. -1.
          1    1    1    2  502    0 -0.20380898310E+03 -0.92995789739E+02  0.70409829797E+03  0.73887802221E+03  0.00000000000E+00 0. -1.
         22    1    3    3    0    0  0.23251797317E+03  0.21966527559E+02 -0.60166213156E+01  0.23363076833E+03  0.00000000000E+00 0. -1.
         22    1    3    3    0    0 -0.25763464976E+01 -0.16196618281E+02 -0.25122396919E+02  0.30001713817E+02  0.00000000000E+00 0. -1.
</event>
<event>
 7    1  0.6273950E-006  0.3679993E+02  0.7818608E-02  0.1533871E+00
          2   -1    0    0  502    0  0.00000000000E+00  0.00000000000E+00  0.87004982567E+03  0.87004982567E+03  0.00000000000E+00 0. -1.
          1   -1    0    0  501    0 -0.00000000000E+00 -0.00000000000E+00 -0.39248258616E+02  0.39248258616E+02  0.00000000000E+00 0. -1.
         25    2    1    2    0    0  0.14191983720E+02 -0.32459864043E+01  0.61007841480E+03  0.62292229605E+03  0.12499826355E+03 0.  0.
          2    1    1    2  501    0  0.24352397559E+02  0.27365315676E+02 -0.19767087252E+02  0.41624962551E+02  0.00000000000E+00 0. -1.
          1    1    1    2  502    0 -0.38544381279E+02 -0.24119329272E+02  0.24049023951E+03  0.24475082569E+03  0.00000000000E+00 0. -1.
         22    1    3    3    0    0 -0.50666783113E+01  0.53436599591E+02  0.42565253236E+03  0.42902356544E+03  0.00000000000E+00 0. -1.
         22    1    3    3    0    0  0.19258662031E+02 -0.56682585996E+02  0.18442588244E+03  0.19389873061E+03  0.00000000000E+00 0. -1.
</event>
<event>
 7    1  0.6273950E-006  0.8096186E+02  0.7818608E-02  0.1365603E+00
          2   -1    0    0  502    0  0.00000000000E+00  0.00000000000E+00  0.13675303132E+04  0.13675303132E+04  0.00000000000E+00 0. -1.
          1   -1    0    0  501    0 -0.00000000000E+00 -0.00000000000E+00 -0.31465494954E+03  0.31465494954E+03  0.00000000000E+00 0. -1.
         25    2    1    2    0    0  0.18547523527E+02 -0.12199658211E+03 -0.19243224278E+02  0.17669867384E+03  0.12499977193E+03 0.  0.
          2    1    1    2  501    0  0.16510349133E+02  0.76047931165E+02 -0.20902443995E+03  0.22304057021E+03  0.00000000000E+00 0. -1.
          1    1    1    2  502    0 -0.35057872660E+02  0.45948650940E+02  0.12811430279E+04  0.12824460187E+04  0.00000000000E+00 0. -1.
         22    1    3    3    0    0 -0.44262039873E+02 -0.75786855016E+02 -0.39331966451E+02  0.96175772166E+02  0.00000000000E+00 0. -1.
         22    1    3    3    0    0  0.62809563400E+02 -0.46209727090E+02  0.20088742172E+02  0.80522901676E+02  0.00000000000E+00 0. -1.
</event>
<event>
 7    1  0.6273950E-006  0.1045904E+03  0.7818608E-02  0.1438296E+00
          2   -1    0    0  502    0  0.00000000000E+00  0.00000000000E+00  0.78475839964E+03  0.78475839964E+03  0.00000000000E+00 0. -1.
          1   -1    0    0  501    0 -0.00000000000E+00 -0.00000000000E+00 -0.22302538383E+04  0.22302538383E+04  0.00000000000E+00 0. -1.
         25    2    1    2    0    0  0.12965560479E+03 -0.27501687756E+01  0.42078585066E+03  0.45771587530E+03  0.12499980442E+03 0.  0.
          2    1    1    2  501    0 -0.10446916944E+03  0.32538730282E+01 -0.22100929426E+04  0.22125630409E+04  0.00000000000E+00 0. -1.
          1    1    1    2  502    0 -0.25186435351E+02 -0.50370425261E+00  0.34381165324E+03  0.34473332178E+03  0.00000000000E+00 0. -1.
         22    1    3    3    0    0  0.94961332322E+02  0.56060535798E+02  0.28827796893E+03  0.30864968116E+03  0.00000000000E+00 0.  1.
         22    1    3    3    0    0  0.34694272467E+02 -0.58810704574E+02  0.13250788174E+03  0.14906619414E+03  0.00000000000E+00 0.  1.
</event>
<event>
 7    1  0.6273950E-006  0.1668099E+03  0.7818608E-02  0.1248300E+00
          2   -1    0    0  502    0  0.00000000000E+00  0.00000000000E+00  0.28732137353E+03  0.28732137353E+03  0.00000000000E+00 0. -1.
          1   -1    0    0  501    0 -0.00000000000E+00 -0.00000000000E+00 -0.18492488371E+04  0.18492488371E+04  0.00000000000E+00 0. -1.
         25    2    1    2    0    0  0.56649283428E+02 -0.74928265747E+02 -0.13515510939E+04  0.13605652312E+04  0.12499601086E+03 0.  0.
          2    1    1    2  501    0  0.45080955189E+01 -0.81799264961E+02 -0.46426327906E+03  0.47143592879E+03  0.00000000000E+00 0. -1.
          1    1    1    2  502    0 -0.61157378946E+02  0.15672753071E+03  0.25388690933E+03  0.30456905065E+03  0.00000000000E+00 0. -1.
         22    1    3    3    0    0 -0.11929334113E+02 -0.70986959662E+02 -0.39168811580E+03  0.39824745764E+03  0.00000000000E+00 0. -1.
         22    1    3    3    0    0  0.68578617541E+02 -0.39413060843E+01 -0.95986297808E+03  0.96231777358E+03  0.00000000000E+00 0. -1.
</event>
<event>
 7    1  0.6273950E-006  0.1711040E+03  0.7818608E-02  0.1341173E+00
          2   -1    0    0  502    0  0.00000000000E+00  0.00000000000E+00  0.19451064289E+03  0.19451064289E+03  0.00000000000E+00 0. -1.
          1   -1    0    0  501    0 -0.00000000000E+00 -0.00000000000E+00 -0.16347579650E+04  0.16347579650E+04  0.00000000000E+00 0. -1.
         25    2    1    2    0    0  0.11693275726E+02  0.14808222188E+03 -0.11744546234E+04  0.11903912374E+04  0.12499023341E+03 0.  0.
          2    1    1    2  501    0 -0.24199309563E+02  0.23380536276E+02 -0.41189258128E+03  0.41326475119E+03  0.00000000000E+00 0. -1.
          1    1    1    2  502    0  0.12506033838E+02 -0.17146275816E+03  0.14609988257E+03  0.22561261933E+03  0.00000000000E+00 0. -1.
         22    1    3    3    0    0  0.19033774603E+02  0.16946918725E+03 -0.10712147954E+04  0.10847042122E+04  0.00000000000E+00 0. -1.
         22    1    3    3    0    0 -0.73404988771E+01 -0.21386965367E+02 -0.10323982797E+03  0.10568702518E+03  0.00000000000E+00 0. -1.
</event>
<event>
 7    1  0.6273950E-006  0.1287562E+03  0.7818608E-02  0.1359508E+00
          2   -1    0    0  502    0  0.00000000000E+00  0.00000000000E+00  0.57758770264E+03  0.57758770264E+03  0.00000000000E+00 0. -1.
          1   -1    0    0  501    0 -0.00000000000E+00 -0.00000000000E+00 -0.17933242090E+04  0.17933242090E+04  0.00000000000E+00 0. -1.
         25    2    1    2    0    0 -0.77297209645E+02  0.13379148443E+03 -0.92457725251E+02  0.21917317484E+03  0.12495371017E+03 0.  0.
          2    1    1    2  501    0  0.41250858394E+02 -0.12101425179E+03 -0.16342975668E+04  0.16392908892E+04  0.00000000000E+00 0. -1.
          1    1    1    2  502    0  0.36046351251E+02 -0.12777232636E+02  0.51101878574E+03  0.51244784758E+03  0.00000000000E+00 0. -1.
         22    1    3    3    0    0 -0.49384302557E+02  0.15206260158E+03 -0.55150966200E+02  0.16912561371E+03  0.00000000000E+00 0. -1.
         22    1    3    3    0    0 -0.27912907088E+02 -0.18271117156E+02 -0.37306759051E+02  0.50047561131E+02  0.00000000000E+00 0. -1.
</event>
<event>
 7    1  0.6273950E-006  0.4793840E+02  0.7818608E-02  0.1528067E+00
          2   -1    0    0  502    0  0.00000000000E+00  0.00000000000E+00  0.73767846461E+02  0.73767846461E+02  0.00000000000E+00 0. -1.
          1   -1    0    0  501    0 -0.00000000000E+00 -0.00000000000E+00 -0.97307820863E+03  0.97307820863E+03  0.00000000000E+00 0. -1.
         25    2    1    2    0    0 -0.11252060940E+02 -0.57655255112E+02 -0.56966319988E+03  0.58616663492E+03  0.12499770108E+03 0.  0.
          2    1    1    2  501    0 -0.14953888155E+02  0.44737751942E+02 -0.39041422028E+03  0.39325354241E+03  0.00000000000E+00 0. -1.
          1    1    1    2  502    0  0.26205949095E+02  0.12917503169E+02  0.60767057989E+02  0.67425877767E+02  0.00000000000E+00 0. -1.
         22    1    3    3    0    0 -0.67569198467E+02 -0.38841213429E+02 -0.35407884131E+03  0.36255490936E+03  0.00000000000E+00 0. -1.
         22    1    3    3    0    0  0.56317137527E+02 -0.18814041683E+02 -0.21558435857E+03  0.22361172555E+03  0.00000000000E+00 0. -1.
</event>
<event>
 7    1  0.8063791E-006  0.1115332E+03  0.7818608E-02  0.1292080E+00
          2   -1    0    0  502    0  0.00000000000E+00  0.00000000000E+00  0.18522014899E+04  0.18522014899E+04  0.00000000000E+00 0. -1.
          1   -1    0    0  501    0 -0.00000000000E+00 -0.00000000000E+00 -0.11687084949E+04  0.11687084949E+04  0.00000000000E+00 0. -1.
         25    2    1    2    0    0 -0.74821739588E+02 -0.15278788131E+03 -0.43286226612E+03  0.48160463806E+03  0.12502342414E+03 0.  0.
          2    1    1    2  501    0  0.74029140603E+02  0.72554534475E+02 -0.70681255318E+03  0.71437277347E+03  0.00000000000E+00 0. -1.
          1    1    1    2  502    0  0.79259898509E+00  0.80233346832E+02  0.18231678143E+04  0.18249325733E+04  0.00000000000E+00 0. -1.
         22    1    3    3    0    0 -0.22150261217E+02 -0.12235537825E+03 -0.16323391878E+03  0.20519937841E+03  0.00000000000E+00 0. -1.
         22    1    3    3    0    0 -0.52671478371E+02 -0.30432503059E+02 -0.26962834734E+03  0.27640525965E+03  0.00000000000E+00 0. -1.
</event>
<event>
 7    1  0.6273950E-006  0.8449381E+02  0.7818608E-02  0.1378576E+00
          2   -1    0    0  502    0  0.00000000000E+00  0.00000000000E+00  0.62420239487E+02  0.62420239487E+02  0.00000000000E+00 0. -1.
          1   -1    0    0  501    0 -0.00000000000E+00 -0.00000000000E+00 -0.84312527076E+03  0.84312527076E+03  0.00000000000E+00 0. -1.
         25    2    1    2    0    0 -0.20078928368E+00  0.48171178144E+02 -0.31698809166E+03  0.34412707090E+03  0.12498595103E+03 0.  0.
          2    1    1    2  501    0 -0.36814576134E+02  0.33473317918E+02 -0.46898798087E+03  0.47162008251E+03  0.00000000000E+00 0. -1.
          1    1    1    2  502    0  0.37015365418E+02 -0.81644496061E+02  0.52710412530E+01  0.89798356834E+02  0.00000000000E+00 0. -1.
         22    1    3    3    0    0 -0.32565128741E+02 -0.52378652168E+01 -0.15873064967E+02  0.36604330801E+02  0.00000000000E+00 0. -1.
         22    1    3    3    0    0  0.32364339457E+02  0.53409043361E+02 -0.30111502669E+03  0.30752274010E+03  0.00000000000E+00 0. -1.
</event>
<event>
 7    1  0.6273950E-006  0.9838975E+02  0.7818608E-02  0.1441699E+00
          2   -1    0    0  502    0  0.00000000000E+00  0.00000000000E+00  0.78393202682E+03  0.78393202682E+03  0.00000000000E+00 0. -1.
          1   -1    0    0  501    0 -0.00000000000E+00 -0.00000000000E+00 -0.17904427544E+03  0.17904427544E+03  0.00000000000E+00 0. -1.
         25    2    1    2    0    0 -0.12188408438E+03  0.12198365355E+02  0.10172871381E+03  0.20243069458E+03  0.12499969901E+03 0.  0.
          2    1    1    2  501    0  0.25482697665E+02 -0.56736379962E+01 -0.12362826767E+03  0.12635468577E+03  0.00000000000E+00 0. -1.
          1    1    1    2  502    0  0.96401386712E+02 -0.65247273586E+01  0.62678730524E+03  0.63419092191E+03  0.00000000000E+00 0. -1.
         22    1    3    3    0    0  0.17020977255E+02 -0.14472290203E+02  0.44607236835E+02  0.49889542275E+02  0.00000000000E+00 0.  1.
         22    1    3    3    0    0 -0.13890506163E+03  0.26670655558E+02  0.57121476976E+02  0.15254115231E+03  0.00000000000E+00 0.  1.
</event>
<event>
 7    1  0.6273950E-006  0.1794771E+03  0.7818608E-02  0.1227066E+00
          2   -1    0    0  502    0  0.00000000000E+00  0.00000000000E+00  0.23515299333E+04  0.23515299333E+04  0.00000000000E+00 0. -1.
          1   -1    0    0  501    0 -0.00000000000E+00 -0.00000000000E+00 -0.13327364450E+04  0.13327364450E+04  0.00000000000E+00 0. -1.
         25    2    1    2    0    0  0.25440301627E+03  0.51984861187E+02  0.39385334603E+02  0.29085856746E+03  0.12499672477E+03 0.  0.
          2    1    1    2  501    0 -0.77075207710E+02 -0.54753102720E+02 -0.12015434452E+04  0.12052572923E+04  0.00000000000E+00 0. -1.
          1    1    1    2  502    0 -0.17732780856E+03  0.27682415329E+01  0.21809515990E+04  0.21881505186E+04  0.00000000000E+00 0. -1.
         22    1    3    3    0    0  0.13414734917E+03  0.88555203814E+02  0.62085784915E+01  0.16086044218E+03  0.00000000000E+00 0.  1.
         22    1    3    3    0    0  0.12025566710E+03 -0.36570342627E+02  0.33176756112E+02  0.12999812528E+03  0.00000000000E+00 0.  1.
</event>
<event>
 7    1  0.6273950E-006  0.2906651E+02  0.7818608E-02  0.1641054E+00
          2   -1    0    0  502    0  0.00000000000E+00  0.00000000000E+00  0.50462144773E+03  0.50462144773E+03  0.00000000000E+00 0. -1.
          1   -1    0    0  501    0 -0.00000000000E+00 -0.00000000000E+00 -0.13562280659E+04  0.13562280659E+04  0.00000000000E+00 0. -1.
         25    2    1    2    0    0 -0.21497856543E+02  0.44505200097E+02  0.13599699662E+03  0.19121192712E+03  0.12499578918E+03 0.  0.
          2    1    1    2  501    0  0.20623377774E+02 -0.20458449916E+02 -0.13280370912E+04  0.13283547672E+04  0.00000000000E+00 0. -1.
          1    1    1    2  502    0  0.87447876891E+00 -0.24046750181E+02  0.34043347641E+03  0.34128281933E+03  0.00000000000E+00 0. -1.
         22    1    3    3    0    0 -0.57351512038E+02  0.16147070256E+02  0.14386432343E+02  0.61293500850E+02  0.00000000000E+00 0. -1.
         22    1    3    3    0    0  0.35853655495E+02  0.28358129842E+02  0.12161056428E+03  0.12991842627E+03  0.00000000000E+00 0. -1.
</event>
<event>
 7    1  0.6273950E-006  0.1042458E+03  0.7818608E-02  0.1406652E+00
          2   -1    0    0  502    0  0.00000000000E+00  0.00000000000E+00  0.15013083889E+04  0.15013083889E+04  0.00000000000E+00 0. -1.
          1   -1    0    0  501    0 -0.00000000000E+00 -0.00000000000E+00 -0.16129173881E+03  0.16129173881E+03  0.00000000000E+00 0. -1.
         25    2    1    2    0    0 -0.89246499430E+02 -0.46243310698E+02  0.66223114964E+01  0.16054028315E+03  0.12500378418E+03 0.  0.
          2    1    1    2  501    0  0.15822660255E+02 -0.28057599754E+02 -0.79256470755E+02  0.85552169102E+02  0.00000000000E+00 0. -1.
          1    1    1    2  502    0  0.73423839175E+02  0.74300910452E+02  0.14126508093E+04  0.14165076754E+04  0.00000000000E+00 0. -1.
         22    1    3    3    0    0  0.24955521538E+02 -0.90406517853E+01 -0.24867833646E+02  0.36371975341E+02  0.00000000000E+00 0.  1.
         22    1    3    3    0    0 -0.11420202097E+03 -0.37202658913E+02  0.31490145142E+02  0.12416830781E+03  0.00000000000E+00 0.  1.
</event>
<event>
 7    1  0.6273950E-006  0.8740426E+02  0.7818608E-02  0.1329095E+00
          2   -1    0    0  502    0  0.00000000000E+00  0.00000000000E+00  0.22544881088E+03  0.22544881088E+03  0.00000000000E+00 0. -1.
          1   -1    0    0  501    0 -0.00000000000E+00 -0.00000000000E+00 -0.25577021681E+04  0.25577021681E+04  0.00000000000E+00 0. -1.
         25    2    1    2    0    0 -0.87122190421E+02 -0.11384198627E+03 -0.49578158466E+03  0.53101583420E+03  0.12501264970E+03 0.  0.
          2    1    1    2  501    0  0.74146278870E+02  0.41806154044E+02 -0.20369423528E+04  0.20387200822E+04  0.00000000000E+00 0. -1.
          1    1    1    2  502    0  0.12975911550E+02  0.72035832230E+02  0.20047058020E+03  0.21341506256E+03  0.00000000000E+00 0. -1.
         22    1    3    3    0    0  0.58874066887E+01 -0.31255134184E+02 -0.16446898747E+02  0.35805662245E+02  0.00000000000E+00 0. -1.
         22    1    3    3    0    0 -0.93009597109E+02 -0.82586852090E+02 -0.47933468591E+03  0.49521017196E+03  0.00000000000E+00 0. -1.
</event>
<event>
 7    1  0.6273950E-006  0.9684458E+02  0.7818608E-02  0.1335121E+00
          2   -1    0    0  502    0  0.00000000000E+00  0.00000000000E+00  0.67446241444E+03  0.67446241444E+03  0.00000000000E+00 0. -1.
          1   -1    0    0  501    0 -0.00000000000E+00 -0.00000000000E+00 -0.30220442390E+03  0.30220442390E+03  0.00000000000E+00 0. -1.
         25    2    1    2    0    0  0.82373376790E+02 -0.10452137876E+03  0.35108583146E+03  0.39572205158E+03  0.12499835693E+03 0.  0.
          2    1    1    2  501    0 -0.86678655931E+02  0.42009489244E+02 -0.26814469216E+03  0.28492027396E+03  0.00000000000E+00 0. -1.
          1    1    1    2  502    0  0.43052791408E+01  0.62511889521E+02  0.28931685125E+03  0.29602451279E+03  0.00000000000E+00 0. -1.
         22    1    3    3    0    0  0.75570452412E+02 -0.13156024633E+03  0.31881335192E+03  0.35307356890E+03  0.00000000000E+00 0.  1.
         22    1    3    3    0    0  0.68029243774E+01  0.27038867570E+02  0.32272479543E+02  0.42648482686E+02  0.00000000000E+00 0.  1.
</event>
<event>
 7    1  0.6273950E-006  0.1736885E+03  0.7818608E-02  0.1206099E+00
          2   -1    0    0  502    0  0.00000000000E+00  0.00000000000E+00  0.34571199604E+03  0.34571199604E+03  0.00000000000E+00 0. -1.
          1   -1    0    0  501    0 -0.00000000000E+00 -0.00000000000E+00 -0.54315504490E+03  0.54315504490E+03  0.00000000000E+00 0. -1.
         25    2    1    2    0    0  0.50070939896E+02  0.12818417875E+03 -0.76124685210E+02  0.20089683536E+03  0.12500515213E+03 0.  0.
          2    1    1    2  501    0 -0.16903975032E+03 -0.10158294234E+03 -0.36535210306E+03  0.41518151521E+03  0.00000000000E+00 0. -1.
          1    1    1    2  502    0  0.11896881042E+03 -0.26601236406E+02  0.24403373940E+03  0.27278869038E+03  0.00000000000E+00 0. -1.
         22    1    3    3    0    0 -0.18066651342E+01  0.12805716332E+03 -0.30131727500E+02  0.13156679717E+03  0.00000000000E+00 0.  1.
         22    1    3    3    0    0  0.51877605031E+02  0.12701542707E+00 -0.45992957709E+02  0.69330038190E+02  0.00000000000E+00 0.  1.
</event>
<event>
 7    1  0.6273950E-006  0.7072025E+02  0.7818608E-02  0.1436192E+00
          2   -1    0    0  502    0  0.00000000000E+00  0.00000000000E+00  0.45704432757E+04  0.45704432757E+04  0.00000000000E+00 0. -1.
          1   -1    0    0  501    0 -0.00000000000E+00 -0.00000000000E+00 -0.38725025854E+02  0.38725025854E+02  0.00000000000E+00 0. -1.
         25    2    1    2    0    0 -0.42880695938E+02  0.28909048712E+02  0.22739841527E+04  0.22780040031E+04  0.12499529642E+03 0.  0.
          2    1    1    2  501    0  0.29981313508E+02 -0.64492522363E+02 -0.19653156053E+01  0.71147923833E+02  0.00000000000E+00 0. -1.
          1    1    1    2  502    0  0.12899382430E+02  0.35583473651E+02  0.22596994127E+04  0.22600163746E+04  0.00000000000E+00 0. -1.
         22    1    3    3    0    0 -0.20494125676E+02  0.77120564578E+02  0.11512180986E+04  0.11539803730E+04  0.00000000000E+00 0. -1.
         22    1    3    3    0    0 -0.22386570262E+02 -0.48211515866E+02  0.11227660541E+04  0.11240236301E+04  0.00000000000E+00 0. -1.
</event>
<event>
 7    1  0.6273950E-006  0.1173107E+03  0.7818608E-02  0.1339834E+00
          2   -1    0    0  502    0  0.00000000000E+00  0.00000000000E+00  0.14530734970E+04  0.14530734970E+04  0.00000000000E+00 0. -1.
          1   -1    0    0  501    0 -0.00000000000E+00 -0.00000000000E+00 -0.50725477217E+03  0.50725477217E+03  0.00000000000E+00 0. -1.
         25    2    1    2    0    0 -0.92948184332E+01 -0.14579275855E+03 -0.11691131426E+03  0.22502253294E+03  0.12499985134E+03 0.  0.
          2    1    1    2  501    0 -0.33302015439E+02  0.36827042221E+02 -0.33199246880E+03  0.33568475481E+03  0.00000000000E+00 0. -1.
          1    1    1    2  502    0  0.42596833872E+02  0.10896571633E+03  0.13947225079E+04  0.13996209814E+04  0.00000000000E+00 0. -1.
         22    1    3    3    0    0 -0.60992777206E+02 -0.11005945457E+03 -0.56794445561E+02  0.13805365428E+03  0.00000000000E+00 0.  1.
         22    1    3    3    0    0  0.51697958773E+02 -0.35733303973E+02 -0.60116868695E+02  0.86968878662E+02  0.00000000000E+00 0.  1.
</event>
<event>
 7    1  0.6273950E-006  0.5625499E+02  0.7818608E-02  0.1441497E+00
          2   -1    0    0  502    0  0.00000000000E+00  0.00000000000E+00  0.64547961966E+03  0.64547961966E+03  0.00000000000E+00 0. -1.
          1   -1    0    0  501    0 -0.00000000000E+00 -0.00000000000E+00 -0.61375211541E+03  0.61375211541E+03  0.00000000000E+00 0. -1.
         25    2    1    2    0    0 -0.43216507531E+02 -0.68036373618E+02 -0.54360184840E+02  0.15835719263E+03  0.12500142441E+03 0.  0.
          2    1    1    2  501    0  0.44145684954E+02  0.11929899767E+02 -0.50503165101E+03  0.50709775441E+03  0.00000000000E+00 0. -1.
          1    1    1    2  502    0 -0.92917742251E+00  0.56106473851E+02  0.59111934009E+03  0.59377678803E+03  0.00000000000E+00 0. -1.
         22    1    3    3    0    0 -0.74778283440E+02 -0.64233364473E+02 -0.71933366198E+02  0.12203329856E+03  0.00000000000E+00 0. -1.
         22    1    3    3    0    0  0.31561775909E+02 -0.38030091446E+01  0.17573181358E+02  0.36323894066E+02  0.00000000000E+00 0. -1.
</event>
<event>
 7    1  0.6273950E-006  0.5219937E+02  0.7818608E-02  0.1442551E+00
          2   -1    0    0  502    0  0.00000000000E+00  0.00000000000E+00  0.10323657886E+04  0.10323657886E+04  0.00000000000E+00 0. -1.
          1   -1    0    0  501    0 -0.00000000000E+00 -0.00000000000E+00 -0.80820708556E+02  0.80820708556E+02  0.00000000000E+00 0. -1.
         25    2    1    2    0    0  0.88186222274E+02 -0.36956070192E+02  0.23111411844E+03  0.27960910961E+03  0.12499983004E+03 0.  0.
          2    1    1    2  501    0 -0.39636557411E+02  0.31139059878E+02 -0.44407918997E+02  0.67177086890E+02  0.00000000000E+00 0. -1.
          1    1    1    2  502    0 -0.48549664863E+02  0.58170103134E+01  0.76483888057E+03  0.76640030063E+03  0.00000000000E+00 0. -1.
         22    1    3    3    0    0  0.21538665492E+02  0.45797242955E+02  0.64278878481E+02  0.81811220454E+02  0.00000000000E+00 0. -1.
         22    1    3    3    0    0  0.66647556782E+02 -0.82753313147E+02  0.16683523996E+03  0.19779788915E+03  0.00000000000E+00 0. -1.
</event>
<event>
 7    1  0.6273950E-006  0.7602312E+02  0.7818608E-02  0.1446361E+00
          2   -1    0    0  502    0  0.00000000000E+00  0.00000000000E+00  0.38894467859E+03  0.38894467859E+03  0.00000000000E+00 0. -1.
          1   -1    0    0  501    0 -0.00000000000E+00 -0.00000000000E+00 -0.70210119562E+03  0.70210119562E+03  0.00000000000E+00 0. -1.
         25    2    1    2    0    0  0.22364810028E+02  0.10495451695E+03 -0.19012136744E+03  0.25156763698E+03  0.12499802503E+03 0.  0.
          2    1    1    2  501    0 -0.83203836119E+00 -0.32626638523E+02 -0.47671805715E+03  0.47783396263E+03  0.00000000000E+00 0. -1.
          1    1    1    2  502    0 -0.21532771666E+02 -0.72327878428E+02  0.35368290756E+03  0.36164427460E+03  0.00000000000E+00 0. -1.
         22    1    3    3    0    0  0.40103293089E+00 -0.20830121912E+02  0.19509701540E+01  0.20925130605E+02  0.00000000000E+00 0. -1.
         22    1    3    3    0    0  0.21963777097E+02  0.12578463886E+03 -0.19207233759E+03  0.23064250638E+03  0.00000000000E+00 0. -1.
</event>
<event>
 7    1  0.6273950E-006  0.8607396E+02  0.7818608E-02  0.1369703E+00
          2   -1    0    0  502    0  0.00000000000E+00  0.00000000000E+00  0.19188933127E+03  0.19188933127E+03  0.00000000000E+00 0. -1.
          1   -1    0    0  501    0 -0.00000000000E+00 -0.00000000000E+00 -0.15090369745E+03  0.15090369745E+03  0.00000000000E+00 0. -1.
         25    2    1    2    0    0  0.62786790167E+02  0.81599207193E+02 -0.24767948736E+02  0.16382445189E+03  0.12499755246E+03 0.  0.
          2    1    1    2  501    0 -0.10244754534E+02 -0.81448259336E+02 -0.14186819527E+02  0.83306901230E+02  0.00000000000E+00 0. -1.
          1    1    1    2  502    0 -0.52542035634E+02 -0.15094785702E+00  0.79940402079E+02  0.95661675599E+02  0.00000000000E+00 0. -1.
         22    1    3    3    0    0 -0.15439860419E+02  0.67026978666E+02  0.21141434078E+02  0.71958080809E+02  0.00000000000E+00 0. -1.
         22    1    3    3    0    0  0.78226650586E+02  0.14572228527E+02 -0.45909382814E+02  0.91866371086E+02  0.00000000000E+00 0. -1.
</event>
<event>
 7    1  0.6273950E-006  0.7022058E+02  0.7818608E-02  0.1398713E+00
          2   -1    0    0  502    0  0.00000000000E+00  0.00000000000E+00  0.79222542292E+03  0.79222542292E+03  0.00000000000E+00 0. -1.
          1   -1    0    0  501    0 -0.00000000000E+00 -0.00000000000E+00 -0.52905008029E+03  0.52905008029E+03  0.00000000000E+00 0. -1.
         25    2    1    2    0    0  0.97810068683E+02  0.13668425255E+02 -0.14941553413E+03  0.21841157068E+03  0.12499990793E+03 0.  0.
          2    1    1    2  501    0 -0.32531928419E+02 -0.39159391459E+02 -0.34162593136E+03  0.34539840949E+03  0.00000000000E+00 0. -1.
          1    1    1    2  502    0 -0.65278140264E+02  0.25490966204E+02  0.75421680811E+03  0.75746552304E+03  0.00000000000E+00 0. -1.
         22    1    3    3    0    0  0.12709268826E+03  0.17804760752E+02 -0.10928180228E+03  0.16855881236E+03  0.00000000000E+00 0. -1.
         22    1    3    3    0    0 -0.29282619573E+02 -0.41363354970E+01 -0.40133731847E+02  0.49852758323E+02  0.00000000000E+00 0. -1.
</event>
<event>
 7    1  0.6273950E-006  0.4823831E+02  0.7818608E-02  0.1493824E+00
          2   -1    0    0  502    0  0.00000000000E+00  0.00000000000E+00  0.17994669142E+04  0.17994669142E+04  0.00000000000E+00 0. -1.
          1   -1    0    0  501    0 -0.00000000000E+00 -0.00000000000E+00 -0.10599511120E+04  0.10599511120E+04  0.00000000000E+00 0. -1.
         25    2    1    2    0    0  0.56812595059E+02 -0.36092467304E+02  0.60472117657E+02  0.15431186697E+03  0.12499975248E+03 0.  0.
          2    1    1    2  501    0 -0.48187413674E+02  0.51268709101E+00 -0.10122599257E+04  0.10134063582E+04  0.00000000000E+00 0. -1.
          1    1    1    2  502    0 -0.86251813847E+01  0.35579780213E+02  0.16913036103E+04  0.16916998010E+04  0.00000000000E+00 0. -1.
         22    1    3    3    0    0  0.94033705579E+02 -0.43070599702E+02  0.37484636682E+02  0.11001141909E+03  0.00000000000E+00 0.  1.
         22    1    3    3    0    0 -0.37221110520E+02  0.69781323987E+01  0.22987480975E+02  0.44300447873E+02  0.00000000000E+00 0.  1.
</event>
<event>
 7    1  0.6273950E-006  0.1964403E+03  0.7818608E-02  0.1356027E+00
          2   -1    0    0  502    0  0.00000000000E+00  0.00000000000E+00  0.30427970562E+03  0.30427970562E+03  0.00000000000E+00 0. -1.
          1   -1    0    0  501    0 -0.00000000000E+00 -0.00000000000E+00 -0.10971080206E+04  0.10971080206E+04  0.00000000000E+00 0. -1.
         25    2    1    2    0    0  0.16303526747E+03 -0.89368142337E+02 -0.32913415282E+03  0.39815012276E+03  0.12500826531E+03 0.  0.
          2    1    1    2  501    0  0.20384646336E+02  0.15836724449E+02 -0.69700713135E+03  0.69748496528E+03  0.00000000000E+00 0. -1.
          1    1    1    2  502    0 -0.18341991381E+03  0.73531417888E+02  0.23331296916E+03  0.30575263821E+03  0.00000000000E+00 0. -1.
         22    1    3    3    0    0 -0.17823541770E+02  0.53273120861E+01 -0.41006399728E+02  0.45028698782E+02  0.00000000000E+00 0.  1.
         22    1    3    3    0    0  0.18085880924E+03 -0.94695454423E+02 -0.28812775309E+03  0.35312142398E+03  0.00000000000E+00 0.  1.
</event>
<event>
 7    1  0.6273950E-006  0.4598888E+02  0.7818608E-02  0.1476867E+00
          2   -1    0    0  502    0  0.00000000000E+00  0.00000000000E+00  0.43630111691E+03  0.43630111691E+03  0.00000000000E+00 0. -1.
          1   -1    0    0  501    0 -0.00000000000E+00 -0.00000000000E+00 -0.12498340487E+04  0.12498340487E+04  0.00000000000E+00 0. -1.
         25    2    1    2    0    0  0.11884051152E+02 -0.66473507168E+02 -0.24399879138E+03  0.28234438201E+03  0.12499192787E+03 0.  0.
          2    1    1    2  501    0  0.22313615467E+02  0.39996674842E+02 -0.98500786832E+03  0.98607207246E+03  0.00000000000E+00 0. -1.
          1    1    1    2  502    0 -0.34197666619E+02  0.26476832326E+02  0.41547372791E+03  0.41771871114E+03  0.00000000000E+00 0. -1.
         22    1    3    3    0    0 -0.38775857360E+02 -0.11807029077E+02 -0.17958496992E+02  0.44333741821E+02  0.00000000000E+00 0. -1.
         22    1    3    3    0    0  0.50659908512E+02 -0.54666478091E+02 -0.22604029439E+03  0.23801064019E+03  0.00000000000E+00 0. -1.
</event>
<event>
 7    1  0.6273950E-006  0.4340306E+02  0.7818608E-02  0.1496559E+00
          2   -1    0    0  502    0  0.00000000000E+00  0.00000000000E+00  0.49561291264E+03  0.49561291264E+03  0.00000000000E+00 0. -1.
          1   -1    0    0  501    0 -0.00000000000E+00 -0.00000000000E+00 -0.43153278815E+03  0.43153278815E+03  0.00000000000E+00 0. -1.
         25    2    1    2    0    0 -0.20596581924E+00  0.81748626020E+02  0.12372660643E+03  0.19394724346E+03  0.12499751930E+03 0.  0.
          2    1    1    2  501    0  0.25992397307E+01 -0.39841556168E+02 -0.39410195603E+03  0.39611924643E+03  0.00000000000E+00 0. -1.
          1    1    1    2  502    0 -0.23932739115E+01 -0.41907069852E+02  0.33445547409E+03  0.33707921089E+03  0.00000000000E+00 0. -1.
         22    1    3    3    0    0  0.49075850313E+02  0.62672842734E+02  0.11578643492E+03  0.14050915562E+03  0.00000000000E+00 0.  1.
         22    1    3    3    0    0 -0.49281816132E+02  0.19075783286E+02  0.79401715115E+01  0.53438087848E+02  0.00000000000E+00 0.  1.
</event>
<event>
 7    1  0.6273950E-006  0.1378165E+03  0.7818608E-02  0.1291689E+00
          2   -1    0    0  502    0  0.00000000000E+00  0.00000000000E+00  0.52974490679E+03  0.52974490679E+03  0.00000000000E+00 0. -1.
          1   -1    0    0  501    0 -0.00000000000E+00 -0.00000000000E+00 -0.73260328567E+03  0.73260328567E+03  0.00000000000E+00 0. -1.
         25    2    1    2    0    0  0.86322861019E+02  0.11784399068E+03  0.31290325617E+03  0.36724763882E+03  0.12499415194E+03 0.  0.
          2    1    1    2  501    0 -0.62783805582E+02  0.17482872828E+02 -0.67879515554E+03  0.68191665199E+03  0.00000000000E+00 0. -1.
          1    1    1    2  502    0 -0.23539055437E+02 -0.13532686351E+03  0.16303352049E+03  0.21318390165E+03  0.00000000000E+00 0. -1.
         22    1    3    3    0    0  0.54881094908E+02  0.88914523120E+02  0.83093950279E+02  0.13350030552E+03  0.00000000000E+00 0.  1.
         22    1    3    3    0    0  0.31441766111E+02  0.28929467564E+02  0.22980930589E+03  0.23374733330E+03  0.00000000000E+00 0.  1.
</event>
<event>
 7    1  0.6273950E-006  0.6097360E+02  0.7818608E-02  0.1434708E+00
          2   -1    0    0  502    0  0.00000000000E+00  0.00000000000E+00  0.54388508993E+03  0.54388508993E+03  0.00000000000E+00 0. -1.
          1   -1    0    0  501    0 -0.00000000000E+00 -0.00000000000E+00 -0.15498461500E+03  0.15498461500E+03  0.00000000000E+00 0. -1.
         25    2    1    2    0    0 -0.76489017611E+02  0.39230350621E+02 -0.11325043780E+02  0.15215240977E+03  0.12503003223E+03 0.  0.
          2    1    1    2  501    0  0.42938525037E+02  0.11267536834E+02 -0.64364232145E+02  0.78188417929E+02  0.00000000000E+00 0. -1.
          1    1    1    2  502    0  0.33550492573E+02 -0.50497887455E+02  0.46458975086E+03  0.46852887723E+03  0.00000000000E+00 0. -1.
         22    1    3    3    0    0 -0.52916849365E+02 -0.21581263932E+02  0.39496738053E+02  0.69468958654E+02  0.00000000000E+00 0. -1.
         22    1    3    3    0    0 -0.23572168246E+02  0.60811614554E+02 -0.50821781833E+02  0.82683451120E+02  0.00000000000E+00 0. -1.
</event>
<event>
 7    1  0.6273950E-006  0.4536850E+02  0.7818608E-02  0.1564019E+00
          2   -1    0    0  502    0  0.00000000000E+00  0.00000000000E+00  0.33252162380E+03  0.33252162380E+03  0.00000000000E+00 0. -1.
          1   -1    0    0  501    0 -0.00000000000E+00 -0.00000000000E+00 -0.91896882939E+02  0.91896882939E+02  0.00000000000E+00 0. -1.
         25    2    1    2    0    0 -0.37945988737E+02 -0.51772686747E+02  0.85051506018E+02  0.16425672547E+03  0.12500481603E+03 0.  0.
          2    1    1    2  501    0  0.31423654327E+01  0.24272912464E+02 -0.46891624859E+02  0.52894926240E+02  0.00000000000E+00 0. -1.
          1    1    1    2  502    0  0.34803623305E+02  0.27499774283E+02  0.20246485971E+03  0.20726685504E+03  0.00000000000E+00 0. -1.
         22    1    3    3    0    0 -0.21581779291E+02 -0.47095473753E+02  0.11705654425E+03  0.12800777866E+03  0.00000000000E+00 0. -1.
         22    1    3    3    0    0 -0.16364209446E+02 -0.46772129949E+01 -0.32005038234E+02  0.36248946806E+02  0.00000000000E+00 0. -1.
</event>
<event>
 7    1  0.6273950E-006  0.1501177E+03  0.7818608E-02  0.1416827E+00
          2   -1    0    0  502    0  0.00000000000E+00  0.00000000000E+00  0.10538715965E+03  0.10538715965E+03  0.00000000000E+00 0. -1.
          1   -1    0    0  501    0 -0.00000000000E+00 -0.00000000000E+00 -0.46110146521E+03  0.46110146521E+03  0.00000000000E+00 0. -1.
         25    2    1    2    0    0  0.12994564555E+03  0.51400551448E+02 -0.20727115607E+03  0.27948975168E+03  0.12500120667E+03 0.  0.
          2    1    1    2  501    0  0.18285934645E+02 -0.96272780252E+01 -0.13030005410E+03  0.13192863217E+03  0.00000000000E+00 0. -1.
          1    1    1    2  502    0 -0.14823158019E+03 -0.41773273423E+02 -0.18143095388E+02  0.15507024102E+03  0.00000000000E+00 0. -1.
         22    1    3    3    0    0  0.12285948162E+03  0.85832084700E+02 -0.18408268947E+03  0.23737741163E+03  0.00000000000E+00 0.  1.
         22    1    3    3    0    0  0.70861639281E+01 -0.34431533252E+02 -0.23188466599E+02  0.42112340050E+02  0.00000000000E+00 0.  1.
</event>
<event>
 7    1  0.6273950E-006  0.7257262E+02  0.7818608E-02  0.1443194E+00
          2   -1    0    0  502    0  0.00000000000E+00  0.00000000000E+00  0.27959948116E+03  0.27959948116E+03  0.00000000000E+00 0. -1.
          1   -1    0    0  501    0 -0.00000000000E+00 -0.00000000000E+00 -0.21476989901E+04  0.21476989901E+04  0.00000000000E+00 0. -1.
         25    2    1    2    0    0 -0.20786965599E+02 -0.68571515800E+02  0.41901124168E+02  0.15005167602E+03  0.12500260218E+03 0.  0.
          2    1    1    2  501    0 -0.31043703134E+02  0.16168885726E+02 -0.20860747797E+04  0.20863684073E+04  0.00000000000E+00 0. -1.
          1    1    1    2  502    0  0.51830668733E+02  0.52402630075E+02  0.17607414664E+03  0.19087838792E+03  0.00000000000E+00 0. -1.
         22    1    3    3    0    0  0.51007853024E+02 -0.34800610169E+02  0.33462392189E+01  0.61839153092E+02  0.00000000000E+00 0. -1.
         22    1    3    3    0    0 -0.71794818622E+02 -0.33770905631E+02  0.38554884949E+02  0.88212522930E+02  0.00000000000E+00 0. -1.
</event>
<event>
 7    1  0.6273950E-006  0.7821513E+02  0.7818608E-02  0.1389835E+00
          2   -1    0    0  502    0  0.00000000000E+00  0.00000000000E+00  0.21410542116E+02  0.21410542116E+02  0.00000000000E+00 0. -1.
          1   -1    0    0  501    0 -0.00000000000E+00 -0.00000000000E+00 -0.10668430514E+04  0.10668430514E+04  0.00000000000E+00 0. -1.
         25    2    1    2    0    0  0.28958210216E+02 -0.43031498580E+02 -0.37050130934E+03  0.39444423941E+03  0.12499899990E+03 0.  0.
          2    1    1    2  501    0  0.23745582575E+02 -0.42934790762E+02 -0.35470450032E+03  0.35808173857E+03  0.00000000000E+00 0. -1.
          1    1    1    2  502    0 -0.52703792790E+02  0.85966289342E+02 -0.32022669959E+03  0.33572761550E+03  0.00000000000E+00 0. -1.
         22    1    3    3    0    0  0.64971788231E+02 -0.55186227189E+02 -0.32046000553E+03  0.33160438489E+03  0.00000000000E+00 0. -1.
         22    1    3    3    0    0 -0.36013578015E+02  0.12154728609E+02 -0.50041303811E+02  0.62839854521E+02  0.00000000000E+00 0. -1.
</event>
<event>
 7    1  0.6273950E-006  0.8881008E+02  0.7818608E-02  0.1314842E+00
          2   -1    0    0  502    0  0.00000000000E+00  0.00000000000E+00  0.13135645239E+04  0.13135645239E+04  0.00000000000E+00 0. -1.
          1   -1    0    0  501    0 -0.00000000000E+00 -0.00000000000E+00 -0.31392294153E+02  0.31392294153E+02  0.00000000000E+00 0. -1.
         25    2    1    2    0    0 -0.60248186615E+02  0.28798032101E+02  0.74273313512E+03  0.75613360872E+03  0.12500541429E+03 0.  0.
          2    1    1    2  501    0 -0.44437792555E+02 -0.76892870713E+02  0.96498144747E+02  0.13114542658E+03  0.00000000000E+00 0. -1.
          1    1    1    2  502    0  0.10468597917E+03  0.48094838612E+02  0.44294094988E+03  0.45767778275E+03  0.00000000000E+00 0. -1.
         22    1    3    3    0    0 -0.98337703119E+02  0.29269586418E+02  0.49866840698E+03  0.50911412538E+03  0.00000000000E+00 0.  1.
         22    1    3    3    0    0  0.38089516504E+02 -0.47155431718E+00  0.24406472813E+03  0.24701948334E+03  0.00000000000E+00 0.  1.
</event>
<event>
 7    1  0.6273950E-006  0.8002566E+02  0.7818608E-02  0.1346443E+00
          2   -1    0    0  502    0  0.00000000000E+00  0.00000000000E+00  0.93036875302E+03  0.93036875302E+03  0.00000000000E+00 0. -1.
          1   -1    0    0  501    0 -0.00000000000E+00 -0.00000000000E+00 -0.15929371502E+04  0.15929371502E+04  0.00000000000E+00 0. -1.
         25    2    1    2    0    0 -0.51757387111E+02  0.95757469608E+02 -0.10455882581E+04  0.10586442234E+04  0.12499786459E+03 0.  0.
          2    1    1    2  501    0  0.66586207765E+02 -0.17125320845E+02 -0.53689195706E+03  0.54127624484E+03  0.00000000000E+00 0. -1.
          1    1    1    2  502    0 -0.14828820653E+02 -0.78632148763E+02  0.91991181796E+03  0.92338543499E+03  0.00000000000E+00 0. -1.
         22    1    3    3    0    0 -0.77792324013E+02  0.17679753716E+02 -0.62574179891E+03  0.63080664095E+03  0.00000000000E+00 0. -1.
         22    1    3    3    0    0  0.26034936902E+02  0.78077715892E+02 -0.41984645917E+03  0.42783758243E+03  0.00000000000E+00 0. -1.
</event>
<event>
 7    1  0.6273950E-006  0.6713414E+02  0.7818608E-02  0.1418980E+00
          2   -1    0    0  502    0  0.00000000000E+00  0.00000000000E+00  0.18214911629E+03  0.18214911629E+03  0.00000000000E+00 0. -1.
          1   -1    0    0  501    0 -0.00000000000E+00 -0.00000000000E+00 -0.11424047995E+04  0.11424047995E+04  0.00000000000E+00 0. -1.
         25    2    1    2    0    0  0.80934549802E+02  0.22451217297E+02 -0.23077763640E+03  0.27556823217E+03  0.12500029843E+03 0.  0.
          2    1    1    2  501    0 -0.44641049285E+02 -0.49807582811E+02 -0.88471131799E+03  0.88723600849E+03  0.00000000000E+00 0. -1.
          1    1    1    2  502    0 -0.36293500517E+02  0.27356365513E+02  0.15523327119E+03  0.16174967511E+03  0.00000000000E+00 0. -1.
         22    1    3    3    0    0 -0.79306901644E+00  0.57841017948E+02 -0.12171333606E+03  0.13476033723E+03  0.00000000000E+00 0.  1.
         22    1    3    3    0    0  0.81727618818E+02 -0.35389800651E+02 -0.10906430034E+03  0.14080789494E+03  0.00000000000E+00 0.  1.
</event>
<event>
 7    1  0.6273950E-006  0.2102542E+03  0.7818608E-02  0.1234720E+00
          2   -1    0    0  502    0  0.00000000000E+00  0.00000000000E+00  0.11388258175E+04  0.11388258175E+04  0.00000000000E+00 0. -1.
          1   -1    0    0  501    0 -0.00000000000E+00 -0.00000000000E+00 -0.59308624891E+03  0.59308624891E+03  0.00000000000E+00 0. -1.
         25    2    1    2    0    0  0.45335362308E+02 -0.14930192927E+03  0.20241875592E+03  0.28450894704E+03  0.12500250813E+03 0.  0.
          2    1    1    2  501    0  0.33548903031E+02 -0.66609245772E+02 -0.53465611108E+03  0.53983282378E+03  0.00000000000E+00 0. -1.
          1    1    1    2  502    0 -0.78884265339E+02  0.21591117504E+03  0.87797692374E+03  0.90757029560E+03  0.00000000000E+00 0. -1.
         22    1    3    3    0    0 -0.43244214631E+02 -0.46051577953E+02  0.53247375749E+02  0.82620172809E+02  0.00000000000E+00 0.  1.
         22    1    3    3    0    0  0.88579576939E+02 -0.10325035131E+03  0.14917138017E+03  0.20188877423E+03  0.00000000000E+00 0.  1.
</event>
<event>
 7    1  0.6273950E-006  0.8964535E+02  0.7818608E-02  0.1384173E+00
          2   -1    0    0  502    0  0.00000000000E+00  0.00000000000E+00  0.10606310502E+03  0.10606310502E+03  0.00000000000E+00 0. -1.
          1   -1    0    0  501    0 -0.00000000000E+00 -0.00000000000E+00 -0.22018145845E+04  0.22018145845E+04  0.00000000000E+00 0. -1.
         25    2    1    2    0    0 -0.42204124994E+02 -0.70199916217E+02 -0.10044414165E+04  0.10154982250E+04  0.12499947728E+03 0.  0.
          2    1    1    2  501    0  0.47344625112E+01  0.94774204914E+02 -0.11848588772E+04  0.11886526506E+04  0.00000000000E+00 0. -1.
          1    1    1    2  502    0  0.37469662483E+02 -0.24574288697E+02  0.93548814242E+02  0.10372681388E+03  0.00000000000E+00 0. -1.
         22    1    3    3    0    0  0.45881051433E+01 -0.11862250247E+02 -0.56604561655E+01  0.13921366805E+02  0.00000000000E+00 0.  1.
         22    1    3    3    0    0 -0.46792230137E+02 -0.58337665970E+02 -0.99878096034E+03  0.10015768582E+04  0.00000000000E+00 0.  1.
</event>
<event>
 7    1  0.6273950E-006  0.1077762E+03  0.7818608E-02  0.1312076E+00
          2   -1    0    0  502    0  0.00000000000E+00  0.00000000000E+00  0.12972759242E+04  0.12972759242E+04  0.00000000000E+00 0. -1.
          1   -1    0    0  501    0 -0.00000000000E+00 -0.00000000000E+00 -0.13438808069E+04  0.13438808069E+04  0.00000000000E+00 0. -1.
         25    2    1    2    0    0  0.10025692873E+03  0.27793261201E+01  0.23074126048E+03  0.28093685929E+03  0.12499925282E+03 0.  0.
          2    1    1    2  501    0 -0.14498618149E+02  0.67559625062E+02 -0.13149201567E+04  0.13167344195E+04  0.00000000000E+00 0. -1.
          1    1    1    2  502    0 -0.85758310577E+02 -0.70338951182E+02  0.10375740135E+04  0.10434854524E+04  0.00000000000E+00 0. -1.
         22    1    3    3    0    0 -0.11897339179E+01 -0.47170317663E+02  0.67959997733E+02  0.82734609609E+02  0.00000000000E+00 0. -1.
         22    1    3    3    0    0  0.10144666264E+03  0.49949643783E+02  0.16278126275E+03  0.19820224968E+03  0.00000000000E+00 0. -1.
</event>
<event>
 7    1  0.6273950E-006  0.9664304E+02  0.7818608E-02  0.1328198E+00
          2   -1    0    0  502    0  0.00000000000E+00  0.00000000000E+00  0.23417472086E+04  0.23417472086E+04  0.00000000000E+00 0. -1.
          1   -1    0    0  501    0 -0.00000000000E+00 -0.00000000000E+00 -0.92429398277E+03  0.92429398277E+03  0.00000000000E+00 0. -1.
         25    2    1    2    0    0 -0.14043898364E+02 -0.14982197714E+03 -0.30352327954E+02  0.19796678119E+03  0.12500290688E+03 0.  0.
          2    1    1    2  501    0  0.37518581177E+02  0.87364823007E+02 -0.80684945555E+03  0.81243233574E+03  0.00000000000E+00 0. -1.
          1    1    1    2  502    0 -0.23474682813E+02  0.62457154134E+02  0.22546550094E+04  0.22556420745E+04  0.00000000000E+00 0. -1.
         22    1    3    3    0    0  0.92412149579E+01 -0.15930197767E+03 -0.48707820212E+02  0.16683816078E+03  0.00000000000E+00 0.  1.
         22    1    3    3    0    0 -0.23285113321E+02  0.94800005309E+01  0.18355492259E+02  0.31128620408E+02  0.00000000000E+00 0.  1.
</event>
<event>
 7    1  0.6273950E-006  0.1577685E+03  0.7818608E-02  0.1343535E+00
          2   -1    0    0  502    0  0.00000000000E+00  0.00000000000E+00  0.14485616859E+04  0.14485616859E+04  0.00000000000E+00 0. -1.
          1   -1    0    0  501    0 -0.00000000000E+00 -0.00000000000E+00 -0.15787866046E+04  0.15787866046E+04  0.00000000000E+00 0. -1.
         25    2    1    2    0    0  0.52793802573E+02 -0.12517086313E+03 -0.18736120411E+03  0.26303715238E+03  0.12501756740E+03 0.  0.
          2    1    1    2  501    0 -0.35930237457E+02  0.15670122375E+03 -0.13485856209E+04  0.13581345414E+04  0.00000000000E+00 0. -1.
          1    1    1    2  502    0 -0.16863565116E+02 -0.31530360616E+02  0.14057219063E+04  0.14061765968E+04  0.00000000000E+00 0. -1.
         22    1    3    3    0    0  0.84386014066E+02 -0.12523839521E+03 -0.13885273015E+03  0.20514808231E+03  0.00000000000E+00 0. -1.
         22    1    3    3    0    0 -0.31592211493E+02  0.67532080472E-01 -0.48508473960E+02  0.57889070070E+02  0.00000000000E+00 0. -1.
</event>
<event>
 7    1  0.6273950E-006  0.1098766E+03  0.7818608E-02  0.1361933E+00
          2   -1    0    0  502    0  0.00000000000E+00  0.00000000000E+00  0.16122143961E+04  0.16122143961E+04  0.00000000000E+00 0. -1.
          1   -1    0    0  501    0 -0.00000000000E+00 -0.00000000000E+00 -0.81448502051E+02  0.81448502051E+02  0.00000000000E+00 0. -1.
         25    2    1    2    0    0 -0.62808315057E+02 -0.61604690762E+02  0.44365193327E+03  0.46924591453E+03  0.12499867216E+03 0.  0.
          2    1    1    2  501    0  0.11656317625E+02 -0.42337139559E+02 -0.58395863910E+02  0.73064218660E+02  0.00000000000E+00 0. -1.
          1    1    1    2  502    0  0.51151997432E+02  0.10394183032E+03  0.11455098247E+04  0.11513527650E+04  0.00000000000E+00 0. -1.
         22    1    3    3    0    0  0.35348805501E+02 -0.10892931413E+02  0.64811946755E+02  0.74624275187E+02  0.00000000000E+00 0.  1.
         22    1    3    3    0    0 -0.98157120558E+02 -0.50711759349E+02  0.37883998651E+03  0.39462163934E+03  0.00000000000E+00 0.  1.
</event>
<event>
 7    1  0.6273950E-006  0.6983630E+02  0.7818608E-02  0.1361572E+00
          2   -1    0    0  502    0  0.00000000000E+00  0.00000000000E+00  0.39356367131E+03  0.39356367131E+03  0.00000000000E+00 0. -1.
          1   -1    0    0  501    0 -0.00000000000E+00 -0.00000000000E+00 -0.15111024978E+03  0.15111024978E+03  0.00000000000E+00 0. -1.
         25    2    1    2    0    0 -0.54798564979E+02 -0.68051607591E+01  0.69857182803E+01  0.13683203640E+03  0.12500005195E+03 0.  0.
          2    1    1    2  501    0  0.32404286537E+02 -0.61863319794E+02 -0.67054797966E+02  0.96816600086E+02  0.00000000000E+00 0. -1.
          1    1    1    2  502    0  0.22394278442E+02  0.68668480553E+02  0.30252250121E+03  0.31102528461E+03  0.00000000000E+00 0. -1.
         22    1    3    3    0    0 -0.33749147813E+02 -0.64573734389E+02 -0.86994269847E+01  0.73378826517E+02  0.00000000000E+00 0. -1.
         22    1    3    3    0    0 -0.21049417166E+02  0.57768573630E+02  0.15685145265E+02  0.63453209882E+02  0.00000000000E+00 0. -1.
</event>
<event>
 7    1  0.6273950E-006  0.7477330E+02  0.7818608E-02  0.1394827E+00
          2   -1    0    0  502    0  0.00000000000E+00  0.00000000000E+00  0.43320665390E+03  0.43320665390E+03  0.00000000000E+00 0. -1.
          1   -1    0    0  501    0 -0.00000000000E+00 -0.00000000000E+00 -0.85520855737E+03  0.85520855737E+03  0.00000000000E+00 0. -1.
         25    2    1    2    0    0  0.33016206767E+02  0.23946683238E+02  0.45413038733E+02  0.13910760799E+03  0.12500027587E+03 0.  0.
          2    1    1    2  501    0 -0.39639731836E+01  0.49151543790E+02 -0.80305800291E+03  0.80457053350E+03  0.00000000000E+00 0. -1.
          1    1    1    2  502    0 -0.29052233584E+02 -0.73098227028E+02  0.33564306071E+03  0.34473706977E+03  0.00000000000E+00 0. -1.
         22    1    3    3    0    0  0.13355465495E+02 -0.51057183771E+02  0.93638499971E+01  0.53599311189E+02  0.00000000000E+00 0. -1.
         22    1    3    3    0    0  0.19660741272E+02  0.75003867009E+02  0.36049188735E+02  0.85508296803E+02  0.00000000000E+00 0. -1.
</event>
<event>
 7    1  0.6273950E-006  0.1401782E+03  0.7818608E-02  0.1276500E+00
          2   -1    0    0  502    0  0.00000000000E+00  0.00000000000E+00  0.89804407635E+03  0.89804407635E+03  0.00000000000E+00 0. -1.
          1   -1    0    0  501    0 -0.00000000000E+00 -0.00000000000E+00 -0.31405612741E+03  0.31405612741E+03  0.00000000000E+00 0. -1.
         25    2    1    2    0    0 -0.10209014767E+03 -0.17198607175E+03  0.27031096750E+03  0.35874089508E+03  0.12500161410E+03 0.  0.
          2    1    1    2  501    0  0.53883911561E+02  0.50673669720E+02 -0.25726333593E+03  0.26768586205E+03  0.00000000000E+00 0. -1.
          1    1    1    2  502    0  0.48206236109E+02  0.12131240203E+03  0.57094031737E+03  0.58567344663E+03  0.00000000000E+00 0. -1.
         22    1    3    3    0    0 -0.32686114987E+01 -0.59790590299E+02  0.13197174522E+02  0.61316913856E+02  0.00000000000E+00 0.  1.
         22    1    3    3    0    0 -0.98821536171E+02 -0.11219548145E+03  0.25711379297E+03  0.29742398122E+03  0.00000000000E+00 0.  1.
</event>
<event>
 7    1  0.6273950E-006  0.6699765E+02  0.7818608E-02  0.1387346E+00
          2   -1    0    0  502    0  0.00000000000E+00  0.00000000000E+00  0.10481230250E+04  0.10481230250E+04  0.00000000000E+00 0. -1.
          1   -1    0    0  501    0 -0.00000000000E+00 -0.00000000000E+00 -0.37826130258E+03  0.37826130258E+03  0.00000000000E+00 0. -1.
         25    2    1    2    0    0  0.21192270263E+02 -0.10273738342E+03  0.24897733924E+03  0.29769355076E+03  0.12501060932E+03 0.  0.
          2    1    1    2  501    0  0.22578064570E+02  0.53899963025E+02 -0.35008917409E+03  0.35493295822E+03  0.00000000000E+00 0. -1.
          1    1    1    2  502    0 -0.43770334833E+02  0.48837420391E+02  0.77097355731E+03  0.77375781864E+03  0.00000000000E+00 0. -1.
         22    1    3    3    0    0 -0.32742461336E+02 -0.82179051993E+02  0.21047749970E+03  0.22831172383E+03  0.00000000000E+00 0.  1.
         22    1    3    3    0    0  0.53934731599E+02 -0.20558331423E+02  0.38499839543E+02  0.69381826932E+02  0.00000000000E+00 0.  1.
</event>
<event>
 7    1  0.6273950E-006  0.2312580E+03  0.7818608E-02  0.1179266E+00
          2   -1    0    0  502    0  0.00000000000E+00  0.00000000000E+00  0.29401936909E+04  0.29401936909E+04  0.00000000000E+00 0. -1.
          1   -1    0    0  501    0 -0.00000000000E+00 -0.00000000000E+00 -0.16888053244E+03  0.16888053244E+03  0.00000000000E+00 0. -1.
         25    2    1    2    0    0 -0.22702608067E+02 -0.24910247987E+03  0.13386290930E+04  0.13675238148E+04  0.12500432613E+03 0.  0.
          2    1    1    2  501    0 -0.94508696379E+02  0.21185559594E+03 -0.63346195732E+02  0.24047334101E+03  0.00000000000E+00 0. -1.
          1    1    1    2  502    0  0.11721130445E+03  0.37246883932E+02  0.14960302612E+04  0.15010770676E+04  0.00000000000E+00 0. -1.
         22    1    3    3    0    0  0.91603721916E+00 -0.21796891033E+03  0.85603150115E+03  0.88334660012E+03  0.00000000000E+00 0.  1.
         22    1    3    3    0    0 -0.23618645286E+02 -0.31133569544E+02  0.48259759186E+03  0.48417721469E+03  0.00000000000E+00 0.  1.
</event>
<event>
 7    1  0.6273950E-006  0.5937759E+02  0.7818608E-02  0.1475148E+00
          2   -1    0    0  502    0  0.00000000000E+00  0.00000000000E+00  0.55437938479E+03  0.55437938479E+03  0.00000000000E+00 0. -1.
          1   -1    0    0  501    0 -0.00000000000E+00 -0.00000000000E+00 -0.15988925246E+03  0.15988925246E+03  0.00000000000E+00 0. -1.
         25    2    1    2    0    0 -0.41180773136E+02 -0.65459365406E+02  0.33569422615E+03  0.36646437177E+03  0.12499895085E+03 0.  0.
          2    1    1    2  501    0  0.49416969817E+02  0.32566221711E+02 -0.13692493846E+03  0.14916780643E+03  0.00000000000E+00 0. -1.
          1    1    1    2  502    0 -0.82361966813E+01  0.32893143694E+02  0.19572084464E+03  0.19863645905E+03  0.00000000000E+00 0. -1.
         22    1    3    3    0    0 -0.51632278966E+02 -0.93342145763E+01  0.41820785075E+02  0.67096928821E+02  0.00000000000E+00 0.  1.
         22    1    3    3    0    0  0.10451505831E+02 -0.56125150829E+02  0.29387344108E+03  0.29936744295E+03  0.00000000000E+00 0.  1.
</event>
<event>
 7    1  0.6273950E-006  0.1047896E+03  0.7818608E-02  0.1395101E+00
          2   -1    0    0  502    0  0.00000000000E+00  0.00000000000E+00  0.30352716953E+04  0.30352716953E+04  0.00000000000E+00 0. -1.
          1   -1    0    0  501    0 -0.00000000000E+00 -0.00000000000E+00 -0.29905892468E+02  0.29905892468E+02  0.00000000000E+00 0. -1.
         25    2    1    2    0    0 -0.62879953617E+02 -0.92878549718E+02  0.11901016854E+04  0.12018934128E+04  0.12500176214E+03 0.  0.
          2    1    1    2  501    0  0.28625262911E+02  0.10057797891E+03  0.90884594871E+02  0.13854726668E+03  0.00000000000E+00 0. -1.
          1    1    1    2  502    0  0.34254690706E+02 -0.76994291944E+01  0.17243795226E+04  0.17247369083E+04  0.00000000000E+00 0. -1.
         22    1    3    3    0    0  0.29333432634E+02 -0.49816287580E+02  0.26631288595E+03  0.27251544176E+03  0.00000000000E+00 0.  1.
         22    1    3    3    0    0 -0.92213386251E+02 -0.43062262138E+02  0.92378879943E+03  0.92937797100E+03  0.00000000000E+00 0.  1.
</event>
<event>
 7    1  0.6273950E-006  0.3389735E+02  0.7818608E-02  0.1596776E+00
          2   -1    0    0  502    0  0.00000000000E+00  0.00000000000E+00  0.66097993827E+03  0.66097993827E+03  0.00000000000E+00 0. -1.
          1   -1    0    0  501    0 -0.00000000000E+00 -0.00000000000E+00 -0.42985717357E+03  0.42985717357E+03  0.00000000000E+00 0. -1.
         25    2    1    2    0    0 -0.30769977876E+02  0.45136071276E+02 -0.62612863591E+02  0.15009802012E+03  0.12499995395E+03 0.  0.
          2    1    1    2  501    0  0.27991467138E+02 -0.18518730098E+02 -0.32233992998E+03  0.32408254513E+03  0.00000000000E+00 0. -1.
          1    1    1    2  502    0  0.27785107380E+01 -0.26617341177E+02  0.61607555826E+03  0.61665654660E+03  0.00000000000E+00 0. -1.
         22    1    3    3    0    0 -0.39416826710E+02  0.82057205853E+02 -0.20280181813E+02  0.93264982896E+02  0.00000000000E+00 0.  1.
         22    1    3    3    0    0  0.86468488338E+01 -0.36921134577E+02 -0.42332681778E+02  0.56833037221E+02  0.00000000000E+00 0.  1.
</event>
<event>
 7    1  0.6273950E-006  0.3634590E+03  0.7818608E-02  0.1187499E+00
          2   -1    0    0  502    0  0.00000000000E+00  0.00000000000E+00  0.80534777167E+03  0.80534777167E+03  0.00000000000E+00 0. -1.
          1   -1    0    0  501    0 -0.00000000000E+00 -0.00000000000E+00 -0.13398841215E+04  0.13398841215E+04  0.00000000000E+00 0. -1.
         25    2    1    2    0    0  0.21545383519E+03  0.35578595057E+03 -0.46625719547E+03  0.63720064470E+03  0.12499956618E+03 0.  0.
          2    1    1    2  501    0 -0.65040167635E+02 -0.29398150726E+02 -0.74148186038E+03  0.74490927229E+03  0.00000000000E+00 0. -1.
          1    1    1    2  502    0 -0.15041366756E+03 -0.32638779985E+03  0.67320270597E+03  0.76312197623E+03  0.00000000000E+00 0. -1.
         22    1    3    3    0    0  0.12475022896E+03  0.92454596488E+02 -0.18205794612E+03  0.23928135695E+03  0.00000000000E+00 0.  1.
         22    1    3    3    0    0  0.90703606229E+02  0.26333135409E+03 -0.28419924936E+03  0.39791928775E+03  0.00000000000E+00 0.  1.
</event>
<event>
 7    1  0.6273950E-006  0.5428569E+02  0.7818608E-02  0.1448240E+00
          2   -1    0    0  502    0  0.00000000000E+00  0.00000000000E+00  0.30951229461E+03  0.30951229461E+03  0.00000000000E+00 0. -1.
          1   -1    0    0  501    0 -0.00000000000E+00 -0.00000000000E+00 -0.22432365137E+04  0.22432365137E+04  0.00000000000E+00 0. -1.
         25    2    1    2    0    0 -0.25156542432E+00 -0.36092786414E+02  0.62570100474E+01  0.13025898450E+03  0.12500200140E+03 0.  0.
          2    1    1    2  501    0  0.44998696337E+02  0.30664689996E+02 -0.21787869472E+04  0.21794673127E+04  0.00000000000E+00 0. -1.
          1    1    1    2  502    0 -0.44747130913E+02  0.54280964183E+01  0.23880571802E+03  0.24302251113E+03  0.00000000000E+00 0. -1.
         22    1    3    3    0    0 -0.44307111083E+02 -0.57895920877E+02 -0.18508543488E+02  0.75217178415E+02  0.00000000000E+00 0.  1.
         22    1    3    3    0    0  0.44055545659E+02  0.21803134463E+02  0.24765553535E+02  0.55041806089E+02  0.00000000000E+00 0.  1.
</event>
<event>
 7    1  0.6273950E-006  0.7230627E+02  0.7818608E-02  0.1434885E+00
          2   -1    0    0  502    0  0.00000000000E+00  0.00000000000E+00  0.22681955588E+04  0.22681955588E+04  0.00000000000E+00 0. -1.
          1   -1    0    0  501    0 -0.00000000000E+00 -0.00000000000E+00 -0.17720354181E+02  0.17720354181E+02  0.00000000000E+00 0. -1.
         25    2    1    2    0    0 -0.39644813123E+02 -0.36911633349E+01  0.47698499897E+03  0.49469696227E+03  0.12500023736E+03 0.  0.
          2    1    1    2  501    0 -0.35212870524E+02  0.12556429065E+02  0.35370308117E+02  0.51465219884E+02  0.00000000000E+00 0. -1.
          1    1    1    2  502    0  0.74857683647E+02 -0.88652657305E+01  0.17381198976E+04  0.17397537309E+04  0.00000000000E+00 0. -1.
         22    1    3    3    0    0  0.25686956857E+02 -0.23737059268E+02  0.33815542960E+03  0.33995935390E+03  0.00000000000E+00 0.  1.
         22    1    3    3    0    0 -0.65331769980E+02  0.20045895933E+02  0.13882956937E+03  0.15473760837E+03  0.00000000000E+00 0.  1.
</event>
<event>
 7    1  0.6273950E-006  0.1542325E+03  0.7818608E-02  0.1350918E+00
          2   -1    0    0  502    0  0.00000000000E+00  0.00000000000E+00  0.16608366405E+04  0.16608366405E+04  0.00000000000E+00 0. -1.
          1   -1    0    0  501    0 -0.00000000000E+00 -0.00000000000E+00 -0.12866757781E+03  0.12866757781E+03  0.00000000000E+00 0. -1.
         25    2    1    2    0    0 -0.13086698564E+03 -0.43216436210E+02  0.78148201537E+03  0.80332636046E+03  0.12500109108E+03 0.  0.
          2    1    1    2  501    0 -0.32672838533E+02  0.10552653601E+02 -0.10702788883E+03  0.11240036416E+03  0.00000000000E+00 0. -1.
          1    1    1    2  502    0  0.16353982418E+03  0.32663782609E+02  0.85771493612E+03  0.87377749366E+03  0.00000000000E+00 0. -1.
         22    1    3    3    0    0 -0.12538864756E+03 -0.73273349747E+02  0.51457026426E+03  0.53467172507E+03  0.00000000000E+00 0.  1.
         22    1    3    3    0    0 -0.54783380804E+01  0.30056913536E+02  0.26691175111E+03  0.26865463539E+03  0.00000000000E+00 0.  1.
</event>
<event>
 7    1  0.6273950E-006  0.8256706E+02  0.7818608E-02  0.1352804E+00
          2   -1    0    0  502    0  0.00000000000E+00  0.00000000000E+00  0.68464792082E+03  0.68464792082E+03  0.00000000000E+00 0. -1.
          1   -1    0    0  501    0 -0.00000000000E+00 -0.00000000000E+00 -0.51207512314E+02  0.51207512314E+02  0.00000000000E+00 0. -1.
         25    2    1    2    0    0 -0.24694877824E+02 -0.69233989755E+02  0.94947258655E+02  0.17332622139E+03  0.12499525897E+03 0.  0.
          2    1    1    2  501    0  0.62627844252E+02 -0.78266488953E+01  0.12296375742E+03  0.13821573336E+03  0.00000000000E+00 0. -1.
          1    1    1    2  502    0 -0.37932966428E+02  0.77060638651E+02  0.41552939242E+03  0.42431347838E+03  0.00000000000E+00 0. -1.
         22    1    3    3    0    0 -0.79888806557E+01 -0.50597272837E+02 -0.20517225287E+02  0.55180275154E+02  0.00000000000E+00 0.  1.
         22    1    3    3    0    0 -0.16705997169E+02 -0.18636716919E+02  0.11546448394E+03  0.11814594623E+03  0.00000000000E+00 0.  1.
</event>
<event>
 7    1  0.7824661E-006  0.8577945E+02  0.7818608E-02  0.1324716E+00
          2   -1    0    0  502    0  0.00000000000E+00  0.00000000000E+00  0.28488431155E+04  0.28488431155E+04  0.00000000000E+00 0. -1.
          1   -1    0    0  501    0 -0.00000000000E+00 -0.00000000000E+00 -0.51584210549E+03  0.51584210549E+03  0.00000000000E+00 0. -1.
         25    2    1    2    0    0 -0.28213500401E+02  0.47617393803E+02 -0.14761108142E+03  0.20118691256E+03  0.12499489843E+03 0.  0.
          2    1    1    2  501    0  0.73131893686E+02  0.25725271850E+02 -0.33637785399E+03  0.34519577654E+03  0.00000000000E+00 0. -1.
          1    1    1    2  502    0 -0.44918393285E+02 -0.73342665653E+02  0.28169899454E+04  0.28183025319E+04  0.00000000000E+00 0. -1.
         22    1    3    3    0    0 -0.41864811090E+02  0.10169043201E+01  0.39250150334E+01  0.42060697153E+02  0.00000000000E+00 0.  1.
         22    1    3    3    0    0  0.13651310690E+02  0.46600489483E+02 -0.15153609645E+03  0.15912621541E+03  0.00000000000E+00 0.  1.
</event>
<event>
 7    1  0.6273950E-006  0.1238146E+03  0.7818608E-02  0.1437047E+00
          2   -1    0    0  502    0  0.00000000000E+00  0.00000000000E+00  0.12677100634E+04  0.12677100634E+04  0.00000000000E+00 0. -1.
          1   -1    0    0  501    0 -0.00000000000E+00 -0.00000000000E+00 -0.87554846481E+02  0.87554846481E+02  0.00000000000E+00 0. -1.
         25    2    1    2    0    0 -0.65894343210E+02 -0.11787577441E+03  0.39644899325E+03  0.43707359270E+03  0.12499903410E+03 0.  0.
          2    1    1    2  501    0  0.44771042760E+02  0.11397575704E+03 -0.11227548057E+02  0.12296738307E+03  0.00000000000E+00 0. -1.
          1    1    1    2  502    0  0.21123300450E+02  0.39000173606E+01  0.79493377176E+03  0.79522393414E+03  0.00000000000E+00 0. -1.
         22    1    3    3    0    0  0.27090618655E+02 -0.31089473559E+02  0.19129880874E+03  0.19569284916E+03  0.00000000000E+00 0. -1.
         22    1    3    3    0    0 -0.92984961865E+02 -0.86786300847E+02  0.20515018451E+03  0.24138074354E+03  0.00000000000E+00 0. -1.
</event>
<event>
 7    1  0.6273950E-006  0.7837061E+02  0.7818608E-02  0.1335077E+00
          2   -1    0    0  502    0  0.00000000000E+00  0.00000000000E+00  0.64404880910E+03  0.64404880910E+03  0.00000000000E+00 0. -1.
          1   -1    0    0  501    0 -0.00000000000E+00 -0.00000000000E+00 -0.19287563767E+03  0.19287563767E+03  0.00000000000E+00 0. -1.
         25    2    1    2    0    0 -0.22160181365E+02  0.10080336317E+02  0.15196727402E+03  0.19826602045E+03  0.12499070234E+03 0.  0.
          2    1    1    2  501    0 -0.42711152856E+00  0.77459084275E+02 -0.15620735839E+03  0.17435834071E+03  0.00000000000E+00 0. -1.
          1    1    1    2  502    0  0.22587292894E+02 -0.87539420592E+02  0.45541325579E+03  0.46430008562E+03  0.00000000000E+00 0. -1.
         22    1    3    3    0    0  0.45323636014E+01  0.46153620619E+01 -0.21613061853E+02  0.22560326448E+02  0.00000000000E+00 0.  1.
         22    1    3    3    0    0 -0.26692544967E+02  0.54649742551E+01  0.17358033588E+03  0.17570569400E+03  0.00000000000E+00 0.  1.
</event>
<event>
 7    1  0.6273950E-006  0.5357542E+02  0.7818608E-02  0.1455077E+00
          2   -1    0    0  502    0  0.00000000000E+00  0.00000000000E+00  0.17669743697E+04  0.17669743697E+04  0.00000000000E+00 0. -1.
          1   -1    0    0  501    0 -0.00000000000E+00 -0.00000000000E+00 -0.60832362955E+03  0.60832362955E+03  0.00000000000E+00 0. -1.
         25    2    1    2    0    0 -0.33004811272E+02 -0.14857059675E+02  0.43007965498E+03  0.44933780875E+03  0.12500362778E+03 0.  0.
          2    1    1    2  501    0  0.19395865994E+02 -0.38863338453E+02 -0.59732720552E+03  0.59890429047E+03  0.00000000000E+00 0. -1.
          1    1    1    2  502    0  0.13608945278E+02  0.53720398128E+02  0.13258982907E+04  0.13270559000E+04  0.00000000000E+00 0. -1.
         22    1    3    3    0    0 -0.36303647130E+02  0.30253274429E+02  0.37545618850E+03  0.37841850495E+03  0.00000000000E+00 0. -1.
         22    1    3    3    0    0  0.32988358577E+01 -0.45110334104E+02  0.54623466481E+02  0.70919303799E+02  0.00000000000E+00 0. -1.
</event>
<event>
 7    1  0.6273950E-006  0.6399874E+02  0.7818608E-02  0.1423767E+00
          2   -1    0    0  502    0  0.00000000000E+00  0.00000000000E+00  0.15534110393E+04  0.15534110393E+04  0.00000000000E+00 0. -1.
          1   -1    0    0  501    0 -0.00000000000E+00 -0.00000000000E+00 -0.36968406387E+03  0.36968406387E+03  0.00000000000E+00 0. -1.
         25    2    1    2    0    0 -0.82881203028E+02 -0.17558670264E+02 -0.19842327725E+03  0.24934680544E+03  0.12499772683E+03 0.  0.
          2    1    1    2  501    0  0.37096190157E+02 -0.27125164476E+02 -0.14148974518E+03  0.14876575501E+03  0.00000000000E+00 0. -1.
          1    1    1    2  502    0  0.45785012871E+02  0.44683834740E+02  0.15236399979E+04  0.15249825427E+04  0.00000000000E+00 0. -1.
         22    1    3    3    0    0 -0.82181369826E+02  0.30758040811E+02 -0.70371643099E+02  0.11248112185E+03  0.00000000000E+00 0.  1.
         22    1    3    3    0    0 -0.69983320255E+00 -0.48316711075E+02 -0.12805163415E+03  0.13686568359E+03  0.00000000000E+00 0.  1.
</event>
<event>
 7    1  0.6273950E-006  0.1004177E+03  0.7818608E-02  0.1463321E+00
          2   -1    0    0  502    0  0.00000000000E+00  0.00000000000E+00  0.92190452575E+03  0.92190452575E+03  0.00000000000E+00 0. -1.
          1   -1    0    0  501    0 -0.00000000000E+00 -0.00000000000E+00 -0.87548127257E+03  0.87548127257E+03  0.00000000000E+00 0. -1.
         25    2    1    2    0    0  0.77124399115E+02 -0.22044739698E+02  0.19545807556E+03  0.24548636172E+03  0.12500220399E+03 0.  0.
          2    1    1    2  501    0 -0.98795986922E+02  0.19462196501E+02 -0.84731549218E+03  0.85327777857E+03  0.00000000000E+00 0. -1.
          1    1    1    2  502    0  0.21671587807E+02  0.25825431976E+01  0.69828066980E+03  0.69862165803E+03  0.00000000000E+00 0. -1.
         22    1    3    3    0    0  0.92555389903E+02  0.23543331964E+02  0.98258956680E+02  0.13702412652E+03  0.00000000000E+00 0.  1.
         22    1    3    3    0    0 -0.15430990788E+02 -0.45588071663E+02  0.97199118877E+02  0.10846223520E+03  0.00000000000E+00 0.  1.
</event>
<event>
 7    1  0.6273950E-006  0.1803761E+03  0.7818608E-02  0.1238799E+00
          2   -1    0    0  502    0  0.00000000000E+00  0.00000000000E+00  0.46971706507E+02  0.46971706507E+02  0.00000000000E+00 0. -1.
          1   -1    0    0  501    0 -0.00000000000E+00 -0.00000000000E+00 -0.17908520181E+04  0.17908520181E+04  0.00000000000E+00 0. -1.
         25    2    1    2    0    0  0.35232794312E+02  0.14688012949E+03 -0.43824709065E+03  0.48010314692E+03  0.12499358781E+03 0.  0.
          2    1    1    2  501    0  0.73925411424E+02  0.38583982734E+02 -0.84713828170E+03  0.85123261127E+03  0.00000000000E+00 0. -1.
          1    1    1    2  502    0 -0.10915820574E+03 -0.18546411222E+03 -0.45849493927E+03  0.50648796643E+03  0.00000000000E+00 0. -1.
         22    1    3    3    0    0  0.79303078180E+02  0.64986001709E+02 -0.24735525381E+03  0.26776254445E+03  0.00000000000E+00 0. -1.
         22    1    3    3    0    0 -0.44070283868E+02  0.81894127781E+02 -0.19089183684E+03  0.21234060247E+03  0.00000000000E+00 0. -1.
</event>
<event>
 7    1  0.6273950E-006  0.5350497E+02  0.7818608E-02  0.1528462E+00
          2   -1    0    0  502    0  0.00000000000E+00  0.00000000000E+00  0.80854231275E+03  0.80854231275E+03  0.00000000000E+00 0. -1.
          1   -1    0    0  501    0 -0.00000000000E+00 -0.00000000000E+00 -0.11890263025E+03  0.11890263025E+03  0.00000000000E+00 0. -1.
         25    2    1    2    0    0 -0.10991287321E+02 -0.40067276420E+02  0.31436105084E+03  0.34084283943E+03  0.12499910346E+03 0.  0.
          2    1    1    2  501    0 -0.26082995227E+02 -0.11582335959E+01 -0.10242064441E+03  0.10569603846E+03  0.00000000000E+00 0. -1.
          1    1    1    2  502    0  0.37074282548E+02  0.41225510016E+02  0.47769927607E+03  0.48090606511E+03  0.00000000000E+00 0. -1.
         22    1    3    3    0    0  0.39518709035E+02 -0.60681017589E+02  0.22267511525E+03  0.23415405444E+03  0.00000000000E+00 0. -1.
         22    1    3    3    0    0 -0.50509996356E+02  0.20613741169E+02  0.91685935589E+02  0.10668878499E+03  0.00000000000E+00 0. -1.
</event>
<event>
 7    1  0.6273950E-006  0.1222643E+03  0.7818608E-02  0.1378967E+00
          2   -1    0    0  502    0  0.00000000000E+00  0.00000000000E+00  0.26427662264E+03  0.26427662264E+03  0.00000000000E+00 0. -1.
          1   -1    0    0  501    0 -0.00000000000E+00 -0.00000000000E+00 -0.36675089988E+03  0.36675089988E+03  0.00000000000E+00 0. -1.
         25    2    1    2    0    0 -0.13393214539E+02 -0.13101758054E+03 -0.20478776840E+02  0.18272473822E+03  0.12499586014E+03 0.  0.
          2    1    1    2  501    0  0.42833301254E+02  0.11346357288E+03 -0.24945347452E+03  0.27737287181E+03  0.00000000000E+00 0. -1.
          1    1    1    2  502    0 -0.29440086715E+02  0.17554007653E+02  0.16745797411E+03  0.17092991249E+03  0.00000000000E+00 0. -1.
         22    1    3    3    0    0  0.52526102844E+02 -0.39783845858E+02 -0.23964079557E+02  0.70114356449E+02  0.00000000000E+00 0.  1.
         22    1    3    3    0    0 -0.65919317383E+02 -0.91233734678E+02  0.34853027171E+01  0.11261038177E+03  0.00000000000E+00 0.  1.
</event>
<event>
 7    1  0.6273950E-006  0.6877877E+02  0.7818608E-02  0.1450738E+00
          2   -1    0    0  502    0  0.00000000000E+00  0.00000000000E+00  0.31627641314E+04  0.31627641314E+04  0.00000000000E+00 0. -1.
          1   -1    0    0  501    0 -0.00000000000E+00 -0.00000000000E+00 -0.55225240465E+02  0.55225240465E+02  0.00000000000E+00 0. -1.
         25    2    1    2    0    0 -0.36424097638E+01 -0.80914521642E+02  0.57699846526E+03  0.59591446509E+03  0.12500557519E+03 0.  0.
          2    1    1    2  501    0 -0.26486516678E+02  0.63245162102E+02 -0.19898885352E+02  0.71396440621E+02  0.00000000000E+00 0. -1.
          1    1    1    2  502    0  0.30128926441E+02  0.17669359540E+02  0.25504393111E+04  0.25506784662E+04  0.00000000000E+00 0. -1.
         22    1    3    3    0    0  0.59055770325E+02 -0.24022745869E+02  0.22316586710E+03  0.23209412006E+03  0.00000000000E+00 0. -1.
         22    1    3    3    0    0 -0.62698180088E+02 -0.56891775773E+02  0.35383259816E+03  0.36382034503E+03  0.00000000000E+00 0. -1.
</event>
<event>
 7    1  0.6273950E-006  0.6336536E+02  0.7818608E-02  0.1533901E+00
          2   -1    0    0  502    0  0.00000000000E+00  0.00000000000E+00  0.18143856314E+03  0.18143856314E+03  0.00000000000E+00 0. -1.
          1   -1    0    0  501    0 -0.00000000000E+00 -0.00000000000E+00 -0.10763174798E+04  0.10763174798E+04  0.00000000000E+00 0. -1.
         25    2    1    2    0    0  0.44672937910E+02  0.63723244607E+02 -0.13368509899E+03  0.19887062037E+03  0.12498597789E+03 0.  0.
          2    1    1    2  501    0 -0.46403888554E+02 -0.42523699456E+02 -0.90818492686E+03  0.91036336001E+03  0.00000000000E+00 0. -1.
          1    1    1    2  502    0  0.17309506444E+01 -0.21199545151E+02  0.14699110916E+03  0.14852206259E+03  0.00000000000E+00 0. -1.
         22    1    3    3    0    0  0.83921040962E+02  0.59789621550E+02 -0.72193393812E+02  0.12581504708E+03  0.00000000000E+00 0.  1.
         22    1    3    3    0    0 -0.39248103052E+02  0.39336230575E+01 -0.61491705175E+02  0.73055573291E+02  0.00000000000E+00 0.  1.
</event>
<event>
 7    1  0.6273950E-006  0.6185756E+02  0.7818608E-02  0.1402318E+00
          2   -1    0    0  502    0  0.00000000000E+00  0.00000000000E+00  0.14001318049E+03  0.14001318049E+03  0.00000000000E+00 0. -1.
          1   -1    0    0  501    0 -0.00000000000E+00 -0.00000000000E+00 -0.17708030972E+04  0.17708030972E+04  0.00000000000E+00 0. -1.
         25    2    1    2    0    0 -0.28550882116E+02  0.37301415515E+01 -0.91463439318E+03  0.92358502903E+03  0.12499666323E+03 0.  0.
          2    1    1    2  501    0  0.66933678013E+02  0.37276662386E+02 -0.84406395381E+03  0.84753384885E+03  0.00000000000E+00 0. -1.
          1    1    1    2  502    0 -0.38382795897E+02 -0.41006803938E+02  0.12790843026E+03  0.13969739984E+03  0.00000000000E+00 0. -1.
         22    1    3    3    0    0  0.37761765415E+02  0.34250275308E+02 -0.26476209223E+03  0.26962566229E+03  0.00000000000E+00 0.  1.
         22    1    3    3    0    0 -0.66312647531E+02 -0.30520133757E+02 -0.64987230096E+03  0.65395936673E+03  0.00000000000E+00 0.  1.
</event>
<event>
 7    1  0.6273950E-006  0.1693227E+03  0.7818608E-02  0.1231480E+00
          2   -1    0    0  502    0  0.00000000000E+00  0.00000000000E+00  0.94904712141E+03  0.94904712141E+03  0.00000000000E+00 0. -1.
          1   -1    0    0  501    0 -0.00000000000E+00 -0.00000000000E+00 -0.30650981428E+04  0.30650981428E+04  0.00000000000E+00 0. -1.
         25    2    1    2    0    0 -0.27086178488E+02 -0.10670595036E+03  0.23218159825E+03  0.28574969254E+03  0.12499908526E+03 0.  0.
          2    1    1    2  501    0  0.84725507154E+01 -0.95368501448E+02 -0.30226209584E+04  0.30241369667E+04  0.00000000000E+00 0. -1.
          1    1    1    2  502    0  0.18613627773E+02  0.20207445180E+03  0.67438833877E+03  0.70425860497E+03  0.00000000000E+00 0. -1.
         22    1    3    3    0    0  0.97292846239E+00 -0.25413527666E+02  0.18677753756E+03  0.18850104116E+03  0.00000000000E+00 0.  1.
         22    1    3    3    0    0 -0.28059106950E+02 -0.81292422690E+02  0.45404060686E+02  0.97248651386E+02  0.00000000000E+00 0.  1.
</event>
<event>
 7    1  0.6273950E-006  0.5419738E+02  0.7818608E-02  0.1436620E+00
          2   -1    0    0  502    0  0.00000000000E+00  0.00000000000E+00  0.64705228847E+03  0.64705228847E+03  0.00000000000E+00 0. -1.
          1   -1    0    0  501    0 -0.00000000000E+00 -0.00000000000E+00 -0.28260765804E+03  0.28260765804E+03  0.00000000000E+00 0. -1.
         25    2    1    2    0    0 -0.16091695269E+02  0.19586463774E+02 -0.13890153768E+03  0.18857884306E+03  0.12500308261E+03 0.  0.
          2    1    1    2  501    0  0.65157945054E+02 -0.15577613277E+02 -0.10835983534E+03  0.12739730670E+03  0.00000000000E+00 0. -1.
          1    1    1    2  502    0 -0.49066249785E+02 -0.40088504976E+01  0.61170600345E+03  0.61368379676E+03  0.00000000000E+00 0. -1.
         22    1    3    3    0    0  0.23659625431E+01 -0.50671299123E+02 -0.34326282053E+02  0.61249261001E+02  0.00000000000E+00 0. -1.
         22    1    3    3    0    0 -0.18457657812E+02  0.70257762897E+02 -0.10457525563E+03  0.12732958206E+03  0.00000000000E+00 0. -1.
</event>
<event>
 7    1  0.6273950E-006  0.9325117E+02  0.7818608E-02  0.1308175E+00
          2   -1    0    0  502    0  0.00000000000E+00  0.00000000000E+00  0.14035450542E+03  0.14035450542E+03  0.00000000000E+00 0. -1.
          1   -1    0    0  501    0 -0.00000000000E+00 -0.00000000000E+00 -0.49883612621E+03  0.49883612621E+03  0.00000000000E+00 0. -1.
         25    2    1    2    0    0 -0.48992748517E+02 -0.79485276208E+02 -0.19446887000E+03  0.24932170367E+03  0.12499988793E+03 0.  0.
          2    1    1    2  501    0  0.10144809837E+03  0.15501165093E+02 -0.25017975618E+03  0.27041063808E+03  0.00000000000E+00 0. -1.
          1    1    1    2  502    0 -0.52455349854E+02  0.63984111115E+02  0.86167005389E+02  0.11945828988E+03  0.00000000000E+00 0. -1.
         22    1    3    3    0    0 -0.23195106209E+02 -0.43032321741E+02  0.92012213661E+00  0.48894174409E+02  0.00000000000E+00 0. -1.
         22    1    3    3    0    0 -0.25797642308E+02 -0.36452954467E+02 -0.19538899213E+03  0.20042752926E+03  0.00000000000E+00 0. -1.
</event>
<event>
 7    1  0.8638959E-006  0.6629211E+02  0.7818608E-02  0.1379578E+00
          2   -1    0    0  502    0  0.00000000000E+00  0.00000000000E+00  0.13703736465E+04  0.13703736465E+04  0.00000000000E+00 0. -1.
          1   -1    0    0  501    0 -0.00000000000E+00 -0.00000000000E+00 -0.71738618429E+03  0.71738618429E+03  0.00000000000E+00 0. -1.
         25    2    1    2    0    0  0.15184294913E+02  0.17925886613E+02 -0.25194654084E+02  0.12966160406E+03  0.12500184298E+03 0.  0.
          2    1    1    2  501    0 -0.65230732971E+02  0.20179465252E+02 -0.63738313462E+03  0.64103004581E+03  0.00000000000E+00 0. -1.
          1    1    1    2  502    0  0.50046438058E+02 -0.38105351865E+02  0.13155652509E+04  0.13170681809E+04  0.00000000000E+00 0. -1.
         22    1    3    3    0    0  0.12899945299E+02  0.71338390682E+02 -0.23370171688E+02  0.76169150570E+02  0.00000000000E+00 0. -1.
         22    1    3    3    0    0  0.22843496145E+01 -0.53412504069E+02 -0.18244823956E+01  0.53492453487E+02  0.00000000000E+00 0. -1.
</event>
<event>
 7    1  0.6273950E-006  0.7557859E+02  0.7818608E-02  0.1368981E+00
          2   -1    0    0  502    0  0.00000000000E+00  0.00000000000E+00  0.10315762238E+04  0.10315762238E+04  0.00000000000E+00 0. -1.
          1   -1    0    0  501    0 -0.00000000000E+00 -0.00000000000E+00 -0.32552297643E+04  0.32552297643E+04  0.00000000000E+00 0. -1.
         25    2    1    2    0    0  0.47573473728E+02  0.10853581998E+03 -0.11232830787E+03  0.20563361458E+03  0.12499710027E+03 0.  0.
          2    1    1    2  501    0 -0.50157853493E+02 -0.33286045113E+02 -0.30945166486E+04  0.30951021081E+04  0.00000000000E+00 0. -1.
          1    1    1    2  502    0  0.25843797653E+01 -0.75249774864E+02  0.98319141607E+03  0.98607026538E+03  0.00000000000E+00 0. -1.
         22    1    3    3    0    0  0.80819804445E+02  0.86998318296E+02 -0.43966225777E+02  0.12662376233E+03  0.00000000000E+00 0. -1.
         22    1    3    3    0    0 -0.33246330718E+02  0.21537501680E+02 -0.68362082096E+02  0.79009852255E+02  0.00000000000E+00 0. -1.
</event>
<event>
 7    1  0.6273950E-006  0.6545124E+02  0.7818608E-02  0.1526435E+00
          2   -1    0    0  502    0  0.00000000000E+00  0.00000000000E+00  0.97456085065E+03  0.97456085065E+03  0.00000000000E+00 0. -1.
          1   -1    0    0  501    0 -0.00000000000E+00 -0.00000000000E+00 -0.64741409715E+03  0.64741409715E+03  0.00000000000E+00 0. -1.
         25    2    1    2    0    0  0.51214817997E+02  0.31148292796E+02  0.55018029976E+03  0.56737755765E+03  0.12500302776E+03 0.  0.
          2    1    1    2  501    0  0.14968651864E+02 -0.15616229551E+02 -0.63585151659E+03  0.63621936336E+03  0.00000000000E+00 0. -1.
          1    1    1    2  502    0 -0.66183469861E+02 -0.15532063245E+02  0.41281797033E+03  0.41837802679E+03  0.00000000000E+00 0. -1.
         22    1    3    3    0    0 -0.25254470729E+02 -0.44921575863E+01  0.33899062736E+03  0.33995972293E+03  0.00000000000E+00 0.  1.
         22    1    3    3    0    0  0.76469288726E+02  0.35640450382E+02  0.21118967240E+03  0.22741783472E+03  0.00000000000E+00 0.  1.
</event>
<event>
 7    1  0.6273950E-006  0.9375522E+02  0.7818608E-02  0.1339217E+00
          2   -1    0    0  502    0  0.00000000000E+00  0.00000000000E+00  0.67938401323E+03  0.67938401323E+03  0.00000000000E+00 0. -1.
          1   -1    0    0  501    0 -0.00000000000E+00 -0.00000000000E+00 -0.13308934470E+04  0.13308934470E+04  0.00000000000E+00 0. -1.
         25    2    1    2    0    0 -0.38915343944E+02  0.85497300226E+02 -0.97260247154E+02  0.18411592609E+03  0.12495969840E+03 0.  0.
          2    1    1    2  501    0 -0.45244181831E+02 -0.43059360095E+02 -0.11858866980E+04  0.11875303806E+04  0.00000000000E+00 0. -1.
          1    1    1    2  502    0  0.84159525775E+02 -0.42437940131E+02  0.63163751134E+03  0.63863115354E+03  0.00000000000E+00 0. -1.
         22    1    3    3    0    0 -0.74334053877E+02  0.68761459047E+02 -0.28861001595E+02  0.10529314901E+03  0.00000000000E+00 0.  1.
         22    1    3    3    0    0  0.35418709932E+02  0.16735841179E+02 -0.68399245559E+02  0.78822777078E+02  0.00000000000E+00 0.  1.
</event>
<event>
 7    1  0.6273950E-006  0.1413694E+03  0.7818608E-02  0.1274191E+00
          2   -1    0    0  502    0  0.00000000000E+00  0.00000000000E+00  0.41161324351E+03  0.41161324351E+03  0.00000000000E+00 0. -1.
          1   -1    0    0  501    0 -0.00000000000E+00 -0.00000000000E+00 -0.60872358230E+03  0.60872358230E+03  0.00000000000E+00 0. -1.
         25    2    1    2    0    0  0.58953024880E+02 -0.82090212589E+02 -0.98958795707E+02  0.18876533267E+03  0.12500098169E+03 0.  0.
          2    1    1    2  501    0 -0.31721587212E+02  0.15195774931E+03 -0.44781516498E+03  0.47395763383E+03  0.00000000000E+00 0. -1.
          1    1    1    2  502    0 -0.27231437668E+02 -0.69867536726E+02  0.34966362191E+03  0.35761385931E+03  0.00000000000E+00 0. -1.
         22    1    3    3    0    0 -0.24888946274E+02 -0.54353213519E+02 -0.52646887047E+01  0.60012068900E+02  0.00000000000E+00 0. -1.
         22    1    3    3    0    0  0.83841971154E+02 -0.27736999069E+02 -0.93694107003E+02  0.12875326377E+03  0.00000000000E+00 0. -1.
</event>
<event>
 7    1  0.6273950E-006  0.7128101E+02  0.7818608E-02  0.1365280E+00
          2   -1    0    0  502    0  0.00000000000E+00  0.00000000000E+00  0.22630768537E+04  0.22630768537E+04  0.00000000000E+00 0. -1.
          1   -1    0    0  501    0 -0.00000000000E+00 -0.00000000000E+00 -0.88333262392E+02  0.88333262392E+02  0.00000000000E+00 0. -1.
         25    2    1    2    0    0  0.26325709583E+02 -0.86840587904E+02  0.99360540605E+03  0.10055397082E+04  0.12499628422E+03 0.  0.
          2    1    1    2  501    0  0.34775369249E+02  0.62362341841E+02 -0.65858536260E+02  0.97137710415E+02  0.00000000000E+00 0. -1.
          1    1    1    2  502    0 -0.61101078833E+02  0.24478246063E+02  0.12469967215E+04  0.12487326975E+04  0.00000000000E+00 0. -1.
         22    1    3    3    0    0  0.56311747399E+02 -0.40919792413E+02  0.23864326267E+03  0.24858811138E+03  0.00000000000E+00 0.  1.
         22    1    3    3    0    0 -0.29986037816E+02 -0.45920795491E+02  0.75496214338E+03  0.75695159678E+03  0.00000000000E+00 0.  1.
</event>
<event>
 7    1  0.6273950E-006  0.2604090E+03  0.7818608E-02  0.1109254E+00
          2   -1    0    0  502    0  0.00000000000E+00  0.00000000000E+00  0.17766648638E+04  0.17766648638E+04  0.00000000000E+00 0. -1.
          1   -1    0    0  501    0 -0.00000000000E+00 -0.00000000000E+00 -0.97042391534E+03  0.97042391534E+03  0.00000000000E+00 0. -1.
         25    2    1    2    0    0 -0.22392086027E+03 -0.17961466661E+03 -0.12009827826E+03  0.33533774204E+03  0.12500329865E+03 0.  0.
          2    1    1    2  501    0  0.23812324801E+03 -0.84536537464E+02 -0.71028164406E+03  0.75388932961E+03  0.00000000000E+00 0. -1.
          1    1    1    2  502    0 -0.14202387740E+02  0.26415120407E+03  0.16366208708E+04  0.16578617075E+04  0.00000000000E+00 0. -1.
         22    1    3    3    0    0 -0.90761586108E+02 -0.49397511537E+01 -0.55046612515E+02  0.10626474582E+03  0.00000000000E+00 0. -1.
         22    1    3    3    0    0 -0.13315927416E+03 -0.17467491545E+03 -0.65051665747E+02  0.22907299622E+03  0.00000000000E+00 0. -1.
</event>
<event>
 7    1  0.6273950E-006  0.5995564E+02  0.7818608E-02  0.1463532E+00
          2   -1    0    0  502    0  0.00000000000E+00  0.00000000000E+00  0.51001395133E+03  0.51001395133E+03  0.00000000000E+00 0. -1.
          1   -1    0    0  501    0 -0.00000000000E+00 -0.00000000000E+00 -0.41220656800E+03  0.41220656800E+03  0.00000000000E+00 0. -1.
         25    2    1    2    0    0  0.19268325052E+02 -0.91311942928E+02  0.67583099905E+02  0.17000416005E+03  0.12499919908E+03 0.  0.
          2    1    1    2  501    0 -0.17875594860E+01  0.59272348111E+02 -0.35769843478E+03  0.36258044192E+03  0.00000000000E+00 0. -1.
          1    1    1    2  502    0 -0.17480765566E+02  0.32039594817E+02  0.38792271820E+03  0.38963591736E+03  0.00000000000E+00 0. -1.
         22    1    3    3    0    0  0.51184173940E+02 -0.66748590172E+01 -0.78661102401E+01  0.52213495335E+02  0.00000000000E+00 0.  1.
         22    1    3    3    0    0 -0.31915848888E+02 -0.84637083911E+02  0.75449210145E+02  0.11779066472E+03  0.00000000000E+00 0.  1.
</event>
<event>
 7    1  0.6273950E-006  0.6843803E+02  0.7818608E-02  0.1458154E+00
          2   -1    0    0  502    0  0.00000000000E+00  0.00000000000E+00  0.13609889178E+03  0.13609889178E+03  0.00000000000E+00 0. -1.
          1   -1    0    0  501    0 -0.00000000000E+00 -0.00000000000E+00 -0.12966539474E+04  0.12966539474E+04  0.00000000000E+00 0. -1.
         25    2    1    2    0    0  0.22707823677E+02  0.28366216740E+02 -0.11400901128E+03  0.17304277918E+03  0.12500184504E+03 0.  0.
          2    1    1    2  501    0 -0.43366522263E+02 -0.54415399670E+02 -0.11494574264E+04  0.11515615772E+04  0.00000000000E+00 0. -1.
          1    1    1    2  502    0  0.20658698586E+02  0.26049182930E+02  0.10291138210E+03  0.10814848276E+03  0.00000000000E+00 0. -1.
         22    1    3    3    0    0  0.72472838751E+02  0.29518353403E+02 -0.84527383910E+02  0.11518908010E+03  0.00000000000E+00 0.  1.
         22    1    3    3    0    0 -0.49765015074E+02 -0.11521366630E+01 -0.29481627369E+02  0.57853699074E+02  0.00000000000E+00 0.  1.
</event>
<event>
 7    1  0.6273950E-006  0.5019811E+02  0.7818608E-02  0.1538424E+00
          2   -1    0    0  502    0  0.00000000000E+00  0.00000000000E+00  0.10578629002E+04  0.10578629002E+04  0.00000000000E+00 0. -1.
          1   -1    0    0  501    0 -0.00000000000E+00 -0.00000000000E+00 -0.60253144215E+03  0.60253144215E+03  0.00000000000E+00 0. -1.
         25    2    1    2    0    0  0.72621377244E+01  0.75011067360E+02  0.48434495928E+03  0.50586101567E+03  0.12500371485E+03 0.  0.
          2    1    1    2  501    0 -0.10156069007E+02 -0.49105779265E+02 -0.59040817449E+03  0.59253382671E+03  0.00000000000E+00 0. -1.
          1    1    1    2  502    0  0.28939312826E+01 -0.25905288095E+02  0.56139467323E+03  0.56199949993E+03  0.00000000000E+00 0. -1.
         22    1    3    3    0    0  0.26949609430E+02 -0.24303905199E+02  0.64777262657E+02  0.74249949587E+02  0.00000000000E+00 0.  1.
         22    1    3    3    0    0 -0.19687471706E+02  0.99314972560E+02  0.41956769662E+03  0.43161106609E+03  0.00000000000E+00 0.  1.
</event>
<event>
 7    1  0.6273950E-006  0.1180424E+03  0.7818608E-02  0.1255447E+00
          2   -1    0    0  502    0  0.00000000000E+00  0.00000000000E+00  0.38264752931E+03  0.38264752931E+03  0.00000000000E+00 0. -1.
          1   -1    0    0  501    0 -0.00000000000E+00 -0.00000000000E+00 -0.45487732998E+03  0.45487732998E+03  0.00000000000E+00 0. -1.
         25    2    1    2    0    0 -0.43050738416E+02 -0.68058393400E+02 -0.25125820844E+02  0.15079147083E+03  0.12498579844E+03 0.  0.
          2    1    1    2  501    0 -0.71583561198E+02  0.96218206371E+02 -0.34556173587E+03  0.36578007432E+03  0.00000000000E+00 0. -1.
          1    1    1    2  502    0  0.11463429961E+03 -0.28159812970E+02  0.29845775604E+03  0.32095331414E+03  0.00000000000E+00 0. -1.
         22    1    3    3    0    0 -0.18363059452E+02 -0.37346618090E+01  0.47271072356E+02  0.50849817433E+02  0.00000000000E+00 0. -1.
         22    1    3    3    0    0 -0.24687678964E+02 -0.64323731591E+02 -0.72396893200E+02  0.99941653396E+02  0.00000000000E+00 0. -1.
</event>
<event>
 7    1  0.6273950E-006  0.8387066E+02  0.7818608E-02  0.1470234E+00
          2   -1    0    0  502    0  0.00000000000E+00  0.00000000000E+00  0.81699772927E+03  0.81699772927E+03  0.00000000000E+00 0. -1.
          1   -1    0    0  501    0 -0.00000000000E+00 -0.00000000000E+00 -0.19141163827E+03  0.19141163827E+03  0.00000000000E+00 0. -1.
         25    2    1    2    0    0  0.31735889533E+02  0.63030481128E+02  0.15249457825E+03  0.20942400153E+03  0.12499523106E+03 0.  0.
          2    1    1    2  501    0  0.24843732032E+02  0.97773163305E+00 -0.15910846858E+03  0.16103934847E+03  0.00000000000E+00 0. -1.
          1    1    1    2  502    0 -0.56579621565E+02 -0.64008212761E+02  0.63219998134E+03  0.63794601753E+03  0.00000000000E+00 0. -1.
         22    1    3    3    0    0  0.33437609348E+02  0.10973328132E+02 -0.11763219085E+02  0.37106077298E+02  0.00000000000E+00 0. -1.
         22    1    3    3    0    0 -0.17017198147E+01  0.52057152996E+02  0.16425779733E+03  0.17231792423E+03  0.00000000000E+00 0. -1.
</event>
<event>
 7    1  0.6273950E-006  0.3649005E+02  0.7818608E-02  0.1568989E+00
          2   -1    0    0  502    0  0.00000000000E+00  0.00000000000E+00  0.22521731061E+04  0.22521731061E+04  0.00000000000E+00 0. -1.
          1   -1    0    0  501    0 -0.00000000000E+00 -0.00000000000E+00 -0.17949470635E+02  0.17949470635E+02  0.00000000000E+00 0. -1.
         25    2    1    2    0    0 -0.15802028967E+01  0.40408375679E+02  0.36407990251E+03  0.38705993916E+03  0.12500354883E+03 0.  0.
          2    1    1    2  501    0  0.26281439482E+02 -0.13387619039E+02  0.28367472322E+02  0.40922559680E+02  0.00000000000E+00 0. -1.
          1    1    1    2  502    0 -0.24701236586E+02 -0.27020756641E+02  0.18417762607E+04  0.18421400779E+04  0.00000000000E+00 0. -1.
         22    1    3    3    0    0 -0.47139128978E+02 -0.22177206578E+02  0.17943072488E+03  0.18684033559E+03  0.00000000000E+00 0. -1.
         22    1    3    3    0    0  0.45558926081E+02  0.62585582258E+02  0.18464917763E+03  0.20021960357E+03  0.00000000000E+00 0. -1.
</event>
<event>
 7    1  0.6273950E-006  0.5361041E+02  0.7818608E-02  0.1504886E+00
          2   -1    0    0  502    0  0.00000000000E+00  0.00000000000E+00  0.69117969638E+03  0.69117969638E+03  0.00000000000E+00 0. -1.
          1   -1    0    0  501    0 -0.00000000000E+00 -0.00000000000E+00 -0.76359901749E+03  0.76359901749E+03  0.00000000000E+00 0. -1.
         25    2    1    2    0    0  0.19796382441E+02  0.62941385596E+02  0.32875192747E+03  0.35784965514E+03  0.12500012435E+03 0.  0.
          2    1    1    2  501    0  0.90100718134E+01 -0.52833292554E+02 -0.74741895100E+03  0.74933812562E+03  0.00000000000E+00 0. -1.
          1    1    1    2  502    0 -0.28806454254E+02 -0.10108093042E+02  0.34624770241E+03  0.34759093311E+03  0.00000000000E+00 0. -1.
         22    1    3    3    0    0  0.64664813285E+02  0.83905819281E+00  0.15569000056E+03  0.16858712398E+03  0.00000000000E+00 0. -1.
         22    1    3    3    0    0 -0.44868430845E+02  0.62102327403E+02  0.17306192691E+03  0.18926253116E+03  0.00000000000E+00 0. -1.
</event>
<event>
 7    1  0.6273950E-006  0.1113571E+03  0.7818608E-02  0.1309436E+00
          2   -1    0    0  502    0  0.00000000000E+00  0.00000000000E+00  0.10093604631E+04  0.10093604631E+04  0.00000000000E+00 0. -1.
          1   -1    0    0  501    0 -0.00000000000E+00 -0.00000000000E+00 -0.25847204514E+03  0.25847204514E+03  0.00000000000E+00 0. -1.
         25    2    1    2    0    0  0.78889122523E+02 -0.75438228240E+02  0.22020082780E+03  0.27573005114E+03  0.12499694637E+03 0.  0.
          2    1    1    2  501    0  0.34451400590E+02  0.59200381716E+02 -0.22119218255E+03  0.23155467134E+03  0.00000000000E+00 0. -1.
          1    1    1    2  502    0 -0.11334052311E+03  0.16237846524E+02  0.75187977268E+03  0.76054778575E+03  0.00000000000E+00 0. -1.
         22    1    3    3    0    0 -0.39775206702E+01 -0.20872475261E+02  0.15624893449E+03  0.15768706485E+03  0.00000000000E+00 0.  1.
         22    1    3    3    0    0  0.82866643193E+02 -0.54565752979E+02  0.63951893320E+02  0.11804298629E+03  0.00000000000E+00 0.  1.
</event>
<event>
 7    1  0.6273950E-006  0.7236903E+02  0.7818608E-02  0.1389181E+00
          2   -1    0    0  502    0  0.00000000000E+00  0.00000000000E+00  0.93986155596E+03  0.93986155596E+03  0.00000000000E+00 0. -1.
          1   -1    0    0  501    0 -0.00000000000E+00 -0.00000000000E+00 -0.76077014457E+03  0.76077014457E+03  0.00000000000E+00 0. -1.
         25    2    1    2    0    0  0.21694674412E+02 -0.17941300360E+02  0.47766852993E+02  0.13674579684E+03  0.12500076620E+03 0.  0.
          2    1    1    2  501    0 -0.18059002310E+02  0.71123821088E+02 -0.71355907089E+03  0.71732229377E+03  0.00000000000E+00 0. -1.
          1    1    1    2  502    0 -0.36356721026E+01 -0.53182520728E+02  0.84488362928E+03  0.84656360993E+03  0.00000000000E+00 0. -1.
         22    1    3    3    0    0  0.35221946695E+02  0.47356946520E+02  0.35704826269E+02  0.68978986159E+02  0.00000000000E+00 0. -1.
         22    1    3    3    0    0 -0.13527272282E+02 -0.65298246880E+02  0.12062026724E+02  0.67766810680E+02  0.00000000000E+00 0. -1.
</event>
<event>
 7    1  0.6273950E-006  0.7162813E+02  0.7818608E-02  0.1358135E+00
          2   -1    0    0  502    0  0.00000000000E+00  0.00000000000E+00  0.30440477424E+03  0.30440477424E+03  0.00000000000E+00 0. -1.
          1   -1    0    0  501    0 -0.00000000000E+00 -0.00000000000E+00 -0.58917401713E+03  0.58917401713E+03  0.00000000000E+00 0. -1.
         25    2    1    2    0    0 -0.55983595448E+02  0.36358400256E+02  0.38492822596E+02  0.14684165648E+03  0.12499871383E+03 0.  0.
          2    1    1    2  501    0 -0.34011142632E+01 -0.72552190922E+02 -0.52672900624E+03  0.53171311249E+03  0.00000000000E+00 0. -1.
          1    1    1    2  502    0  0.59384709711E+02  0.36193790666E+02  0.20346694075E+03  0.21502402240E+03  0.00000000000E+00 0. -1.
         22    1    3    3    0    0  0.27241937339E+02 -0.13074701588E+02 -0.17595398326E+02  0.34966684342E+02  0.00000000000E+00 0.  1.
         22    1    3    3    0    0 -0.83225532787E+02  0.49433101845E+02  0.56088220922E+02  0.11187497214E+03  0.00000000000E+00 0.  1.
</event>
<event>
 7    1  0.6273950E-006  0.7807504E+02  0.7818608E-02  0.1340050E+00
          2   -1    0    0  502    0  0.00000000000E+00  0.00000000000E+00  0.42576205963E+03  0.42576205963E+03  0.00000000000E+00 0. -1.
          1   -1    0    0  501    0 -0.00000000000E+00 -0.00000000000E+00 -0.18497406273E+04  0.18497406273E+04  0.00000000000E+00 0. -1.
         25    2    1    2    0    0  0.40231775116E+02 -0.12824968947E+03 -0.21345808774E+03  0.28152409095E+03  0.12499951994E+03 0.  0.
          2    1    1    2  501    0 -0.53353924636E+02  0.51943391593E+02 -0.15975479365E+04  0.15992823911E+04  0.00000000000E+00 0. -1.
          1    1    1    2  502    0  0.13122149520E+02  0.76306297874E+02  0.38702745661E+03  0.39469620479E+03  0.00000000000E+00 0. -1.
         22    1    3    3    0    0 -0.69720049588E+01 -0.34149973944E+02 -0.15942740133E+03  0.16319290998E+03  0.00000000000E+00 0.  1.
         22    1    3    3    0    0  0.47203780075E+02 -0.94099715522E+02 -0.54030686410E+02  0.11833118097E+03  0.00000000000E+00 0.  1.
</event>
<event>
 7    1  0.6273950E-006  0.1308752E+03  0.7818608E-02  0.1360832E+00
          2   -1    0    0  502    0  0.00000000000E+00  0.00000000000E+00  0.10625633374E+03  0.10625633374E+03  0.00000000000E+00 0. -1.
          1   -1    0    0  501    0 -0.00000000000E+00 -0.00000000000E+00 -0.32826987247E+04  0.32826987247E+04  0.00000000000E+00 0. -1.
         25    2    1    2    0    0  0.11329957064E+03  0.10157947420E+03 -0.13471380237E+04  0.13614553160E+04  0.12499816096E+03 0.  0.
          2    1    1    2  501    0 -0.36988031239E+02  0.40444289288E+01 -0.18853028219E+04  0.18856699611E+04  0.00000000000E+00 0. -1.
          1    1    1    2  502    0 -0.76311539404E+02 -0.10562390313E+03  0.55998454646E+02  0.14182978136E+03  0.00000000000E+00 0. -1.
         22    1    3    3    0    0 -0.46261317743E+01 -0.13589448014E+02 -0.38734173314E+03  0.38760765270E+03  0.00000000000E+00 0. -1.
         22    1    3    3    0    0  0.11792570242E+03  0.11516892222E+03 -0.95979629057E+03  0.97384766330E+03  0.00000000000E+00 0. -1.
</event>
<event>
 7    1  0.6273950E-006  0.3687940E+02  0.7818608E-02  0.1612159E+00
          2   -1    0    0  502    0  0.00000000000E+00  0.00000000000E+00  0.78849702284E+03  0.78849702284E+03  0.00000000000E+00 0. -1.
          1   -1    0    0  501    0 -0.00000000000E+00 -0.00000000000E+00 -0.42758380773E+03  0.42758380773E+03  0.00000000000E+00 0. -1.
         25    2    1    2    0    0 -0.26609584245E+02 -0.48192145352E+02  0.92512281218E+02  0.16496759745E+03  0.12500093274E+03 0.  0.
          2    1    1    2  501    0  0.26242523424E+02  0.25759714705E+02 -0.39030093287E+03  0.39202940086E+03  0.00000000000E+00 0. -1.
          1    1    1    2  502    0  0.36706082162E+00  0.22432430646E+02  0.65870186676E+03  0.65908383226E+03  0.00000000000E+00 0. -1.
         22    1    3    3    0    0 -0.72470496419E+02 -0.94386356066E+01  0.32192798483E+02  0.79858856538E+02  0.00000000000E+00 0. -1.
         22    1    3    3    0    0  0.45860912174E+02 -0.38753509745E+02  0.60319482734E+02  0.85108740916E+02  0.00000000000E+00 0. -1.
</event>
<event>
 7    1  0.6273950E-006  0.5406264E+02  0.7818608E-02  0.1447303E+00
          2   -1    0    0  502    0  0.00000000000E+00  0.00000000000E+00  0.11214575715E+04  0.11214575715E+04  0.00000000000E+00 0. -1.
          1   -1    0    0  501    0 -0.00000000000E+00 -0.00000000000E+00 -0.14000272781E+03  0.14000272781E+03  0.00000000000E+00 0. -1.
         25    2    1    2    0    0  0.97643104057E+01 -0.77582018882E+02  0.46354689493E+03  0.48643049182E+03  0.12499835263E+03 0.  0.
          2    1    1    2  501    0  0.25267417516E+02  0.37930491978E+02 -0.12339768178E+03  0.13154524878E+03  0.00000000000E+00 0. -1.
          1    1    1    2  502    0 -0.35031727921E+02  0.39651526905E+02  0.64130563057E+03  0.64348455875E+03  0.00000000000E+00 0. -1.
         22    1    3    3    0    0  0.26821461596E+02 -0.12371734794E+02  0.36974207440E+03  0.37092000782E+03  0.00000000000E+00 0. -1.
         22    1    3    3    0    0 -0.17057151190E+02 -0.65210284089E+02  0.93804820532E+02  0.11551048399E+03  0.00000000000E+00 0. -1.
</event>
<event>
 7    1  0.6273950E-006  0.1241629E+03  0.7818608E-02  0.1253380E+00
          2   -1    0    0  502    0  0.00000000000E+00  0.00000000000E+00  0.50245887693E+03  0.50245887693E+03  0.00000000000E+00 0. -1.
          1   -1    0    0  501    0 -0.00000000000E+00 -0.00000000000E+00 -0.82351818277E+03  0.82351818277E+03  0.00000000000E+00 0. -1.
         25    2    1    2    0    0 -0.10809661337E+03 -0.14482060945E+03  0.18076781025E+03  0.28453411670E+03  0.12499910239E+03 0.  0.
          2    1    1    2  501    0 -0.34619186415E+00  0.10462319930E+03 -0.75546838851E+03  0.76267858218E+03  0.00000000000E+00 0. -1.
          1    1    1    2  502    0  0.10844280523E+03  0.40197410156E+02  0.25364127241E+03  0.27876436082E+03  0.00000000000E+00 0. -1.
         22    1    3    3    0    0 -0.90290576894E+02 -0.96316638435E+02  0.19068016921E+03  0.23192285365E+03  0.00000000000E+00 0. -1.
         22    1    3    3    0    0 -0.17806036471E+02 -0.48503971017E+02 -0.99123589597E+01  0.52611263047E+02  0.00000000000E+00 0. -1.
</event>
<event>
 7    1  0.6273950E-006  0.1900590E+03  0.7818608E-02  0.1303001E+00
          2   -1    0    0  502    0  0.00000000000E+00  0.00000000000E+00  0.59991924779E+03  0.59991924779E+03  0.00000000000E+00 0. -1.
          1   -1    0    0  501    0 -0.00000000000E+00 -0.00000000000E+00 -0.40447031197E+03  0.40447031197E+03  0.00000000000E+00 0. -1.
         25    2    1    2    0    0  0.11546900914E+03  0.10029511805E+03 -0.66839395346E+02  0.20853044905E+03  0.12500096253E+03 0.  0.
          2    1    1    2  501    0  0.36737210049E+02  0.21487884714E+02 -0.24694819699E+03  0.25058883413E+03  0.00000000000E+00 0. -1.
          1    1    1    2  502    0 -0.15220621919E+03 -0.12178300277E+03  0.50923652815E+03  0.54527027659E+03  0.00000000000E+00 0. -1.
         22    1    3    3    0    0  0.12974520719E+03  0.67877483289E+02 -0.84383141764E+02  0.16900202999E+03  0.00000000000E+00 0.  1.
         22    1    3    3    0    0 -0.14276198057E+02  0.32417634764E+02  0.17543746419E+02  0.39528419056E+02  0.00000000000E+00 0.  1.
</event>
<event>
 7    1  0.6273950E-006  0.1119276E+03  0.7818608E-02  0.1344213E+00
          2   -1    0    0  502    0  0.00000000000E+00  0.00000000000E+00  0.41145643544E+03  0.41145643544E+03  0.00000000000E+00 0. -1.
          1   -1    0    0  501    0 -0.00000000000E+00 -0.00000000000E+00 -0.15185046698E+04  0.15185046698E+04  0.00000000000E+00 0. -1.
         25    2    1    2    0    0 -0.14302635232E+03  0.52207246235E+02 -0.69718041810E+03  0.72447738820E+03  0.12499926645E+03 0.  0.
          2    1    1    2  501    0  0.94833583833E+02 -0.38485819642E+02 -0.80283627190E+03  0.80933345811E+03  0.00000000000E+00 0. -1.
          1    1    1    2  502    0  0.48192768492E+02 -0.13721426593E+02  0.39296845566E+03  0.39615025890E+03  0.00000000000E+00 0. -1.
         22    1    3    3    0    0 -0.25739664781E+02 -0.37477563806E+02 -0.23252562933E+03  0.23692882144E+03  0.00000000000E+00 0.  1.
         22    1    3    3    0    0 -0.11728668754E+03  0.89684810040E+02 -0.46465478877E+03  0.48754856677E+03  0.00000000000E+00 0.  1.
</event>
<event>
 7    1  0.6273950E-006  0.9006590E+02  0.7818608E-02  0.1386875E+00
          2   -1    0    0  502    0  0.00000000000E+00  0.00000000000E+00  0.17608863396E+04  0.17608863396E+04  0.00000000000E+00 0. -1.
          1   -1    0    0  501    0 -0.00000000000E+00 -0.00000000000E+00 -0.46235365907E+02  0.46235365907E+02  0.00000000000E+00 0. -1.
         25    2    1    2    0    0  0.12144530116E+03  0.44749656403E+02  0.52317520256E+03  0.55325169632E+03  0.12499461580E+03 0.  0.
          2    1    1    2  501    0 -0.42142536572E+02 -0.11318714578E+02 -0.13614492997E+02  0.45710623579E+02  0.00000000000E+00 0. -1.
          1    1    1    2  502    0 -0.79302764592E+02 -0.33430941825E+02  0.12050902641E+04  0.12081593856E+04  0.00000000000E+00 0. -1.
         22    1    3    3    0    0  0.35119303871E+02  0.69991670733E+02  0.34361835138E+03  0.35242839114E+03  0.00000000000E+00 0. -1.
         22    1    3    3    0    0  0.86325997293E+02 -0.25242014330E+02  0.17955685118E+03  0.20082330518E+03  0.00000000000E+00 0. -1.
</event>
<event>
 7    1  0.6273950E-006  0.8424454E+02  0.7818608E-02  0.1441898E+00
          2   -1    0    0  502    0  0.00000000000E+00  0.00000000000E+00  0.36940453437E+03  0.36940453437E+03  0.00000000000E+00 0. -1.
          1   -1    0    0  501    0 -0.00000000000E+00 -0.00000000000E+00 -0.79246315844E+03  0.79246315844E+03  0.00000000000E+00 0. -1.
         25    2    1    2    0    0  0.29265341847E+02 -0.97741957041E+02 -0.18220963212E+03  0.24338351405E+03  0.12500093789E+03 0.  0.
          2    1    1    2  501    0  0.15014961430E+02  0.26484958825E+02 -0.57406373562E+03  0.57487048512E+03  0.00000000000E+00 0. -1.
          1    1    1    2  502    0 -0.44280303277E+02  0.71256998216E+02  0.33321474367E+03  0.34361369364E+03  0.00000000000E+00 0. -1.
         22    1    3    3    0    0  0.23625035616E+02  0.17892618288E+02 -0.91880257842E+02  0.96541544831E+02  0.00000000000E+00 0. -1.
         22    1    3    3    0    0  0.56403062305E+01 -0.11563457533E+03 -0.90329374282E+02  0.14684196922E+03  0.00000000000E+00 0. -1.
</event>
<event>
 7    1  0.6273950E-006  0.6274589E+02  0.7818608E-02  0.1399361E+00
          2   -1    0    0  502    0  0.00000000000E+00  0.00000000000E+00  0.11704113581E+04  0.11704113581E+04  0.00000000000E+00 0. -1.
          1   -1    0    0  501    0 -0.00000000000E+00 -0.00000000000E+00 -0.16098658321E+03  0.16098658321E+03  0.00000000000E+00 0. -1.
         25    2    1    2    0    0  0.28204762782E+02  0.93036869159E+02  0.92724106419E+01  0.15864101140E+03  0.12501849956E+03 0.  0.
          2    1    1    2  501    0  0.19880467233E+02 -0.53081498068E+02 -0.75989101076E+02  0.94800959367E+02  0.00000000000E+00 0. -1.
          1    1    1    2  502    0 -0.48085230016E+02 -0.39955371091E+02  0.10761414653E+04  0.10779559705E+04  0.00000000000E+00 0. -1.
         22    1    3    3    0    0 -0.22278517072E+02  0.10044408787E+03  0.23774588766E+02  0.10559629815E+03  0.00000000000E+00 0.  1.
         22    1    3    3    0    0  0.50483279854E+02 -0.74072187125E+01 -0.14502178124E+02  0.53044713254E+02  0.00000000000E+00 0.  1.
</event>
<event>
 7    1  0.6273950E-006  0.6102217E+02  0.7818608E-02  0.1473894E+00
          2   -1    0    0  502    0  0.00000000000E+00  0.00000000000E+00  0.77037820560E+03  0.77037820560E+03  0.00000000000E+00 0. -1.
          1   -1    0    0  501    0 -0.00000000000E+00 -0.00000000000E+00 -0.84124372309E+03  0.84124372309E+03  0.00000000000E+00 0. -1.
         25    2    1    2    0    0  0.21425969790E+01 -0.92971765805E+02 -0.10956955885E+03  0.19049392910E+03  0.12503643006E+03 0.  0.
          2    1    1    2  501    0 -0.49105405734E+01  0.59796418404E+02 -0.68952903593E+03  0.69213439190E+03  0.00000000000E+00 0. -1.
          1    1    1    2  502    0  0.27679435944E+01  0.33175347401E+02  0.72823307728E+03  0.72899360768E+03  0.00000000000E+00 0. -1.
         22    1    3    3    0    0 -0.48914864950E+01  0.29812853351E+02 -0.36721342343E+02  0.47551969975E+02  0.00000000000E+00 0.  1.
         22    1    3    3    0    0  0.70340834739E+01 -0.12278461916E+03 -0.72848216503E+02  0.14294195913E+03  0.00000000000E+00 0.  1.
</event>
<event>
 7    1  0.6273950E-006  0.7030156E+02  0.7818608E-02  0.1425108E+00
          2   -1    0    0  502    0  0.00000000000E+00  0.00000000000E+00  0.51530154162E+03  0.51530154162E+03  0.00000000000E+00 0. -1.
          1   -1    0    0  501    0 -0.00000000000E+00 -0.00000000000E+00 -0.25938410063E+03  0.25938410063E+03  0.00000000000E+00 0. -1.
         25    2    1    2    0    0 -0.90053064555E+02  0.36005434658E+02  0.24449275490E+03  0.29120595194E+03  0.12497301105E+03 0.  0.
          2    1    1    2  501    0  0.69914965547E+02  0.17657329097E+00 -0.22904124395E+03  0.23947447675E+03  0.00000000000E+00 0. -1.
          1    1    1    2  502    0  0.20138099008E+02 -0.36182007949E+02  0.24046593005E+03  0.24400521356E+03  0.00000000000E+00 0. -1.
         22    1    3    3    0    0 -0.59439786009E+02 -0.40198613358E+02  0.80767929499E+02  0.10803922951E+03  0.00000000000E+00 0. -1.
         22    1    3    3    0    0 -0.30613278546E+02  0.76204048015E+02  0.16372482540E+03  0.18316672244E+03  0.00000000000E+00 0. -1.
</event>
<event>
 7    1  0.6273950E-006  0.1213174E+03  0.7818608E-02  0.1307217E+00
          2   -1    0    0  502    0  0.00000000000E+00  0.00000000000E+00  0.17016592086E+03  0.17016592086E+03  0.00000000000E+00 0. -1.
          1   -1    0    0  501    0 -0.00000000000E+00 -0.00000000000E+00 -0.80851738908E+03  0.80851738908E+03  0.00000000000E+00 0. -1.
         25    2    1    2    0    0 -0.10158676162E+03  0.76720382614E+02 -0.14679831572E+03  0.23105213688E+03  0.12501782758E+03 0.  0.
          2    1    1    2  501    0  0.12155920633E+03 -0.15754360449E+02 -0.60500470211E+03  0.61729695454E+03  0.00000000000E+00 0. -1.
          1    1    1    2  502    0 -0.19972444705E+02 -0.60966022165E+02  0.11345154962E+03  0.13033421852E+03  0.00000000000E+00 0. -1.
         22    1    3    3    0    0 -0.12146507006E+03  0.29333728756E+02 -0.87285116080E+02  0.15242349680E+03  0.00000000000E+00 0.  1.
         22    1    3    3    0    0  0.19878308435E+02  0.47386653858E+02 -0.59513199637E+02  0.78628640082E+02  0.00000000000E+00 0.  1.
</event>
<event>
 7    1  0.6273950E-006  0.1221010E+03  0.7818608E-02  0.1415573E+00
          2   -1    0    0  502    0  0.00000000000E+00  0.00000000000E+00  0.36564917010E+03  0.36564917010E+03  0.00000000000E+00 0. -1.
          1   -1    0    0  501    0 -0.00000000000E+00 -0.00000000000E+00 -0.23585393960E+04  0.23585393960E+04  0.00000000000E+00 0. -1.
         25    2    1    2    0    0 -0.11453400377E+03  0.61736507414E+02 -0.21855300572E+04  0.21929652204E+04  0.12500157155E+03 0.  0.
          2    1    1    2  501    0 -0.20607466128E+01 -0.25571930696E+02 -0.15793364384E+03  0.16000376925E+03  0.00000000000E+00 0. -1.
          1    1    1    2  502    0  0.11659475038E+03 -0.36164576718E+02  0.35057347513E+03  0.37121957639E+03  0.00000000000E+00 0. -1.
         22    1    3    3    0    0 -0.13191042696E+03  0.26659588582E+02 -0.13979025849E+04  0.14043655975E+04  0.00000000000E+00 0.  1.
         22    1    3    3    0    0  0.17376423190E+02  0.35076918832E+02 -0.78762747226E+03  0.78859962299E+03  0.00000000000E+00 0.  1.
</event>
<event>
 7    1  0.6273950E-006  0.4665741E+02  0.7818608E-02  0.1501628E+00
          2   -1    0    0  502    0  0.00000000000E+00  0.00000000000E+00  0.31493774775E+04  0.31493774775E+04  0.00000000000E+00 0. -1.
          1   -1    0    0  501    0 -0.00000000000E+00 -0.00000000000E+00 -0.11506946438E+03  0.11506946438E+03  0.00000000000E+00 0. -1.
         25    2    1    2    0    0  0.16728984404E+02 -0.84413856621E+01  0.96502962790E+03  0.97327247575E+03  0.12500405355E+03 0.  0.
          2    1    1    2  501    0  0.31120350304E+02  0.17834632984E+02 -0.10776887801E+03  0.11358116659E+03  0.00000000000E+00 0. -1.
          1    1    1    2  502    0 -0.47849334708E+02 -0.93932473219E+01  0.21770472632E+04  0.21775932995E+04  0.00000000000E+00 0. -1.
         22    1    3    3    0    0 -0.36043454765E+02  0.37343881519E+02  0.28721617321E+03  0.29186782329E+03  0.00000000000E+00 0. -1.
         22    1    3    3    0    0  0.52772439169E+02 -0.45785267181E+02  0.67781345469E+03  0.68140465245E+03  0.00000000000E+00 0. -1.
</event>
<event>
 7    1  0.6273950E-006  0.5123801E+02  0.7818608E-02  0.1471607E+00
          2   -1    0    0  502    0  0.00000000000E+00  0.00000000000E+00  0.13338966218E+04  0.13338966218E+04  0.00000000000E+00 0. -1.
          1   -1    0    0  501    0 -0.00000000000E+00 -0.00000000000E+00 -0.38569156131E+02  0.38569156131E+02  0.00000000000E+00 0. -1.
         25    2    1    2    0    0  0.84332905243E+02  0.15542687910E+02  0.71835121827E+03  0.73417108759E+03  0.12500039605E+03 0.  0.
          2    1    1    2  501    0 -0.40268281619E+02  0.15992444160E+01 -0.16055904009E+02  0.43380688570E+02  0.00000000000E+00 0. -1.
          1    1    1    2  502    0 -0.44064623624E+02 -0.17141932326E+02  0.59303215142E+03  0.59491400178E+03  0.00000000000E+00 0. -1.
         22    1    3    3    0    0  0.73695719949E+02  0.41105230330E+02  0.22925719829E+03  0.24429400743E+03  0.00000000000E+00 0. -1.
         22    1    3    3    0    0  0.10637185294E+02 -0.25562542420E+02  0.48909401998E+03  0.48987708016E+03  0.00000000000E+00 0. -1.
</event>
<event>
 7    1  0.6273950E-006  0.7832638E+02  0.7818608E-02  0.1451588E+00
          2   -1    0    0  502    0  0.00000000000E+00  0.00000000000E+00  0.43653857683E+04  0.43653857683E+04  0.00000000000E+00 0. -1.
          1   -1    0    0  501    0 -0.00000000000E+00 -0.00000000000E+00 -0.81663374324E+01  0.81663374324E+01  0.00000000000E+00 0. -1.
         25    2    1    2    0    0 -0.70936787134E+02 -0.50420934502E+02  0.21100329146E+04  0.21155230900E+04  0.12499898109E+03 0.  0.
          2    1    1    2  501    0  0.43795689468E+02  0.64289495417E+02  0.27995858885E+03  0.29056498948E+03  0.00000000000E+00 0. -1.
          1    1    1    2  502    0  0.27141097666E+02 -0.13868560915E+02  0.19672279275E+04  0.19674640263E+04  0.00000000000E+00 0. -1.
         22    1    3    3    0    0 -0.31701229573E+02 -0.82727092251E+02  0.88184019451E+03  0.88627922711E+03  0.00000000000E+00 0.  1.
         22    1    3    3    0    0 -0.39235557561E+02  0.32306157749E+02  0.12281927201E+04  0.12292438629E+04  0.00000000000E+00 0.  1.
</event>
<event>
 7    1  0.6273950E-006  0.7160234E+02  0.7818608E-02  0.1395275E+00
          2   -1    0    0  502    0  0.00000000000E+00  0.00000000000E+00  0.94002560660E+03  0.94002560660E+03  0.00000000000E+00 0. -1.
          1   -1    0    0  501    0 -0.00000000000E+00 -0.00000000000E+00 -0.21673713983E+04  0.21673713983E+04  0.00000000000E+00 0. -1.
         25    2    1    2    0    0 -0.42414300240E+02 -0.13424914860E+02  0.28565020561E+03  0.31496068983E+03  0.12499997987E+03 0.  0.
          2    1    1    2  501    0 -0.29556548238E+02  0.41943370130E+02 -0.21500668636E+04  0.21506790448E+04  0.00000000000E+00 0. -1.
          1    1    1    2  502    0  0.71970848478E+02 -0.28518455270E+02  0.63707086626E+03  0.64175727028E+03  0.00000000000E+00 0. -1.
         22    1    3    3    0    0  0.37906887151E+02  0.21949975406E+02  0.11508928917E+03  0.12314332299E+03  0.00000000000E+00 0. -1.
         22    1    3    3    0    0 -0.80321187390E+02 -0.35374890267E+02  0.17056091644E+03  0.19181736684E+03  0.00000000000E+00 0. -1.
</event>
<event>
 7    1  0.6273950E-006  0.6342385E+02  0.7818608E-02  0.1429652E+00
          2   -1    0    0  502    0  0.00000000000E+00  0.00000000000E+00  0.33315264105E+03  0.33315264105E+03  0.00000000000E+00 0. -1.
          1   -1    0    0  501    0 -0.00000000000E+00 -0.00000000000E+00 -0.38925962106E+03  0.38925962106E+03  0.00000000000E+00 0. -1.
         25    2    1    2    0    0 -0.61773162237E+02  0.79833892402E+02  0.73798823659E+02  0.17677577278E+03  0.12495612638E+03 0.  0.
          2    1    1    2  501    0  0.36702170901E+02 -0.24878397051E+02 -0.33187713960E+03  0.33482595446E+03  0.00000000000E+00 0. -1.
          1    1    1    2  502    0  0.25070991337E+02 -0.54955495351E+02  0.20197133593E+03  0.21081053487E+03  0.00000000000E+00 0. -1.
         22    1    3    3    0    0 -0.22228286269E+02  0.10239029237E+03  0.78624606410E+02  0.13099502820E+03  0.00000000000E+00 0.  1.
         22    1    3    3    0    0 -0.39544875969E+02 -0.22556399965E+02 -0.48257827504E+01  0.45780744576E+02  0.00000000000E+00 0.  1.
</event>
<event>
 7    1  0.6273950E-006  0.1705127E+03  0.7818608E-02  0.1263081E+00
          2   -1    0    0  502    0  0.00000000000E+00  0.00000000000E+00  0.75385668736E+03  0.75385668736E+03  0.00000000000E+00 0. -1.
          1   -1    0    0  501    0 -0.00000000000E+00 -0.00000000000E+00 -0.12154751939E+03  0.12154751939E+03  0.00000000000E+00 0. -1.
         25    2    1    2    0    0 -0.16946865242E+01  0.21152896689E+03  0.22504174303E+03  0.33319166452E+03  0.12500209359E+03 0.  0.
          2    1    1    2  501    0  0.41407101144E+02 -0.55491412599E+02 -0.30586456963E+02  0.75692643282E+02  0.00000000000E+00 0. -1.
          1    1    1    2  502    0 -0.39712414620E+02 -0.15603755429E+03  0.43785388190E+03  0.46651989895E+03  0.00000000000E+00 0. -1.
         22    1    3    3    0    0 -0.56871614528E+02  0.15879333690E+03  0.16644236737E+03  0.23696574866E+03  0.00000000000E+00 0. -1.
         22    1    3    3    0    0  0.55176928004E+02  0.52735629996E+02  0.58599375662E+02  0.96225915859E+02  0.00000000000E+00 0. -1.
</event>
<event>
 7    1  0.6273950E-006  0.3876115E+02  0.7818608E-02  0.1595837E+00
          2   -1    0    0  502    0  0.00000000000E+00  0.00000000000E+00  0.46408885991E+03  0.46408885991E+03  0.00000000000E+00 0. -1.
          1   -1    0    0  501    0 -0.00000000000E+00 -0.00000000000E+00 -0.34660798243E+03  0.34660798243E+03  0.00000000000E+00 0. -1.
         25    2    1    2    0    0  0.56526843495E+02  0.20725122209E+02  0.68668888279E+02  0.15480761651E+03  0.12500066874E+03 0.  0.
          2    1    1    2  501    0 -0.33004335789E+02 -0.19896809284E+02 -0.30191937240E+03  0.30436898106E+03  0.00000000000E+00 0. -1.
          1    1    1    2  502    0 -0.23522507706E+02 -0.82831292446E+00  0.35073136160E+03  0.35152024477E+03  0.00000000000E+00 0. -1.
         22    1    3    3    0    0 -0.19135112594E+02  0.29836521242E+02 -0.17703978534E+02  0.39620719198E+02  0.00000000000E+00 0.  1.
         22    1    3    3    0    0  0.75661956088E+02 -0.91113990335E+01  0.86372866812E+02  0.11518689731E+03  0.00000000000E+00 0.  1.
</event>
<event>
 7    1  0.6273950E-006  0.5445700E+02  0.7818608E-02  0.1523576E+00
          2   -1    0    0  502    0  0.00000000000E+00  0.00000000000E+00  0.10777759128E+04  0.10777759128E+04  0.00000000000E+00 0. -1.
          1   -1    0    0  501    0 -0.00000000000E+00 -0.00000000000E+00 -0.95294972831E+03  0.95294972831E+03  0.00000000000E+00 0. -1.
         25    2    1    2    0    0 -0.58359043981E+01  0.42912898776E+02 -0.18961360181E+03  0.23120360399E+03  0.12500485529E+03 0.  0.
          2    1    1    2  501    0  0.32262022361E+02 -0.44851757037E+02 -0.74134694432E+03  0.74340285852E+03  0.00000000000E+00 0. -1.
          1    1    1    2  502    0 -0.26426117963E+02  0.19388582617E+01  0.10557867306E+04  0.10561191786E+04  0.00000000000E+00 0. -1.
         22    1    3    3    0    0  0.76373883990E+01 -0.81094357572E+01 -0.17646851929E+03  0.17681976968E+03  0.00000000000E+00 0. -1.
         22    1    3    3    0    0 -0.13473292797E+02  0.51022334533E+02 -0.13145082522E+02  0.54383834312E+02  0.00000000000E+00 0. -1.
</event>
<event>
 7    1  0.6273950E-006  0.1363115E+03  0.7818608E-02  0.1312052E+00
          2   -1    0    0  502    0  0.00000000000E+00  0.00000000000E+00  0.80498508240E+03  0.80498508240E+03  0.00000000000E+00 0. -1.
          1   -1    0    0  501    0 -0.00000000000E+00 -0.00000000000E+00 -0.10805260404E+04  0.10805260404E+04  0.00000000000E+00 0. -1.
         25    2    1    2    0    0 -0.16964275196E+03 -0.48335382969E+02 -0.14403229168E+03  0.25978115071E+03  0.12500389064E+03 0.  0.
          2    1    1    2  501    0  0.11710255104E+03  0.63354638781E+02 -0.87256359672E+03  0.88266304331E+03  0.00000000000E+00 0. -1.
          1    1    1    2  502    0  0.52540200926E+02 -0.15019255812E+02  0.74105493040E+03  0.74306692877E+03  0.00000000000E+00 0. -1.
         22    1    3    3    0    0 -0.65962100034E+02 -0.24472776383E+02 -0.13595879629E+03  0.15308399561E+03  0.00000000000E+00 0. -1.
         22    1    3    3    0    0 -0.10368065193E+03 -0.23862606586E+02 -0.80734953944E+01  0.10669715509E+03  0.00000000000E+00 0. -1.
</event>
<event>
 7    1  0.6273950E-006  0.6570974E+02  0.7818608E-02  0.1398678E+00
          2   -1    0    0  502    0  0.00000000000E+00  0.00000000000E+00  0.11715420402E+04  0.11715420402E+04  0.00000000000E+00 0. -1.
          1   -1    0    0  501    0 -0.00000000000E+00 -0.00000000000E+00 -0.66053894987E+02  0.66053894987E+02  0.00000000000E+00 0. -1.
         25    2    1    2    0    0  0.70853407777E+02 -0.69996712068E+01  0.34651569438E+03  0.37518906447E+03  0.12499802742E+03 0.  0.
          2    1    1    2  501    0 -0.50511173518E+02 -0.43474838841E+02 -0.28911954763E+02  0.72645312241E+02  0.00000000000E+00 0. -1.
          1    1    1    2  502    0 -0.20342234259E+02  0.50474510047E+02  0.78788440556E+03  0.78976155844E+03  0.00000000000E+00 0. -1.
         22    1    3    3    0    0 -0.24228814809E+02 -0.29465693406E+02  0.49353875639E+02  0.62378422515E+02  0.00000000000E+00 0.  1.
         22    1    3    3    0    0  0.95082222586E+02  0.22466022200E+02  0.29716181874E+03  0.31281064196E+03  0.00000000000E+00 0.  1.
</event>
<event>
 7    1  0.6273950E-006  0.7182537E+02  0.7818608E-02  0.1365378E+00
          2   -1    0    0  502    0  0.00000000000E+00  0.00000000000E+00  0.55560696785E+03  0.55560696785E+03  0.00000000000E+00 0. -1.
          1   -1    0    0  501    0 -0.00000000000E+00 -0.00000000000E+00 -0.29370002263E+03  0.29370002263E+03  0.00000000000E+00 0. -1.
         25    2    1    2    0    0 -0.61663857284E+01  0.23597472941E+02 -0.65575027771E+02  0.14324039193E+03  0.12499144200E+03 0.  0.
          2    1    1    2  501    0 -0.26660157960E+02 -0.80011324240E+02 -0.17769381209E+03  0.19669180685E+03  0.00000000000E+00 0. -1.
          1    1    1    2  502    0  0.32826543688E+02  0.56413851299E+02  0.50517578508E+03  0.50937479170E+03  0.00000000000E+00 0. -1.
         22    1    3    3    0    0 -0.39175082359E+02 -0.39800105935E+02 -0.27296897548E+02  0.62159923793E+02  0.00000000000E+00 0. -1.
         22    1    3    3    0    0  0.33008696630E+02  0.63397578876E+02 -0.38278130223E+02  0.81080468141E+02  0.00000000000E+00 0. -1.
</event>
<event>
 7    1  0.6273950E-006  0.4099307E+02  0.7818608E-02  0.1591543E+00
          2   -1    0    0  502    0  0.00000000000E+00  0.00000000000E+00  0.39358801190E+03  0.39358801190E+03  0.00000000000E+00 0. -1.
          1   -1    0    0  501    0 -0.00000000000E+00 -0.00000000000E+00 -0.12470675333E+04  0.12470675333E+04  0.00000000000E+00 0. -1.
         25    2    1    2    0    0 -0.44449424431E+02  0.31928364362E+02 -0.95619976909E+03  0.96588749363E+03  0.12500192066E+03 0.  0.
          2    1    1    2  501    0  0.22671972213E+02  0.27887986053E+01 -0.28448471501E+03  0.28540033076E+03  0.00000000000E+00 0. -1.
          1    1    1    2  502    0  0.21777452217E+02 -0.34717162967E+02  0.38720496273E+03  0.38936772079E+03  0.00000000000E+00 0. -1.
         22    1    3    3    0    0 -0.67822674761E+01 -0.45626447518E+02 -0.45433546724E+03  0.45667109461E+03  0.00000000000E+00 0.  1.
         22    1    3    3    0    0 -0.37667156955E+02  0.77554811880E+02 -0.50186430185E+03  0.50921639902E+03  0.00000000000E+00 0.  1.
</event>
<event>
 7    1  0.6273950E-006  0.1015012E+03  0.7818608E-02  0.1317031E+00
          2   -1    0    0  502    0  0.00000000000E+00  0.00000000000E+00  0.35083908463E+03  0.35083908463E+03  0.00000000000E+00 0. -1.
          1   -1    0    0  501    0 -0.00000000000E+00 -0.00000000000E+00 -0.18402829131E+03  0.18402829131E+03  0.00000000000E+00 0. -1.
         25    2    1    2    0    0 -0.51227880753E+02 -0.13248007610E+02  0.34130847761E+02  0.13996434556E+03  0.12500119114E+03 0.  0.
          2    1    1    2  501    0  0.97435482694E+02  0.66050857047E+02 -0.98388156078E+02  0.15341648627E+03  0.00000000000E+00 0. -1.
          1    1    1    2  502    0 -0.46207601941E+02 -0.52802849437E+02  0.23106810164E+03  0.24148654410E+03  0.00000000000E+00 0. -1.
         22    1    3    3    0    0 -0.77682382401E+02 -0.47557957122E+02  0.13861618108E+02  0.92132818679E+02  0.00000000000E+00 0.  1.
         22    1    3    3    0    0  0.26454501649E+02  0.34309949512E+02  0.20269229653E+02  0.47831526881E+02  0.00000000000E+00 0.  1.
</event>
<event>
 7    1  0.6273950E-006  0.9350714E+02  0.7818608E-02  0.1374609E+00
          2   -1    0    0  502    0  0.00000000000E+00  0.00000000000E+00  0.32100027413E+04  0.32100027413E+04  0.00000000000E+00 0. -1.
          1   -1    0    0  501    0 -0.00000000000E+00 -0.00000000000E+00 -0.13730117253E+03  0.13730117253E+03  0.00000000000E+00 0. -1.
         25    2    1    2    0    0 -0.58623005809E+02  0.36777098060E+02  0.15666976414E+03  0.21203746207E+03  0.12500103428E+03 0.  0.
          2    1    1    2  501    0 -0.35495411782E+02 -0.29956471316E+02 -0.10392693458E+03  0.11383374790E+03  0.00000000000E+00 0. -1.
          1    1    1    2  502    0  0.94118417591E+02 -0.68206267445E+01  0.30199587392E+04  0.30214327039E+04  0.00000000000E+00 0. -1.
         22    1    3    3    0    0 -0.68453704358E+02  0.20793151863E+01  0.20964813673E+02  0.71622319177E+02  0.00000000000E+00 0.  1.
         22    1    3    3    0    0  0.98306985494E+01  0.34697782874E+02  0.13570495047E+03  0.14041514289E+03  0.00000000000E+00 0.  1.
</event>
<event>
 7    1  0.6273950E-006  0.2870928E+02  0.7818608E-02  0.1652790E+00
          2   -1    0    0  502    0  0.00000000000E+00  0.00000000000E+00  0.11734342302E+04  0.11734342302E+04  0.00000000000E+00 0. -1.
          1   -1    0    0  501    0 -0.00000000000E+00 -0.00000000000E+00 -0.58538703738E+02  0.58538703738E+02  0.00000000000E+00 0. -1.
         25    2    1    2    0    0  0.30827251232E+02 -0.26429695020E+02  0.56596125637E+03  0.58102176849E+03  0.12500121421E+03 0.  0.
          2    1    1    2  501    0 -0.22777932293E+02 -0.85951763228E+00 -0.48106149329E+02  0.53233209310E+02  0.00000000000E+00 0. -1.
          1    1    1    2  502    0 -0.80493189388E+01  0.27289212653E+02  0.59704041940E+03  0.59771795612E+03  0.00000000000E+00 0. -1.
         22    1    3    3    0    0  0.52985052760E+02 -0.65577764357E+02  0.31645995337E+03  0.32749772684E+03  0.00000000000E+00 0. -1.
         22    1    3    3    0    0 -0.22157801527E+02  0.39148069336E+02  0.24950130299E+03  0.25352404165E+03  0.00000000000E+00 0. -1.
</event>
<event>
 7    1  0.6273950E-006  0.1005122E+03  0.7818608E-02  0.1416359E+00
          2   -1    0    0  502    0  0.00000000000E+00  0.00000000000E+00  0.18933236310E+02  0.18933236310E+02  0.00000000000E+00 0. -1.
          1   -1    0    0  501    0 -0.00000000000E+00 -0.00000000000E+00 -0.13772615917E+04  0.13772615917E+04  0.00000000000E+00 0. -1.
         25    2    1    2    0    0  0.69495763584E+02  0.47180159688E+02 -0.56701489186E+03  0.58667400203E+03  0.12499947375E+03 0.  0.
          2    1    1    2  501    0  0.30968785629E+02  0.68036065385E+00 -0.43805821800E+03  0.43915205901E+03  0.00000000000E+00 0. -1.
          1    1    1    2  502    0 -0.10046454921E+03 -0.47860520342E+02 -0.35325524553E+03  0.37036876698E+03  0.00000000000E+00 0. -1.
         22    1    3    3    0    0 -0.20613816154E+02 -0.26092887508E+02 -0.15966046382E+03  0.16308657794E+03  0.00000000000E+00 0. -1.
         22    1    3    3    0    0  0.90109579738E+02  0.73273047196E+02 -0.40735442804E+03  0.42358742409E+03  0.00000000000E+00 0. -1.
</event>
<event>
 7    1  0.6273950E-006  0.8218189E+02  0.7818608E-02  0.1480074E+00
          2   -1    0    0  502    0  0.00000000000E+00  0.00000000000E+00  0.42608313252E+03  0.42608313252E+03  0.00000000000E+00 0. -1.
          1   -1    0    0  501    0 -0.00000000000E+00 -0.00000000000E+00 -0.59801292589E+03  0.59801292589E+03  0.00000000000E+00 0. -1.
         25    2    1    2    0    0 -0.48934846376E+02 -0.34659955454E+02 -0.35190494851E+02  0.14303761859E+03  0.12500183079E+03 0.  0.
          2    1    1    2  501    0  0.67437125378E+02  0.49404791095E+02 -0.50508359568E+03  0.51195511316E+03  0.00000000000E+00 0. -1.
          1    1    1    2  502    0 -0.18502279002E+02 -0.14744835641E+02  0.36834429716E+03  0.36910332667E+03  0.00000000000E+00 0. -1.
         22    1    3    3    0    0 -0.82752050056E+02 -0.14673287920E+02 -0.53574525562E+02  0.99666629099E+02  0.00000000000E+00 0.  1.
         22    1    3    3    0    0  0.33817203679E+02 -0.19986667534E+02  0.18384030711E+02  0.43370989486E+02  0.00000000000E+00 0.  1.
</event>
<event>
 7    1  0.8637886E-006  0.1470848E+03  0.7818608E-02  0.1240018E+00
          2   -1    0    0  502    0  0.00000000000E+00  0.00000000000E+00  0.24907083395E+04  0.24907083395E+04  0.00000000000E+00 0. -1.
          1   -1    0    0  501    0 -0.00000000000E+00 -0.00000000000E+00 -0.11538683704E+04  0.11538683704E+04  0.00000000000E+00 0. -1.
         25    2    1    2    0    0  0.39774346342E+02  0.28132903702E+02 -0.19567083844E+03  0.23724580391E+03  0.12500014224E+03 0.  0.
          2    1    1    2  501    0  0.60414338760E+02  0.80943362148E+02 -0.93246015496E+03  0.93791452744E+03  0.00000000000E+00 0. -1.
          1    1    1    2  502    0 -0.10018868510E+03 -0.10907626585E+03  0.24649709626E+04  0.24694163786E+04  0.00000000000E+00 0. -1.
         22    1    3    3    0    0  0.62656860946E+02 -0.17372861921E+02 -0.47382996715E+02  0.80454005075E+02  0.00000000000E+00 0. -1.
         22    1    3    3    0    0 -0.22882514604E+02  0.45505765623E+02 -0.14828784173E+03  0.15679179884E+03  0.00000000000E+00 0. -1.
</event>
<event>
 7    1  0.6273950E-006  0.7071496E+02  0.7818608E-02  0.1438792E+00
          2   -1    0    0  502    0  0.00000000000E+00  0.00000000000E+00  0.24338401970E+03  0.24338401970E+03  0.00000000000E+00 0. -1.
          1   -1    0    0  501    0 -0.00000000000E+00 -0.00000000000E+00 -0.37835694288E+03  0.37835694288E+03  0.00000000000E+00 0. -1.
         25    2    1    2    0    0  0.68233536777E+02  0.80117530273E+02 -0.54957951067E+02  0.17239496507E+03  0.12500005359E+03 0.  0.
          2    1    1    2  501    0 -0.44531586613E+02 -0.51548263991E+02 -0.25835448735E+03  0.26718406925E+03  0.00000000000E+00 0. -1.
          1    1    1    2  502    0 -0.23701950163E+02 -0.28569266282E+02  0.17833951523E+03  0.18216192827E+03  0.00000000000E+00 0. -1.
         22    1    3    3    0    0  0.62928345298E+02  0.66303137834E-01  0.16394250838E+02  0.65028858967E+02  0.00000000000E+00 0. -1.
         22    1    3    3    0    0  0.53051914790E+01  0.80051227135E+02 -0.71352201906E+02  0.10736610610E+03  0.00000000000E+00 0. -1.
</event>
<event>
 7    1  0.6273950E-006  0.1083303E+03  0.7818608E-02  0.1390548E+00
          2   -1    0    0  502    0  0.00000000000E+00  0.00000000000E+00  0.16150433915E+03  0.16150433915E+03  0.00000000000E+00 0. -1.
          1   -1    0    0  501    0 -0.00000000000E+00 -0.00000000000E+00 -0.53682046311E+03  0.53682046311E+03  0.00000000000E+00 0. -1.
         25    2    1    2    0    0  0.27766894501E+02 -0.72259018243E+02 -0.49319274200E+02  0.15508263155E+03  0.12500346256E+03 0.  0.
          2    1    1    2  501    0 -0.39709666232E+02  0.10539442772E+03 -0.42420877406E+03  0.43890537360E+03  0.00000000000E+00 0. -1.
          1    1    1    2  502    0  0.11942771732E+02 -0.33135409481E+02  0.98211924292E+02  0.10433679711E+03  0.00000000000E+00 0. -1.
         22    1    3    3    0    0 -0.20289087740E+02  0.92017875751E+01 -0.55998962130E+02  0.60267766970E+02  0.00000000000E+00 0.  1.
         22    1    3    3    0    0  0.48055982241E+02 -0.81460805818E+02  0.66796879302E+01  0.94814864576E+02  0.00000000000E+00 0.  1.
</event>
<event>
 7    1  0.6273950E-006  0.7727396E+02  0.7818608E-02  0.1340514E+00
          2   -1    0    0  502    0  0.00000000000E+00  0.00000000000E+00  0.15138064217E+04  0.15138064217E+04  0.00000000000E+00 0. -1.
          1   -1    0    0  501    0 -0.00000000000E+00 -0.00000000000E+00 -0.85531961644E+02  0.85531961644E+02  0.00000000000E+00 0. -1.
         25    2    1    2    0    0 -0.21460201658E+02 -0.23234264040E+02  0.30139815637E+03  0.32782176555E+03  0.12500356005E+03 0.  0.
          2    1    1    2  501    0  0.77809280035E+02 -0.26160057784E+02 -0.47440442556E+02  0.94811540821E+02  0.00000000000E+00 0. -1.
          1    1    1    2  502    0 -0.56349078377E+02  0.49394321824E+02  0.11743167462E+04  0.11767050769E+04  0.00000000000E+00 0. -1.
         22    1    3    3    0    0 -0.61033672348E+02 -0.27941551977E+02  0.26658155673E+03  0.27490282988E+03  0.00000000000E+00 0.  1.
         22    1    3    3    0    0  0.39573470690E+02  0.47072879366E+01  0.34816599635E+02  0.52918935669E+02  0.00000000000E+00 0.  1.
</event>
<event>
 7    1  0.6273950E-006  0.1773711E+03  0.7818608E-02  0.1227977E+00
          2   -1    0    0  502    0  0.00000000000E+00  0.00000000000E+00  0.97716099132E+03  0.97716099132E+03  0.00000000000E+00 0. -1.
          1   -1    0    0  501    0 -0.00000000000E+00 -0.00000000000E+00 -0.16753371648E+04  0.16753371648E+04  0.00000000000E+00 0. -1.
         25    2    1    2    0    0  0.22239622422E+03 -0.14420230010E+03 -0.24654540810E+03  0.38296805052E+03  0.12500202224E+03 0.  0.
          2    1    1    2  501    0 -0.14022812496E+03  0.96986846187E+02 -0.13527443646E+04  0.13634469888E+04  0.00000000000E+00 0. -1.
          1    1    1    2  502    0 -0.82168099258E+02  0.47215453910E+02  0.90111359928E+03  0.90608311673E+03  0.00000000000E+00 0. -1.
         22    1    3    3    0    0 -0.10302203070E+02 -0.26231949430E+02 -0.76034355913E+01  0.29190114624E+02  0.00000000000E+00 0. -1.
         22    1    3    3    0    0  0.23269842729E+03 -0.11797035067E+03 -0.23894197251E+03  0.35377793589E+03  0.00000000000E+00 0. -1.
</event>
<event>
 7    1  0.6273950E-006  0.6603359E+02  0.7818608E-02  0.1381689E+00
          2   -1    0    0  502    0  0.00000000000E+00  0.00000000000E+00  0.37185803611E+04  0.37185803611E+04  0.00000000000E+00 0. -1.
          1   -1    0    0  501    0 -0.00000000000E+00 -0.00000000000E+00 -0.15677439717E+04  0.15677439717E+04  0.00000000000E+00 0. -1.
         25    2    1    2    0    0  0.85323579431E+01 -0.66698777330E+02  0.40107815383E+03  0.42545303433E+03  0.12500028363E+03 0.  0.
          2    1    1    2  501    0  0.50686462028E+02  0.35829832152E+02 -0.15545998018E+04  0.15558385000E+04  0.00000000000E+00 0. -1.
          1    1    1    2  502    0 -0.59218819971E+02  0.30868945177E+02  0.33043580373E+04  0.33050327985E+04  0.00000000000E+00 0. -1.
         22    1    3    3    0    0 -0.54870185642E+02 -0.13396356367E+02  0.12398111920E+03  0.13624066043E+03  0.00000000000E+00 0. -1.
         22    1    3    3    0    0  0.63402543585E+02 -0.53302420963E+02  0.27709703463E+03  0.28921237389E+03  0.00000000000E+00 0. -1.
</event>
<event>
 7    1  0.6273950E-006  0.1533956E+03  0.7818608E-02  0.1390926E+00
          2   -1    0    0  502    0  0.00000000000E+00  0.00000000000E+00  0.99596289676E+03  0.99596289676E+03  0.00000000000E+00 0. -1.
          1   -1    0    0  501    0 -0.00000000000E+00 -0.00000000000E+00 -0.67482451076E+03  0.67482451076E+03  0.00000000000E+00 0. -1.
         25    2    1    2    0    0  0.18247877833E+02  0.16930245357E+03  0.15771632917E+03  0.26362302972E+03  0.12500542182E+03 0.  0.
          2    1    1    2  501    0  0.12661456262E+02 -0.21323061847E+02 -0.61434328324E+03  0.61484360215E+03  0.00000000000E+00 0. -1.
          1    1    1    2  502    0 -0.30909334095E+02 -0.14797939173E+03  0.77776534007E+03  0.79232077565E+03  0.00000000000E+00 0. -1.
         22    1    3    3    0    0  0.42883361708E+02  0.15734473607E+03  0.80850922879E+02  0.18202532904E+03  0.00000000000E+00 0.  1.
         22    1    3    3    0    0 -0.24635483876E+02  0.11957717501E+02  0.76865406288E+02  0.81597700687E+02  0.00000000000E+00 0.  1.
</event>
<event>
 7    1  0.6273950E-006  0.1224862E+03  0.7818608E-02  0.1358059E+00
          2   -1    0    0  502    0  0.00000000000E+00  0.00000000000E+00  0.25798675505E+04  0.25798675505E+04  0.00000000000E+00 0. -1.
          1   -1    0    0  501    0 -0.00000000000E+00 -0.00000000000E+00 -0.78433146561E+02  0.78433146561E+02  0.00000000000E+00 0. -1.
         25    2    1    2    0    0 -0.78341430010E+02  0.50351261146E+02  0.65036203167E+03  0.66878167451E+03  0.12500210707E+03 0.  0.
          2    1    1    2  501    0 -0.40674341431E+02  0.13054613259E+01 -0.60847554002E+02  0.73201988416E+02  0.00000000000E+00 0. -1.
          1    1    1    2  502    0  0.11901577144E+03 -0.51656722472E+02  0.19119199262E+04  0.19163170341E+04  0.00000000000E+00 0. -1.
         22    1    3    3    0    0 -0.76268543874E+02  0.78684151829E+02  0.60786766142E+03  0.61766591320E+03  0.00000000000E+00 0. -1.
         22    1    3    3    0    0 -0.20728861357E+01 -0.28332890683E+02  0.42494370251E+02  0.51115761311E+02  0.00000000000E+00 0. -1.
</event>
<event>
 7    1  0.6273950E-006  0.3498394E+02  0.7818608E-02  0.1563501E+00
          2   -1    0    0  502    0  0.00000000000E+00  0.00000000000E+00  0.95381992561E+03  0.95381992561E+03  0.00000000000E+00 0. -1.
          1   -1    0    0  501    0 -0.00000000000E+00 -0.00000000000E+00 -0.23938933978E+03  0.23938933978E+03  0.00000000000E+00 0. -1.
         25    2    1    2    0    0 -0.24095938455E+02  0.15368686434E+02  0.16368833009E+03  0.20792957323E+03  0.12499610891E+03 0.  0.
          2    1    1    2  501    0 -0.87755266502E+00 -0.35127339815E+02 -0.21551513413E+03  0.21836087823E+03  0.00000000000E+00 0. -1.
          1    1    1    2  502    0  0.24973491120E+02  0.19758653381E+02  0.76625738987E+03  0.76691881393E+03  0.00000000000E+00 0. -1.
         22    1    3    3    0    0  0.33441451154E+02 -0.37128286043E+02  0.71733404450E+02  0.87421516766E+02  0.00000000000E+00 0.  1.
         22    1    3    3    0    0 -0.57537389609E+02  0.52496972476E+02  0.91954925642E+02  0.12050805646E+03  0.00000000000E+00 0.  1.
</event>
<event>
 7    1  0.6273950E-006  0.1573880E+03  0.7818608E-02  0.1263267E+00
          2   -1    0    0  502    0  0.00000000000E+00  0.00000000000E+00  0.72651820019E+03  0.72651820019E+03  0.00000000000E+00 0. -1.
          1   -1    0    0  501    0 -0.00000000000E+00 -0.00000000000E+00 -0.10109092305E+04  0.10109092305E+04  0.00000000000E+00 0. -1.
         25    2    1    2    0    0  0.12584041637E+03  0.70477786313E+02 -0.21653944695E+03  0.28864879967E+03  0.12500347481E+03 0.  0.
          2    1    1    2  501    0 -0.16377029436E+03 -0.59204624435E+01 -0.74738091915E+03  0.76513658879E+03  0.00000000000E+00 0. -1.
          1    1    1    2  502    0  0.37929877994E+02 -0.64557323869E+02  0.67952933579E+03  0.68364204223E+03  0.00000000000E+00 0. -1.
         22    1    3    3    0    0  0.10089030969E+03  0.10609912203E+03 -0.17855342047E+03  0.23090518020E+03  0.00000000000E+00 0.  1.
         22    1    3    3    0    0  0.24950106681E+02 -0.35621335718E+02 -0.37986026479E+02  0.57743619470E+02  0.00000000000E+00 0.  1.
</event>
<event>
 7    1  0.6273950E-006  0.7371386E+02  0.7818608E-02  0.1448267E+00
          2   -1    0    0  502    0  0.00000000000E+00  0.00000000000E+00  0.10363230707E+04  0.10363230707E+04  0.00000000000E+00 0. -1.
          1   -1    0    0  501    0 -0.00000000000E+00 -0.00000000000E+00 -0.53307704875E+03  0.53307704875E+03  0.00000000000E+00 0. -1.
         25    2    1    2    0    0  0.40696228772E+02 -0.42571426371E+01  0.27078997055E+03  0.30104301967E+03  0.12500154095E+03 0.  0.
          2    1    1    2  501    0 -0.73204547957E+02  0.10941844572E+02 -0.51493600540E+03  0.52022852619E+03  0.00000000000E+00 0. -1.
          1    1    1    2  502    0  0.32508319185E+02 -0.66847019353E+01  0.74739205680E+03  0.74812857359E+03  0.00000000000E+00 0. -1.
         22    1    3    3    0    0  0.25141754217E+02  0.59616135291E+02  0.15365038730E+03  0.16671722439E+03  0.00000000000E+00 0.  1.
         22    1    3    3    0    0  0.15554474554E+02 -0.63873277928E+02  0.11713958325E+03  0.13432579528E+03  0.00000000000E+00 0.  1.
</event>
<event>
 7    1  0.6273950E-006  0.4933653E+02  0.7818608E-02  0.1454565E+00
          2   -1    0    0  502    0  0.00000000000E+00  0.00000000000E+00  0.11620511053E+04  0.11620511053E+04  0.00000000000E+00 0. -1.
          1   -1    0    0  501    0 -0.00000000000E+00 -0.00000000000E+00 -0.44412297772E+03  0.44412297772E+03  0.00000000000E+00 0. -1.
         25    2    1    2    0    0 -0.45925592502E+01  0.13799499582E+01  0.56020934718E+03  0.57400555748E+03  0.12499948593E+03 0.  0.
          2    1    1    2  501    0  0.35178559290E+02  0.34756942687E+02 -0.43487942669E+03  0.43768218133E+03  0.00000000000E+00 0. -1.
          1    1    1    2  502    0 -0.30586000040E+02 -0.36136892645E+02  0.59259820704E+03  0.59448634416E+03  0.00000000000E+00 0. -1.
         22    1    3    3    0    0  0.27398977349E+02  0.19699633173E+02  0.39329162641E+02  0.51822413500E+02  0.00000000000E+00 0. -1.
         22    1    3    3    0    0 -0.31991536600E+02 -0.18319683215E+02  0.52088018454E+03  0.52218314398E+03  0.00000000000E+00 0. -1.
</event>
<event>
 7    1  0.7525193E-006  0.8682487E+02  0.7818608E-02  0.1458963E+00
          2   -1    0    0  502    0  0.00000000000E+00  0.00000000000E+00  0.18191812344E+04  0.18191812344E+04  0.00000000000E+00 0. -1.
          1   -1    0    0  501    0 -0.00000000000E+00 -0.00000000000E+00 -0.13981443383E+04  0.13981443383E+04  0.00000000000E+00 0. -1.
         25    2    1    2    0    0  0.68980671645E+02  0.44957369594E+02 -0.18084937732E+03  0.23475793064E+03  0.12500116232E+03 0.  0.
          2    1    1    2  501    0 -0.13776201746E+02  0.22111926607E+02 -0.11891453501E+04  0.11894306978E+04  0.00000000000E+00 0. -1.
          1    1    1    2  502    0 -0.55204469900E+02 -0.67069296201E+02  0.17910316236E+04  0.17931369442E+04  0.00000000000E+00 0. -1.
         22    1    3    3    0    0 -0.27235335399E+01 -0.32204350334E+01 -0.13847369173E+03  0.13853790866E+03  0.00000000000E+00 0.  1.
         22    1    3    3    0    0  0.71704205185E+02  0.48177804628E+02 -0.42375685590E+02  0.96220021977E+02  0.00000000000E+00 0.  1.
</event>
<event>
 7    1  0.6273950E-006  0.9650463E+02  0.7818608E-02  0.1308922E+00
          2   -1    0    0  502    0  0.00000000000E+00  0.00000000000E+00  0.39832546821E+03  0.39832546821E+03  0.00000000000E+00 0. -1.
          1   -1    0    0  501    0 -0.00000000000E+00 -0.00000000000E+00 -0.27373044948E+04  0.27373044948E+04  0.00000000000E+00 0. -1.
         25    2    1    2    0    0  0.16901140209E+03  0.27894946746E+02 -0.13929485780E+03  0.25371262229E+03  0.12499622079E+03 0.  0.
          2    1    1    2  501    0 -0.95358936545E+02  0.17830613880E+01 -0.25352706982E+04  0.25370640550E+04  0.00000000000E+00 0. -1.
          1    1    1    2  502    0 -0.73652465540E+02 -0.29678008134E+02  0.33558652947E+03  0.34485328563E+03  0.00000000000E+00 0. -1.
         22    1    3    3    0    0  0.15628140548E+03 -0.15885523744E+02 -0.72919125665E+02  0.17318610352E+03  0.00000000000E+00 0.  1.
         22    1    3    3    0    0  0.12729996604E+02  0.43780470491E+02 -0.66375732131E+02  0.80526518774E+02  0.00000000000E+00 0.  1.
</event>
<event>
 7    1  0.6273950E-006  0.1794788E+03  0.7818608E-02  0.1314540E+00
          2   -1    0    0  502    0  0.00000000000E+00  0.00000000000E+00  0.15139061951E+04  0.15139061951E+04  0.00000000000E+00 0. -1.
          1   -1    0    0  501    0 -0.00000000000E+00 -0.00000000000E+00 -0.56891783052E+03  0.56891783052E+03  0.00000000000E+00 0. -1.
         25    2    1    2    0    0 -0.16587593280E+03 -0.59540563326E+02  0.49528842009E+03  0.54036612529E+03  0.12500010608E+03 0.  0.
          2    1    1    2  501    0  0.12704967068E+02 -0.38540221521E+02 -0.53730461676E+03  0.53883486900E+03  0.00000000000E+00 0. -1.
          1    1    1    2  502    0  0.15317096573E+03  0.98080784847E+02  0.98700456126E+03  0.10036230313E+04  0.00000000000E+00 0. -1.
         22    1    3    3    0    0 -0.12770713507E+03 -0.32315254629E+02  0.46785298738E+03  0.48604506564E+03  0.00000000000E+00 0. -1.
         22    1    3    3    0    0 -0.38168797727E+02 -0.27225308696E+02  0.27435432708E+02  0.54321059649E+02  0.00000000000E+00 0. -1.
</event>
<event>
 7    1  0.6273950E-006  0.1401237E+03  0.7818608E-02  0.1336521E+00
          2   -1    0    0  502    0  0.00000000000E+00  0.00000000000E+00  0.46376474682E+04  0.46376474682E+04  0.00000000000E+00 0. -1.
          1   -1    0    0  501    0 -0.00000000000E+00 -0.00000000000E+00 -0.76294115386E+02  0.76294115386E+02  0.00000000000E+00 0. -1.
         25    2    1    2    0    0  0.12910151794E+02  0.16222195097E+03  0.16465324927E+03  0.26309213144E+03  0.12499657490E+03 0.  0.
          2    1    1    2  501    0 -0.35212569873E+02 -0.24296468478E+02 -0.83462829066E+01  0.43587887032E+02  0.00000000000E+00 0. -1.
          1    1    1    2  502    0  0.22302418079E+02 -0.13792548249E+03  0.44050463865E+04  0.44072615651E+04  0.00000000000E+00 0. -1.
         22    1    3    3    0    0 -0.20581835835E+02  0.13821866925E+03  0.62772120370E+02  0.15319383666E+03  0.00000000000E+00 0.  1.
         22    1    3    3    0    0  0.33491987629E+02  0.24003281715E+02  0.10188112891E+03  0.10989829478E+03  0.00000000000E+00 0.  1.
</event>
<event>
 7    1  0.6273950E-006  0.8406670E+02  0.7818608E-02  0.1420499E+00
          2   -1    0    0  502    0  0.00000000000E+00  0.00000000000E+00  0.13978917497E+03  0.13978917497E+03  0.00000000000E+00 0. -1.
          1   -1    0    0  501    0 -0.00000000000E+00 -0.00000000000E+00 -0.77424204780E+03  0.77424204780E+03  0.00000000000E+00 0. -1.
         25    2    1    2    0    0 -0.82839357083E+02 -0.40677871158E+02 -0.31301162345E+03  0.34945219028E+03  0.12499403421E+03 0.  0.
          2    1    1    2  501    0  0.27743069007E+02 -0.22741579975E+02 -0.42765533539E+03  0.42915724766E+03  0.00000000000E+00 0. -1.
          1    1    1    2  502    0  0.55096288076E+02  0.63419451133E+02  0.10621408600E+03  0.13542178483E+03  0.00000000000E+00 0. -1.
         22    1    3    3    0    0 -0.21856855474E+01 -0.66779369219E+02 -0.17693394467E+03  0.18912927365E+03  0.00000000000E+00 0.  1.
         22    1    3    3    0    0 -0.80653671536E+02  0.26101498061E+02 -0.13607767878E+03  0.16032291663E+03  0.00000000000E+00 0.  1.
</event>
<event>
 7    1  0.6273950E-006  0.9287436E+02  0.7818608E-02  0.1419697E+00
          2   -1    0    0  502    0  0.00000000000E+00  0.00000000000E+00  0.15129395723E+04  0.15129395723E+04  0.00000000000E+00 0. -1.
          1   -1    0    0  501    0 -0.00000000000E+00 -0.00000000000E+00 -0.66350349717E+03  0.66350349717E+03  0.00000000000E+00 0. -1.
         25    2    1    2    0    0  0.43272864388E+02  0.82337296447E+02  0.22870029732E+01  0.15582313716E+03  0.12499459394E+03 0.  0.
          2    1    1    2  501    0  0.25780906474E+02 -0.20069581105E+02 -0.58477156579E+03  0.58568355567E+03  0.00000000000E+00 0. -1.
          1    1    1    2  502    0 -0.69053770862E+02 -0.62267715342E+02  0.14319206380E+04  0.14349363767E+04  0.00000000000E+00 0. -1.
         22    1    3    3    0    0 -0.30202106311E+02  0.74913533958E+02  0.10774253888E+02  0.81487970539E+02  0.00000000000E+00 0.  1.
         22    1    3    3    0    0  0.73474970699E+02  0.74237624891E+01 -0.84872509147E+01  0.74335166623E+02  0.00000000000E+00 0.  1.
</event>
<event>
 7    1  0.6273950E-006  0.1071629E+03  0.7818608E-02  0.1292374E+00
          2   -1    0    0  502    0  0.00000000000E+00  0.00000000000E+00  0.25378484960E+03  0.25378484960E+03  0.00000000000E+00 0. -1.
          1   -1    0    0  501    0 -0.00000000000E+00 -0.00000000000E+00 -0.72181430592E+03  0.72181430592E+03  0.00000000000E+00 0. -1.
         25    2    1    2    0    0  0.39098842336E+02  0.23249572687E+02 -0.14631579865E+03  0.19770748471E+03  0.12494268475E+03 0.  0.
          2    1    1    2  501    0 -0.12232722202E+03 -0.26195961036E+02 -0.53473293032E+03  0.54917163473E+03  0.00000000000E+00 0. -1.
          1    1    1    2  502    0  0.83228379686E+02  0.29463883491E+01  0.21301927264E+03  0.22872003608E+03  0.00000000000E+00 0. -1.
         22    1    3    3    0    0 -0.34509518102E+02  0.15890170969E+02 -0.10781456332E+03  0.11431266087E+03  0.00000000000E+00 0.  1.
         22    1    3    3    0    0  0.73608360438E+02  0.73594017173E+01 -0.38501235333E+02  0.83394823833E+02  0.00000000000E+00 0.  1.
</event>
<event>
 7    1  0.6273950E-006  0.8558733E+02  0.7818608E-02  0.1388326E+00
          2   -1    0    0  502    0  0.00000000000E+00  0.00000000000E+00  0.37407544787E+03  0.37407544787E+03  0.00000000000E+00 0. -1.
          1   -1    0    0  501    0 -0.00000000000E+00 -0.00000000000E+00 -0.44157352838E+03  0.44157352838E+03  0.00000000000E+00 0. -1.
         25    2    1    2    0    0 -0.26255590427E+02 -0.79962038435E+02  0.15002066392E+03  0.21263747017E+03  0.12500084199E+03 0.  0.
          2    1    1    2  501    0 -0.18967521959E+02  0.83795283610E+02 -0.40300102175E+03  0.41205732608E+03  0.00000000000E+00 0. -1.
          1    1    1    2  502    0  0.45223112387E+02 -0.38332451755E+01  0.18548227731E+03  0.19095418000E+03  0.00000000000E+00 0. -1.
         22    1    3    3    0    0 -0.52835974066E+02 -0.66280147922E+02  0.31535122228E+02  0.90438720126E+02  0.00000000000E+00 0. -1.
         22    1    3    3    0    0  0.26580383638E+02 -0.13681890513E+02  0.11848554169E+03  0.12219875005E+03  0.00000000000E+00 0. -1.
</event>
<event>
 7    1  0.6273950E-006  0.1462766E+03  0.7818608E-02  0.1253426E+00
          2   -1    0    0  502    0  0.00000000000E+00  0.00000000000E+00  0.21756903713E+04  0.21756903713E+04  0.00000000000E+00 0. -1.
          1   -1    0    0  501    0 -0.00000000000E+00 -0.00000000000E+00 -0.40423787595E+03  0.40423787595E+03  0.00000000000E+00 0. -1.
         25    2    1    2    0    0 -0.15181727223E+03 -0.11244203995E+03  0.18093475109E+04  0.18234734366E+04  0.12500104914E+03 0.  0.
          2    1    1    2  501    0  0.61880060734E+02  0.63642738521E+02 -0.38473174679E+03  0.39483928005E+03  0.00000000000E+00 0. -1.
          1    1    1    2  502    0  0.89937211500E+02  0.48799301428E+02  0.34683673125E+03  0.36161553061E+03  0.00000000000E+00 0. -1.
         22    1    3    3    0    0 -0.17194375672E+02  0.26291862044E+02  0.18296415052E+03  0.18564156038E+03  0.00000000000E+00 0. -1.
         22    1    3    3    0    0 -0.13462289656E+03 -0.13873390199E+03  0.16263833604E+04  0.16378318762E+04  0.00000000000E+00 0. -1.
</event>
<event>
 7    1  0.6273950E-006  0.4052898E+02  0.7818608E-02  0.1553045E+00
          2   -1    0    0  502    0  0.00000000000E+00  0.00000000000E+00  0.57175000038E+03  0.57175000038E+03  0.00000000000E+00 0. -1.
          1   -1    0    0  501    0 -0.00000000000E+00 -0.00000000000E+00 -0.47480477304E+03  0.47480477304E+03  0.00000000000E+00 0. -1.
         25    2    1    2    0    0  0.54015115593E+01 -0.10259367648E+02  0.23666307693E+03  0.26789565801E+03  0.12499696255E+03 0.  0.
          2    1    1    2  501    0 -0.11224581442E+02  0.39051981447E+02 -0.45761107645E+03  0.45941152116E+03  0.00000000000E+00 0. -1.
          1    1    1    2  502    0  0.58230698827E+01 -0.28792613799E+02  0.31789322686E+03  0.31924759426E+03  0.00000000000E+00 0. -1.
         22    1    3    3    0    0 -0.70815570271E+01 -0.19085361578E+02 -0.86415754469E+01  0.22115069583E+02  0.00000000000E+00 0.  1.
         22    1    3    3    0    0  0.12483068586E+02  0.88259939297E+01  0.24530465237E+03  0.24578058842E+03  0.00000000000E+00 0.  1.
</event>
<event>
 7    1  0.6273950E-006  0.8837130E+02  0.7818608E-02  0.1326796E+00
          2   -1    0    0  502    0  0.00000000000E+00  0.00000000000E+00  0.60828727501E+03  0.60828727501E+03  0.00000000000E+00 0. -1.
          1   -1    0    0  501    0 -0.00000000000E+00 -0.00000000000E+00 -0.24643203187E+04  0.24643203187E+04  0.00000000000E+00 0. -1.
         25    2    1    2    0    0 -0.67519473939E+02  0.49406416471E+02 -0.15054805124E+04  0.15129757830E+04  0.12499709275E+03 0.  0.
          2    1    1    2  501    0  0.16141359136E+02 -0.10249308865E+03 -0.94999992974E+03  0.95564912138E+03  0.00000000000E+00 0. -1.
          1    1    1    2  502    0  0.51378114803E+02  0.53086672175E+02  0.59944739850E+03  0.60398268933E+03  0.00000000000E+00 0. -1.
         22    1    3    3    0    0  0.25836354529E+02  0.19185030839E+02 -0.12723073688E+03  0.13123735380E+03  0.00000000000E+00 0.  1.
         22    1    3    3    0    0 -0.93355828468E+02  0.30221385632E+02 -0.13782497755E+04  0.13817384292E+04  0.00000000000E+00 0.  1.
</event>
<event>
 7    1  0.6273950E-006  0.1225690E+03  0.7818608E-02  0.1337607E+00
          2   -1    0    0  502    0  0.00000000000E+00  0.00000000000E+00  0.80451957926E+02  0.80451957926E+02  0.00000000000E+00 0. -1.
          1   -1    0    0  501    0 -0.00000000000E+00 -0.00000000000E+00 -0.18360883464E+04  0.18360883464E+04  0.00000000000E+00 0. -1.
         25    2    1    2    0    0 -0.86476823588E+02 -0.67908515692E+02 -0.29429809697E+03  0.33812092635E+03  0.12499833371E+03 0.  0.
          2    1    1    2  501    0  0.23663601969E+02 -0.42276323332E+02 -0.14502995168E+04  0.14511085218E+04  0.00000000000E+00 0. -1.
          1    1    1    2  502    0  0.62813221619E+02  0.11018483902E+03 -0.11038774715E+02  0.12731085621E+03  0.00000000000E+00 0. -1.
         22    1    3    3    0    0 -0.74412656566E+02 -0.12286800612E+02 -0.58215407556E+02  0.95274564304E+02  0.00000000000E+00 0. -1.
         22    1    3    3    0    0 -0.12064167022E+02 -0.55621715080E+02 -0.23608268942E+03  0.24284636204E+03  0.00000000000E+00 0. -1.
</event>
<event>
 7    1  0.6273950E-006  0.9530426E+02  0.7818608E-02  0.1417665E+00
          2   -1    0    0  502    0  0.00000000000E+00  0.00000000000E+00  0.78678060830E+03  0.78678060830E+03  0.00000000000E+00 0. -1.
          1   -1    0    0  501    0 -0.00000000000E+00 -0.00000000000E+00 -0.92060515246E+03  0.92060515246E+03  0.00000000000E+00 0. -1.
         25    2    1    2    0    0 -0.39247362399E+02  0.52510741951E+02  0.48069420058E+03  0.50098903447E+03  0.12500145882E+03 0.  0.
          2    1    1    2  501    0  0.44585816196E+02 -0.84408143187E+02 -0.90706195086E+03  0.91207127591E+03  0.00000000000E+00 0. -1.
          1    1    1    2  502    0 -0.53384537973E+01  0.31897401236E+02  0.29254320612E+03  0.29432545038E+03  0.00000000000E+00 0. -1.
         22    1    3    3    0    0  0.28575295690E+02  0.38473364112E+02  0.34821642353E+03  0.35149882629E+03  0.00000000000E+00 0.  1.
         22    1    3    3    0    0 -0.67822658088E+02  0.14037377839E+02  0.13247777705E+03  0.14949020817E+03  0.00000000000E+00 0.  1.
</event>
<event>
 7    1  0.6273950E-006  0.1163378E+03  0.7818608E-02  0.1315452E+00
          2   -1    0    0  502    0  0.00000000000E+00  0.00000000000E+00  0.68590677532E+03  0.68590677532E+03  0.00000000000E+00 0. -1.
          1   -1    0    0  501    0 -0.00000000000E+00 -0.00000000000E+00 -0.32618755672E+03  0.32618755672E+03  0.00000000000E+00 0. -1.
         25    2    1    2    0    0 -0.40070552191E+02 -0.14305742993E+03  0.49009501190E+00  0.19415203925E+03  0.12499478685E+03 0.  0.
          2    1    1    2  501    0  0.70123174045E+02  0.88722233574E+02 -0.21363627487E+03  0.24172164200E+03  0.00000000000E+00 0. -1.
          1    1    1    2  502    0 -0.30052621854E+02  0.54335196359E+02  0.57286539846E+03  0.57622065079E+03  0.00000000000E+00 0. -1.
         22    1    3    3    0    0 -0.58131522647E+02 -0.98005261480E+02 -0.49713895590E+02  0.12432126374E+03  0.00000000000E+00 0. -1.
         22    1    3    3    0    0  0.18060970456E+02 -0.45052168453E+02  0.50203990602E+02  0.69830775511E+02  0.00000000000E+00 0. -1.
</event>
<event>
 7    1  0.6273950E-006  0.6387736E+02  0.7818608E-02  0.1506589E+00
          2   -1    0    0  502    0  0.00000000000E+00  0.00000000000E+00  0.70394603517E+03  0.70394603517E+03  0.00000000000E+00 0. -1.
          1   -1    0    0  501    0 -0.00000000000E+00 -0.00000000000E+00 -0.17014946839E+04  0.17014946839E+04  0.00000000000E+00 0. -1.
         25    2    1    2    0    0 -0.26972474410E+02 -0.43979405439E+02  0.47017309931E+03  0.48923352058E+03  0.12499996748E+03 0.  0.
          2    1    1    2  501    0  0.10318108046E+02  0.63059058670E+02 -0.16906439339E+04  0.16918510039E+04  0.00000000000E+00 0. -1.
          1    1    1    2  502    0  0.16654366364E+02 -0.19079653231E+02  0.22292218587E+03  0.22435619456E+03  0.00000000000E+00 0. -1.
         22    1    3    3    0    0 -0.49084116694E+02 -0.90201377282E+01  0.42524330351E+03  0.42816174581E+03  0.00000000000E+00 0. -1.
         22    1    3    3    0    0  0.22111642284E+02 -0.34959267711E+02  0.44929795798E+02  0.61071774772E+02  0.00000000000E+00 0. -1.
</event>
<event>
 7    1  0.6273950E-006  0.1243986E+03  0.7818608E-02  0.1371661E+00
          2   -1    0    0  502    0  0.00000000000E+00  0.00000000000E+00  0.13582235854E+03  0.13582235854E+03  0.00000000000E+00 0. -1.
          1   -1    0    0  501    0 -0.00000000000E+00 -0.00000000000E+00 -0.13792981163E+04  0.13792981163E+04  0.00000000000E+00 0. -1.
         25    2    1    2    0    0  0.12430445636E+03 -0.66560392621E+02 -0.36029768229E+03  0.40659528057E+03  0.12499367415E+03 0.  0.
          2    1    1    2  501    0 -0.11813819164E+03  0.31324437172E+02 -0.98915331093E+03  0.99667553658E+03  0.00000000000E+00 0. -1.
          1    1    1    2  502    0 -0.61662647133E+01  0.35235955449E+02  0.10597523550E+03  0.11184965765E+03  0.00000000000E+00 0. -1.
         22    1    3    3    0    0  0.76146851128E+02 -0.43072817058E+02 -0.33699799058E+03  0.34816843074E+03  0.00000000000E+00 0. -1.
         22    1    3    3    0    0  0.48157605230E+02 -0.23487575563E+02 -0.23299691714E+02  0.58426849832E+02  0.00000000000E+00 0. -1.
</event>
<event>
 7    1  0.6273950E-006  0.5477075E+02  0.7818608E-02  0.1491184E+00
          2   -1    0    0  502    0  0.00000000000E+00  0.00000000000E+00  0.11750875739E+04  0.11750875739E+04  0.00000000000E+00 0. -1.
          1   -1    0    0  501    0 -0.00000000000E+00 -0.00000000000E+00 -0.29935945251E+02  0.29935945251E+02  0.00000000000E+00 0. -1.
         25    2    1    2    0    0  0.25491040956E+02  0.18494657590E+02  0.10345036290E+04  0.10425047790E+04  0.12500644065E+03 0.  0.
          2    1    1    2  501    0 -0.55429634261E+02 -0.49979585220E+01  0.98674003662E+01  0.56522469281E+02  0.00000000000E+00 0. -1.
          1    1    1    2  502    0  0.29938593305E+02 -0.13496699068E+02  0.10078059921E+03  0.10599627084E+03  0.00000000000E+00 0. -1.
         22    1    3    3    0    0 -0.10004957208E+02 -0.11088627763E+02  0.12552478873E+02  0.19509524860E+02  0.00000000000E+00 0.  1.
         22    1    3    3    0    0  0.35495998164E+02  0.29583285353E+02  0.10219511502E+04  0.10229952541E+04  0.00000000000E+00 0.  1.
</event>
<event>
 7    1  0.6273950E-006  0.5213346E+02  0.7818608E-02  0.1447538E+00
          2   -1    0    0  502    0  0.00000000000E+00  0.00000000000E+00  0.19741362064E+03  0.19741362064E+03  0.00000000000E+00 0. -1.
          1   -1    0    0  501    0 -0.00000000000E+00 -0.00000000000E+00 -0.84238335564E+03  0.84238335564E+03  0.00000000000E+00 0. -1.
         25    2    1    2    0    0  0.33912017082E+01  0.88089759260E+02  0.27556982762E+02  0.15542119985E+03  0.12500022451E+03 0.  0.
          2    1    1    2  501    0 -0.24332898505E+02 -0.45811773008E+02 -0.77228396011E+03  0.77402411044E+03  0.00000000000E+00 0. -1.
          1    1    1    2  502    0  0.20941696797E+02 -0.42277986252E+02  0.99757242347E+02  0.11035166599E+03  0.00000000000E+00 0. -1.
         22    1    3    3    0    0 -0.18845732288E+02  0.84709200492E+02 -0.31425939874E+02  0.92295178479E+02  0.00000000000E+00 0.  1.
         22    1    3    3    0    0  0.22236933997E+02  0.33805587679E+01  0.58982922636E+02  0.63126021369E+02  0.00000000000E+00 0.  1.
</event>
<event>
 7    1  0.6273950E-006  0.5301958E+02  0.7818608E-02  0.1491607E+00
          2   -1    0    0  502    0  0.00000000000E+00  0.00000000000E+00  0.14118227619E+04  0.14118227619E+04  0.00000000000E+00 0. -1.
          1   -1    0    0  501    0 -0.00000000000E+00 -0.00000000000E+00 -0.31718340840E+03  0.31718340840E+03  0.00000000000E+00 0. -1.
         25    2    1    2    0    0  0.22766275194E+02 -0.52293770867E+02 -0.58130386600E+02  0.14917877806E+03  0.12498889638E+03 0.  0.
          2    1    1    2  501    0  0.11059059173E+02  0.52293979965E+02 -0.20997072979E+03  0.21666718833E+03  0.00000000000E+00 0. -1.
          1    1    1    2  502    0 -0.33825334367E+02 -0.20909819991E-03  0.13627404699E+04  0.13631602039E+04  0.00000000000E+00 0. -1.
         22    1    3    3    0    0  0.68655809988E+02 -0.50846476285E+02 -0.58008074515E+02  0.10326626315E+03  0.00000000000E+00 0. -1.
         22    1    3    3    0    0 -0.45889534793E+02 -0.14472945815E+01 -0.12231208506E+00  0.45912514910E+02  0.00000000000E+00 0. -1.
</event>
<event>
 7    1  0.6273950E-006  0.4859748E+02  0.7818608E-02  0.1464571E+00
          2   -1    0    0  502    0  0.00000000000E+00  0.00000000000E+00  0.32140487977E+03  0.32140487977E+03  0.00000000000E+00 0. -1.
          1   -1    0    0  501    0 -0.00000000000E+00 -0.00000000000E+00 -0.20017027578E+04  0.20017027578E+04  0.00000000000E+00 0. -1.
         25    2    1    2    0    0  0.19890435694E+02  0.27699832963E+02 -0.70679497903E+03  0.71857283445E+03  0.12499946340E+03 0.  0.
          2    1    1    2  501    0  0.28303979340E+02 -0.34586944757E+02 -0.12867506084E+04  0.12875265046E+04  0.00000000000E+00 0. -1.
          1    1    1    2  502    0 -0.48194415034E+02  0.68871117944E+01  0.31324770931E+03  0.31700829853E+03  0.00000000000E+00 0. -1.
         22    1    3    3    0    0 -0.92660057864E+01  0.49700756772E+02 -0.11464791253E+03  0.12530031099E+03  0.00000000000E+00 0. -1.
         22    1    3    3    0    0  0.29156441480E+02 -0.22000923809E+02 -0.59214706650E+03  0.59327252346E+03  0.00000000000E+00 0. -1.
</event>
<event>
 7    1  0.6273950E-006  0.1171195E+03  0.7818608E-02  0.1302174E+00
          2   -1    0    0  502    0  0.00000000000E+00  0.00000000000E+00  0.90795896444E+03  0.90795896444E+03  0.00000000000E+00 0. -1.
          1   -1    0    0  501    0 -0.00000000000E+00 -0.00000000000E+00 -0.40722994701E+03  0.40722994701E+03  0.00000000000E+00 0. -1.
         25    2    1    2    0    0 -0.34151069299E+02 -0.56358738141E+02  0.15916566277E+03  0.21284096250E+03  0.12499985684E+03 0.  0.
          2    1    1    2  501    0  0.59711050959E+01  0.11998971683E+03 -0.36916452742E+03  0.38822111554E+03  0.00000000000E+00 0. -1.
          1    1    1    2  502    0  0.28179964203E+02 -0.63630978690E+02  0.71072788209E+03  0.71412683342E+03  0.00000000000E+00 0. -1.
         22    1    3    3    0    0 -0.56738750051E+02 -0.89012038591E+01  0.14848871026E+03  0.15920871290E+03  0.00000000000E+00 0. -1.
         22    1    3    3    0    0  0.22587680752E+02 -0.47457534282E+02  0.10676952510E+02  0.53632249597E+02  0.00000000000E+00 0. -1.
</event>
<event>
 7    1  0.6273950E-006  0.1882615E+03  0.7818608E-02  0.1236915E+00
          2   -1    0    0  502    0  0.00000000000E+00  0.00000000000E+00  0.19711205325E+04  0.19711205325E+04  0.00000000000E+00 0. -1.
          1   -1    0    0  501    0 -0.00000000000E+00 -0.00000000000E+00 -0.25319930296E+03  0.25319930296E+03  0.00000000000E+00 0. -1.
         25    2    1    2    0    0 -0.81191528556E+01  0.14770355410E+03 -0.41166480627E+02  0.19798816960E+03  0.12498950211E+03 0.  0.
          2    1    1    2  501    0  0.75589343175E+02  0.30324092444E+02 -0.11592656467E+03  0.14167663103E+03  0.00000000000E+00 0. -1.
          1    1    1    2  502    0 -0.67470190319E+02 -0.17802764654E+03  0.18750142748E+04  0.18846550348E+04  0.00000000000E+00 0. -1.
         22    1    3    3    0    0  0.49871534411E+02  0.42412865642E+02  0.11987375687E+02  0.66556128886E+02  0.00000000000E+00 0. -1.
         22    1    3    3    0    0 -0.57990687266E+02  0.10529068846E+03 -0.53153856314E+02  0.13143204071E+03  0.00000000000E+00 0. -1.
</event>
<event>
 7    1  0.6273950E-006  0.1770411E+03  0.7818608E-02  0.1200075E+00
          2   -1    0    0  502    0  0.00000000000E+00  0.00000000000E+00  0.19011376918E+04  0.19011376918E+04  0.00000000000E+00 0. -1.
          1   -1    0    0  501    0 -0.00000000000E+00 -0.00000000000E+00 -0.53956241422E+03  0.53956241422E+03  0.00000000000E+00 0. -1.
         25    2    1    2    0    0 -0.57430911067E+02 -0.16417454604E+03  0.11141848180E+04  0.11345854042E+04  0.12499855861E+03 0.  0.
          2    1    1    2  501    0 -0.70204525691E+02  0.16323262669E+03 -0.50895160152E+03  0.53907819334E+03  0.00000000000E+00 0. -1.
          1    1    1    2  502    0  0.12763543676E+03  0.94191935081E+00  0.75634206114E+03  0.76703650850E+03  0.00000000000E+00 0. -1.
         22    1    3    3    0    0 -0.52157330932E+01 -0.12541768181E+03  0.44858975707E+03  0.46582139166E+03  0.00000000000E+00 0.  1.
         22    1    3    3    0    0 -0.52215177974E+02 -0.38756864238E+02  0.66559506093E+03  0.66876401254E+03  0.00000000000E+00 0.  1.
</event>
<event>
 7    1  0.6273950E-006  0.4448761E+03  0.7818608E-02  0.1244403E+00
          2   -1    0    0  502    0  0.00000000000E+00  0.00000000000E+00  0.44804223827E+03  0.44804223827E+03  0.00000000000E+00 0. -1.
          1   -1    0    0  501    0 -0.00000000000E+00 -0.00000000000E+00 -0.11678107802E+04  0.11678107802E+04  0.00000000000E+00 0. -1.
         25    2    1    2    0    0  0.41286712202E+03  0.22324519234E+03  0.19383756270E+02  0.48610474058E+03  0.12499764980E+03 0.  0.
          2    1    1    2  501    0 -0.39246280672E+03 -0.19866616218E+03 -0.88080576458E+03  0.98453750237E+03  0.00000000000E+00 0. -1.
          1    1    1    2  502    0 -0.20404315298E+02 -0.24579030165E+02  0.14165346635E+03  0.14521077555E+03  0.00000000000E+00 0. -1.
         22    1    3    3    0    0  0.19240966678E+03  0.17278586516E+03 -0.48610844353E+01  0.25865046919E+03  0.00000000000E+00 0.  1.
         22    1    3    3    0    0  0.22045745524E+03  0.50459327177E+02  0.24244840705E+02  0.22745427139E+03  0.00000000000E+00 0.  1.
</event>
<event>
 7    1  0.6273950E-006  0.4413887E+02  0.7818608E-02  0.1505097E+00
          2   -1    0    0  502    0  0.00000000000E+00  0.00000000000E+00  0.19533613548E+04  0.19533613548E+04  0.00000000000E+00 0. -1.
          1   -1    0    0  501    0 -0.00000000000E+00 -0.00000000000E+00 -0.34202198771E+02  0.34202198771E+02  0.00000000000E+00 0. -1.
         25    2    1    2    0    0 -0.76742328947E+01 -0.20351851108E+02  0.15938629814E+03  0.20371958865E+03  0.12499834827E+03 0.  0.
          2    1    1    2  501    0  0.43644618380E+02  0.29130144438E+02  0.46324344994E+02  0.69995449621E+02  0.00000000000E+00 0. -1.
          1    1    1    2  502    0 -0.35970385485E+02 -0.87782933297E+01  0.17134485128E+04  0.17138485153E+04  0.00000000000E+00 0. -1.
         22    1    3    3    0    0 -0.44766618872E+02  0.37327585798E+02  0.74668796871E+02  0.94725012815E+02  0.00000000000E+00 0.  1.
         22    1    3    3    0    0  0.37092385977E+02 -0.57679436907E+02  0.84717501268E+02  0.10899457583E+03  0.00000000000E+00 0.  1.
</event>
<event>
 7    1  0.6273950E-006  0.8623208E+02  0.7818608E-02  0.1401528E+00
          2   -1    0    0  502    0  0.00000000000E+00  0.00000000000E+00  0.21949749556E+04  0.21949749556E+04  0.00000000000E+00 0. -1.
          1   -1    0    0  501    0 -0.00000000000E+00 -0.00000000000E+00 -0.21077457688E+02  0.21077457688E+02  0.00000000000E+00 0. -1.
         25    2    1    2    0    0  0.57664492920E+02  0.41935662224E+02  0.10022899594E+04  0.10125678953E+04  0.12499914517E+03 0.  0.
          2    1    1    2  501    0  0.33771410528E+02 -0.22433001902E+02  0.15192270326E+02  0.43296106304E+02  0.00000000000E+00 0. -1.
          1    1    1    2  502    0 -0.91435903448E+02 -0.19502660322E+02  0.11564152682E+04  0.11601884117E+04  0.00000000000E+00 0. -1.
         22    1    3    3    0    0  0.85158296702E+02  0.64267103859E+02  0.81552391661E+03  0.82247276836E+03  0.00000000000E+00 0. -1.
         22    1    3    3    0    0 -0.27493803783E+02 -0.22331441635E+02  0.18676604280E+03  0.19009512691E+03  0.00000000000E+00 0. -1.
</event>
<event>
 7    1  0.6273950E-006  0.8611355E+02  0.7818608E-02  0.1395141E+00
          2   -1    0    0  502    0  0.00000000000E+00  0.00000000000E+00  0.99909565375E+03  0.99909565375E+03  0.00000000000E+00 0. -1.
          1   -1    0    0  501    0 -0.00000000000E+00 -0.00000000000E+00 -0.52280019573E+03  0.52280019573E+03  0.00000000000E+00 0. -1.
         25    2    1    2    0    0  0.71957012807E+02 -0.92763612599E+02 -0.30332349944E+03  0.34844392278E+03  0.12500048999E+03 0.  0.
          2    1    1    2  501    0 -0.53150321308E+02  0.54416884111E+02 -0.18908239285E+03  0.20380948265E+03  0.00000000000E+00 0. -1.
          1    1    1    2  502    0 -0.18806691499E+02  0.38346728488E+02  0.96870135030E+03  0.96964244405E+03  0.00000000000E+00 0. -1.
         22    1    3    3    0    0  0.53552255935E+02 -0.69684277080E+02 -0.67591603230E+02  0.11087094937E+03  0.00000000000E+00 0.  1.
         22    1    3    3    0    0  0.18404756872E+02 -0.23079335519E+02 -0.23573189621E+03  0.23757297341E+03  0.00000000000E+00 0.  1.
</event>
<event>
 7    1  0.6273950E-006  0.4495565E+02  0.7818608E-02  0.1475179E+00
          2   -1    0    0  502    0  0.00000000000E+00  0.00000000000E+00  0.15792767673E+03  0.15792767673E+03  0.00000000000E+00 0. -1.
          1   -1    0    0  501    0 -0.00000000000E+00 -0.00000000000E+00 -0.78695142534E+03  0.78695142534E+03  0.00000000000E+00 0. -1.
         25    2    1    2    0    0 -0.12765676043E+02  0.17817240202E+02 -0.53033878998E+03  0.54531130383E+03  0.12499907754E+03 0.  0.
          2    1    1    2  501    0 -0.95562363657E+01 -0.56839571288E+02 -0.24231038864E+03  0.24907103999E+03  0.00000000000E+00 0. -1.
          1    1    1    2  502    0  0.22321912409E+02  0.39022331086E+02  0.14362543001E+03  0.15049675825E+03  0.00000000000E+00 0. -1.
         22    1    3    3    0    0  0.18599556658E+02 -0.49293729213E+02 -0.20783327549E+03  0.21440728917E+03  0.00000000000E+00 0. -1.
         22    1    3    3    0    0 -0.31365232702E+02  0.67110969415E+02 -0.32250551449E+03  0.33090401466E+03  0.00000000000E+00 0. -1.
</event>
<event>
 7    1  0.6273950E-006  0.1273806E+03  0.7818608E-02  0.1281679E+00
          2   -1    0    0  502    0  0.00000000000E+00  0.00000000000E+00  0.69692988626E+03  0.69692988626E+03  0.00000000000E+00 0. -1.
          1   -1    0    0  501    0 -0.00000000000E+00 -0.00000000000E+00 -0.86188438564E+03  0.86188438564E+03  0.00000000000E+00 0. -1.
         25    2    1    2    0    0 -0.11334557521E+03  0.34800460969E+02 -0.27300619601E+03  0.32282457153E+03  0.12500011767E+03 0.  0.
          2    1    1    2  501    0  0.37078568647E+02  0.68032305589E+02 -0.55515639937E+03  0.56053710191E+03  0.00000000000E+00 0. -1.
          1    1    1    2  502    0  0.76267006560E+02 -0.10283276656E+03  0.66320809600E+03  0.67545259846E+03  0.00000000000E+00 0. -1.
         22    1    3    3    0    0 -0.73356057794E+02 -0.36119243813E+02 -0.18854337792E+03  0.20550989355E+03  0.00000000000E+00 0.  1.
         22    1    3    3    0    0 -0.39989517413E+02  0.70919704783E+02 -0.84462818090E+02  0.11731467798E+03  0.00000000000E+00 0.  1.
</event>
<event>
 7    1  0.6273950E-006  0.2570519E+03  0.7818608E-02  0.1202069E+00
          2   -1    0    0  502    0  0.00000000000E+00  0.00000000000E+00  0.42824055732E+03  0.42824055732E+03  0.00000000000E+00 0. -1.
          1   -1    0    0  501    0 -0.00000000000E+00 -0.00000000000E+00 -0.62546040977E+03  0.62546040977E+03  0.00000000000E+00 0. -1.
         25    2    1    2    0    0  0.11902496342E+03 -0.18087824453E+03 -0.12249454025E+03  0.27841351001E+03  0.12500115561E+03 0.  0.
          2    1    1    2  501    0 -0.39216679714E+02 -0.76571531894E+02 -0.36744088094E+03  0.37737772648E+03  0.00000000000E+00 0. -1.
          1    1    1    2  502    0 -0.79808283706E+02  0.25744977642E+03  0.29271556874E+03  0.39790973060E+03  0.00000000000E+00 0. -1.
         22    1    3    3    0    0  0.40819961780E+02 -0.25329529020E+02 -0.88972931794E+02  0.10111397981E+03  0.00000000000E+00 0.  1.
         22    1    3    3    0    0  0.78205001640E+02 -0.15554871551E+03 -0.33521608458E+02  0.17729953021E+03  0.00000000000E+00 0.  1.
</event>
<event>
 7    1  0.6273950E-006  0.5790403E+02  0.7818608E-02  0.1506785E+00
          2   -1    0    0  502    0  0.00000000000E+00  0.00000000000E+00  0.19435109722E+04  0.19435109722E+04  0.00000000000E+00 0. -1.
          1   -1    0    0  501    0 -0.00000000000E+00 -0.00000000000E+00 -0.86788550105E+02  0.86788550105E+02  0.00000000000E+00 0. -1.
         25    2    1    2    0    0  0.47342137361E+02 -0.67098023138E+02  0.11126596652E+04  0.11226661935E+04  0.12499771470E+03 0.  0.
          2    1    1    2  501    0 -0.41821450467E+02  0.39748293887E+02 -0.71340983979E+02  0.91752365534E+02  0.00000000000E+00 0. -1.
          1    1    1    2  502    0 -0.55206868945E+01  0.27349729251E+02  0.81540374085E+03  0.81588096329E+03  0.00000000000E+00 0. -1.
         22    1    3    3    0    0  0.12347673538E+02 -0.94419099103E+02  0.92207241118E+03  0.92697624715E+03  0.00000000000E+00 0. -1.
         22    1    3    3    0    0  0.34994463823E+02  0.27321075966E+02  0.19058725406E+03  0.19568994634E+03  0.00000000000E+00 0. -1.
</event>
<event>
 7    1  0.6273950E-006  0.5762511E+02  0.7818608E-02  0.1429884E+00
          2   -1    0    0  502    0  0.00000000000E+00  0.00000000000E+00  0.12747242050E+04  0.12747242050E+04  0.00000000000E+00 0. -1.
          1   -1    0    0  501    0 -0.00000000000E+00 -0.00000000000E+00 -0.48848731765E+03  0.48848731765E+03  0.00000000000E+00 0. -1.
         25    2    1    2    0    0  0.53166177008E+02  0.66187020843E+02  0.10954161410E+03  0.18663971536E+03  0.12501061565E+03 0.  0.
          2    1    1    2  501    0 -0.52839234478E+01 -0.57215404904E+02 -0.44757421018E+03  0.45124737786E+03  0.00000000000E+00 0. -1.
          1    1    1    2  502    0 -0.47882253560E+02 -0.89716159383E+01  0.11242694835E+04  0.11253244295E+04  0.00000000000E+00 0. -1.
         22    1    3    3    0    0  0.88234186765E+02  0.66430667642E+02  0.10288947792E+03  0.15094551992E+03  0.00000000000E+00 0.  1.
         22    1    3    3    0    0 -0.35068009758E+02 -0.24364679943E+00  0.66521361741E+01  0.35694195436E+02  0.00000000000E+00 0.  1.
</event>
<event>
 7    1  0.6273950E-006  0.4966866E+02  0.7818608E-02  0.1451830E+00
          2   -1    0    0  502    0  0.00000000000E+00  0.00000000000E+00  0.18575625273E+04  0.18575625273E+04  0.00000000000E+00 0. -1.
          1   -1    0    0  501    0 -0.00000000000E+00 -0.00000000000E+00 -0.49768285633E+03  0.49768285633E+03  0.00000000000E+00 0. -1.
         25    2    1    2    0    0 -0.32750318086E+02 -0.91259636091E+02  0.10138188598E+03  0.18789358372E+03  0.12499922993E+03 0.  0.
          2    1    1    2  501    0  0.19773366189E+02  0.43715612216E+02 -0.45280481651E+03  0.45533970024E+03  0.00000000000E+00 0. -1.
          1    1    1    2  502    0  0.12976951897E+02  0.47544023875E+02  0.17113026015E+04  0.17120120997E+04  0.00000000000E+00 0. -1.
         22    1    3    3    0    0 -0.41869991871E+02 -0.89363111597E+02  0.12688415280E+03  0.16074342962E+03  0.00000000000E+00 0. -1.
         22    1    3    3    0    0  0.91196737846E+01 -0.18965244941E+01 -0.25502266814E+02  0.27150154102E+02  0.00000000000E+00 0. -1.
</event>
<event>
 7    1  0.6273950E-006  0.5900695E+02  0.7818608E-02  0.1433050E+00
          2   -1    0    0  502    0  0.00000000000E+00  0.00000000000E+00  0.69471247305E+02  0.69471247305E+02  0.00000000000E+00 0. -1.
          1   -1    0    0  501    0 -0.00000000000E+00 -0.00000000000E+00 -0.18770558281E+04  0.18770558281E+04  0.00000000000E+00 0. -1.
         25    2    1    2    0    0  0.50231971155E+02  0.86570053123E+02 -0.83885389543E+02  0.18077568114E+03  0.12500185315E+03 0.  0.
          2    1    1    2  501    0 -0.42045335866E+02 -0.40848509360E+02 -0.17179481726E+04  0.17189480314E+04  0.00000000000E+00 0. -1.
          1    1    1    2  502    0 -0.81866352896E+01 -0.45721543763E+02 -0.57510186972E+01  0.46803362887E+02  0.00000000000E+00 0. -1.
         22    1    3    3    0    0 -0.28554847778E+02  0.41635193423E+02  0.86275251951E+01  0.51218188703E+02  0.00000000000E+00 0.  1.
         22    1    3    3    0    0  0.78786818934E+02  0.44934859700E+02 -0.92512914738E+02  0.12955749244E+03  0.00000000000E+00 0.  1.
</event>
<event>
 7    1  0.6273950E-006  0.8243141E+02  0.7818608E-02  0.1339698E+00
          2   -1    0    0  502    0  0.00000000000E+00  0.00000000000E+00  0.33332128183E+04  0.33332128183E+04  0.00000000000E+00 0. -1.
          1   -1    0    0  501    0 -0.00000000000E+00 -0.00000000000E+00 -0.63533902106E+02  0.63533902106E+02  0.00000000000E+00 0. -1.
         25    2    1    2    0    0 -0.12899553352E+03 -0.46821163638E+02  0.72298798607E+03  0.74644061786E+03  0.12501959430E+03 0.  0.
          2    1    1    2  501    0  0.80391276620E+02 -0.45815403795E+01 -0.19735378112E+02  0.82904963773E+02  0.00000000000E+00 0. -1.
          1    1    1    2  502    0  0.48604256895E+02  0.51402704017E+02  0.25664263082E+04  0.25674011388E+04  0.00000000000E+00 0. -1.
         22    1    3    3    0    0 -0.84681460982E+02 -0.30623542385E+02  0.17864752283E+03  0.20005921272E+03  0.00000000000E+00 0. -1.
         22    1    3    3    0    0 -0.44314072534E+02 -0.16197621253E+02  0.54434046324E+03  0.54638140514E+03  0.00000000000E+00 0. -1.
</event>
<event>
 7    1  0.6273950E-006  0.1323529E+03  0.7818608E-02  0.1263508E+00
          2   -1    0    0  502    0  0.00000000000E+00  0.00000000000E+00  0.12735252695E+03  0.12735252695E+03  0.00000000000E+00 0. -1.
          1   -1    0    0  501    0 -0.00000000000E+00 -0.00000000000E+00 -0.86757177416E+03  0.86757177416E+03  0.00000000000E+00 0. -1.
         25    2    1    2    0    0 -0.13200551969E+02  0.77064621080E+02 -0.13590917772E+03  0.20052392200E+03  0.12500131323E+03 0.  0.
          2    1    1    2  501    0 -0.49943916193E+02 -0.13954132136E+03 -0.66854718587E+03  0.68477844217E+03  0.00000000000E+00 0. -1.
          1    1    1    2  502    0  0.63144468162E+02  0.62476700279E+02  0.64237116379E+02  0.10962193694E+03  0.00000000000E+00 0. -1.
         22    1    3    3    0    0  0.29365746842E+02  0.90033600415E+02 -0.58725926368E+02  0.11143217991E+03  0.00000000000E+00 0. -1.
         22    1    3    3    0    0 -0.42566298811E+02 -0.12968979335E+02 -0.77183251349E+02  0.89091742088E+02  0.00000000000E+00 0. -1.
</event>
<event>
 7    1  0.6273950E-006  0.1214706E+03  0.7818608E-02  0.1337176E+00
          2   -1    0    0  502    0  0.00000000000E+00  0.00000000000E+00  0.84522874269E+02  0.84522874269E+02  0.00000000000E+00 0. -1.
          1   -1    0    0  501    0 -0.00000000000E+00 -0.00000000000E+00 -0.20647210270E+04  0.20647210270E+04  0.00000000000E+00 0. -1.
         25    2    1    2    0    0 -0.34599267133E+02 -0.95404912069E+02 -0.14914257852E+04  0.15000880314E+04  0.12495608281E+03 0.  0.
          2    1    1    2  501    0  0.41122970755E+02 -0.26773246135E+02 -0.52045902831E+03  0.52276716192E+03  0.00000000000E+00 0. -1.
          1    1    1    2  502    0 -0.65237036227E+01  0.12217815820E+03  0.31686660706E+02  0.12638870803E+03  0.00000000000E+00 0. -1.
         22    1    3    3    0    0 -0.20566255413E+02  0.26902866661E+02 -0.48088693467E+03  0.48207777280E+03  0.00000000000E+00 0. -1.
         22    1    3    3    0    0 -0.14033011719E+02 -0.12230777873E+03 -0.10105388505E+04  0.10180102586E+04  0.00000000000E+00 0. -1.
</event>
<event>
 7    1  0.6273950E-006  0.3994084E+03  0.7818608E-02  0.1134252E+00
          2   -1    0    0  502    0  0.00000000000E+00  0.00000000000E+00  0.21990391662E+04  0.21990391662E+04  0.00000000000E+00 0. -1.
          1   -1    0    0  501    0 -0.00000000000E+00 -0.00000000000E+00 -0.27242600584E+04  0.27242600584E+04  0.00000000000E+00 0. -1.
         25    2    1    2    0    0  0.12933334632E+03 -0.27304204991E+03 -0.63694087133E+03  0.71595943948E+03  0.12500067968E+03 0.  0.
          2    1    1    2  501    0  0.10948755266E+03 -0.50648483097E+02 -0.20272690925E+04  0.20308551811E+04  0.00000000000E+00 0. -1.
          1    1    1    2  502    0 -0.23882089898E+03  0.32369053300E+03  0.21389890717E+04  0.21764846041E+04  0.00000000000E+00 0. -1.
         22    1    3    3    0    0  0.30636764669E+02 -0.20181080420E+03 -0.42714360567E+03  0.47341089120E+03  0.00000000000E+00 0.  1.
         22    1    3    3    0    0  0.98696581651E+02 -0.71231245709E+02 -0.20979726566E+03  0.24254854828E+03  0.00000000000E+00 0.  1.
</event>
<event>
 7    1  0.6273950E-006  0.2855239E+03  0.7818608E-02  0.1159736E+00
          2   -1    0    0  502    0  0.00000000000E+00  0.00000000000E+00  0.18040902181E+04  0.18040902181E+04  0.00000000000E+00 0. -1.
          1   -1    0    0  501    0 -0.00000000000E+00 -0.00000000000E+00 -0.84439734920E+03  0.84439734920E+03  0.00000000000E+00 0. -1.
         25    2    1    2    0    0 -0.15721986390E+03  0.15777727450E+03  0.45341951419E+03  0.52040953613E+03  0.12500030198E+03 0.  0.
          2    1    1    2  501    0  0.27011603850E+03 -0.10512691547E+03 -0.78189996827E+03  0.83389561877E+03  0.00000000000E+00 0. -1.
          1    1    1    2  502    0 -0.11289617460E+03 -0.52650359032E+02  0.12881733229E+04  0.12941824124E+04  0.00000000000E+00 0. -1.
         22    1    3    3    0    0 -0.32060153835E+02  0.52350841789E+02  0.25953075560E+03  0.26669210188E+03  0.00000000000E+00 0.  1.
         22    1    3    3    0    0 -0.12515971007E+03  0.10542643271E+03  0.19388875859E+03  0.25371743426E+03  0.00000000000E+00 0.  1.
</event>
<event>
 7    1  0.6273950E-006  0.5148705E+02  0.7818608E-02  0.1487391E+00
          2   -1    0    0  502    0  0.00000000000E+00  0.00000000000E+00  0.13274045859E+04  0.13274045859E+04  0.00000000000E+00 0. -1.
          1   -1    0    0  501    0 -0.00000000000E+00 -0.00000000000E+00 -0.23209178775E+03  0.23209178775E+03  0.00000000000E+00 0. -1.
         25    2    1    2    0    0  0.25960070237E+01  0.85512735802E+02  0.16345435583E+03  0.22284860935E+03  0.12500003604E+03 0.  0.
          2    1    1    2  501    0  0.57027962226E+01 -0.50614848602E+02 -0.19890112762E+03  0.20531936916E+03  0.00000000000E+00 0. -1.
          1    1    1    2  502    0 -0.82988032462E+01 -0.34897887200E+02  0.11307595699E+04  0.11313283951E+04  0.00000000000E+00 0. -1.
         22    1    3    3    0    0 -0.12036241390E+02  0.11651192766E+03  0.12373620955E+03  0.17038353778E+03  0.00000000000E+00 0.  1.
         22    1    3    3    0    0  0.14632248414E+02 -0.30999191862E+02  0.39718146287E+02  0.52465071564E+02  0.00000000000E+00 0.  1.
</event>
<event>
 7    1  0.6273950E-006  0.2454083E+03  0.7818608E-02  0.1180200E+00
          2   -1    0    0  502    0  0.00000000000E+00  0.00000000000E+00  0.85059426067E+03  0.85059426067E+03  0.00000000000E+00 0. -1.
          1   -1    0    0  501    0 -0.00000000000E+00 -0.00000000000E+00 -0.34003040525E+03  0.34003040525E+03  0.00000000000E+00 0. -1.
         25    2    1    2    0    0 -0.22639644613E+03 -0.17894133646E+03  0.21850286869E+03  0.38294092040E+03  0.12499956871E+03 0.  0.
          2    1    1    2  501    0  0.11122858380E+03 -0.27943454025E+02 -0.21745118289E+03  0.24584070334E+03  0.00000000000E+00 0. -1.
          1    1    1    2  502    0  0.11516786233E+03  0.20688479048E+03  0.50951216962E+03  0.56184304217E+03  0.00000000000E+00 0. -1.
         22    1    3    3    0    0 -0.38117318561E+02 -0.71828198213E+01 -0.10640688989E+02  0.40221227443E+02  0.00000000000E+00 0.  1.
         22    1    3    3    0    0 -0.18827912757E+03 -0.17175851664E+03  0.22914355768E+03  0.34271969296E+03  0.00000000000E+00 0.  1.
</event>
<event>
 7    1  0.6273950E-006  0.1182802E+03  0.7818608E-02  0.1387780E+00
          2   -1    0    0  502    0  0.00000000000E+00  0.00000000000E+00  0.24177739877E+03  0.24177739877E+03  0.00000000000E+00 0. -1.
          1   -1    0    0  501    0 -0.00000000000E+00 -0.00000000000E+00 -0.13384149856E+04  0.13384149856E+04  0.00000000000E+00 0. -1.
         25    2    1    2    0    0  0.31036577262E+02 -0.90825959062E+02 -0.77605704870E+02  0.17567260412E+03  0.12500237775E+03 0.  0.
          2    1    1    2  501    0 -0.13965039933E+02 -0.29883435898E+02 -0.11922477614E+04  0.11927039728E+04  0.00000000000E+00 0. -1.
          1    1    1    2  502    0 -0.17071537329E+02  0.12070939496E+03  0.17321587943E+03  0.21181580749E+03  0.00000000000E+00 0. -1.
         22    1    3    3    0    0 -0.50488175186E+01 -0.10198076611E+03 -0.15916108660E+02  0.10333871361E+03  0.00000000000E+00 0. -1.
         22    1    3    3    0    0  0.36085394781E+02  0.11154807050E+02 -0.61689596210E+02  0.72333890517E+02  0.00000000000E+00 0. -1.
</event>
<event>
 7    1  0.6273950E-006  0.4332027E+02  0.7818608E-02  0.1585120E+00
          2   -1    0    0  502    0  0.00000000000E+00  0.00000000000E+00  0.29039284369E+03  0.29039284369E+03  0.00000000000E+00 0. -1.
          1   -1    0    0  501    0 -0.00000000000E+00 -0.00000000000E+00 -0.64554716052E+03  0.64554716052E+03  0.00000000000E+00 0. -1.
         25    2    1    2    0    0 -0.29419426120E+02 -0.34981691640E+02 -0.15641854796E+03  0.20537854171E+03  0.12499744744E+03 0.  0.
          2    1    1    2  501    0  0.21164800650E+02 -0.75779377747E+01 -0.46260685955E+03  0.46315276144E+03  0.00000000000E+00 0. -1.
          1    1    1    2  502    0  0.82546254694E+01  0.42559629415E+02  0.26387109068E+03  0.26740870104E+03  0.00000000000E+00 0. -1.
         22    1    3    3    0    0  0.37101123431E+02 -0.15011556561E+02 -0.12093516456E+03  0.12738584779E+03  0.00000000000E+00 0. -1.
         22    1    3    3    0    0 -0.66520549551E+02 -0.19970135080E+02 -0.35483383395E+02  0.77992693920E+02  0.00000000000E+00 0. -1.
</event>
<event>
 7    1  0.6273950E-006  0.7040361E+02  0.7818608E-02  0.1452271E+00
          2   -1    0    0  502    0  0.00000000000E+00  0.00000000000E+00  0.12497328194E+03  0.12497328194E+03  0.00000000000E+00 0. -1.
          1   -1    0    0  501    0 -0.00000000000E+00 -0.00000000000E+00 -0.34642069442E+03  0.34642069442E+03  0.00000000000E+00 0. -1.
         25    2    1    2    0    0 -0.56441505746E+02 -0.85691658584E+02 -0.24082570832E+03  0.29008796724E+03  0.12500121211E+03 0.  0.
          2    1    1    2  501    0  0.19629350138E+02  0.27441522895E+02 -0.64476733622E+02  0.72770857795E+02  0.00000000000E+00 0. -1.
          1    1    1    2  502    0  0.36812155608E+02  0.58250135689E+02  0.83855029456E+02  0.10853515133E+03  0.00000000000E+00 0. -1.
         22    1    3    3    0    0  0.31848778429E+01 -0.90757935280E+02 -0.19365300931E+03  0.21388930379E+03  0.00000000000E+00 0. -1.
         22    1    3    3    0    0 -0.59626383589E+02  0.50662766959E+01 -0.47172699009E+02  0.76198663448E+02  0.00000000000E+00 0. -1.
</event>
<event>
 7    1  0.6273950E-006  0.3662319E+02  0.7818608E-02  0.1543272E+00
          2   -1    0    0  502    0  0.00000000000E+00  0.00000000000E+00  0.38911155912E+04  0.38911155912E+04  0.00000000000E+00 0. -1.
          1   -1    0    0  501    0 -0.00000000000E+00 -0.00000000000E+00 -0.54961664817E+02  0.54961664817E+02  0.00000000000E+00 0. -1.
         25    2    1    2    0    0  0.14219112842E+02 -0.17706213081E+02  0.11542899329E+04  0.11612604906E+04  0.12499993865E+03 0.  0.
          2    1    1    2  501    0  0.22374388798E+02  0.26417968103E+02 -0.45511249707E+02  0.57182131498E+02  0.00000000000E+00 0. -1.
          1    1    1    2  502    0 -0.36593501639E+02 -0.87117550215E+01  0.27273752432E+04  0.27276346339E+04  0.00000000000E+00 0. -1.
         22    1    3    3    0    0 -0.22208139084E+02  0.82595072242E+01  0.43207494399E+02  0.49277870017E+02  0.00000000000E+00 0. -1.
         22    1    3    3    0    0  0.36427251925E+02 -0.25965720305E+02  0.11110824385E+04  0.11119826206E+04  0.00000000000E+00 0. -1.
</event>
<event>
 7    1  0.6273950E-006  0.8593694E+02  0.7818608E-02  0.1331871E+00
          2   -1    0    0  502    0  0.00000000000E+00  0.00000000000E+00  0.50481073310E+02  0.50481073310E+02  0.00000000000E+00 0. -1.
          1   -1    0    0  501    0 -0.00000000000E+00 -0.00000000000E+00 -0.65734726817E+03  0.65734726817E+03  0.00000000000E+00 0. -1.
         25    2    1    2    0    0 -0.70057757045E+02 -0.10970015538E+02 -0.29005314153E+03  0.32370264038E+03  0.12499657563E+03 0.  0.
          2    1    1    2  501    0  0.41423720341E+02  0.91996242267E+02 -0.70048200434E+02  0.12282501204E+03  0.00000000000E+00 0. -1.
          1    1    1    2  502    0  0.28634036704E+02 -0.81026226729E+02 -0.24676485290E+03  0.26130068906E+03  0.00000000000E+00 0. -1.
         22    1    3    3    0    0 -0.17517200396E+02 -0.38309634863E+01 -0.26402893208E+03  0.26463712054E+03  0.00000000000E+00 0. -1.
         22    1    3    3    0    0 -0.52540556649E+02 -0.71390520512E+01 -0.26024209443E+02  0.59065519843E+02  0.00000000000E+00 0. -1.
</event>
<event>
 7    1  0.1158760E-005  0.6681333E+02  0.7818608E-02  0.1391751E+00
          2   -1    0    0  502    0  0.00000000000E+00  0.00000000000E+00  0.10617168080E+04  0.10617168080E+04  0.00000000000E+00 0. -1.
          1   -1    0    0  501    0 -0.00000000000E+00 -0.00000000000E+00 -0.14908188030E+04  0.14908188030E+04  0.00000000000E+00 0. -1.
         25    2    1    2    0    0  0.84842776432E+02  0.35277406614E+02 -0.23339014706E+03  0.28024162720E+03  0.12498646624E+03 0.  0.
          2    1    1    2  501    0 -0.51781237597E+02  0.22753941524E+02 -0.12322795284E+04  0.12335768620E+04  0.00000000000E+00 0. -1.
          1    1    1    2  502    0 -0.33061538836E+02 -0.58031348138E+02  0.10365676805E+04  0.10387171218E+04  0.00000000000E+00 0. -1.
         22    1    3    3    0    0  0.99483560324E+02 -0.96262543841E+01 -0.11267790322E+03  0.15061856931E+03  0.00000000000E+00 0. -1.
         22    1    3    3    0    0 -0.14640783892E+02  0.44903660998E+02 -0.12071224384E+03  0.12962305789E+03  0.00000000000E+00 0. -1.
</event>
<event>
 7    1  0.6273950E-006  0.9505218E+02  0.7818608E-02  0.1304789E+00
          2   -1    0    0  502    0  0.00000000000E+00  0.00000000000E+00  0.17331420805E+03  0.17331420805E+03  0.00000000000E+00 0. -1.
          1   -1    0    0  501    0 -0.00000000000E+00 -0.00000000000E+00 -0.23127142728E+04  0.23127142728E+04  0.00000000000E+00 0. -1.
         25    2    1    2    0    0  0.45690160237E+02 -0.14300522055E+03 -0.28500361107E+03  0.34552761997E+03  0.12499677590E+03 0.  0.
          2    1    1    2  501    0 -0.65702135527E+02  0.51882321257E+02 -0.19812591303E+04  0.19830270515E+04  0.00000000000E+00 0. -1.
          1    1    1    2  502    0  0.20011975290E+02  0.91122899293E+02  0.12686267656E+03  0.15747380936E+03  0.00000000000E+00 0. -1.
         22    1    3    3    0    0  0.34304499310E+02 -0.34059198391E+02 -0.97985586196E+01  0.49323822023E+02  0.00000000000E+00 0. -1.
         22    1    3    3    0    0  0.11385660927E+02 -0.10894602216E+03 -0.27520505245E+03  0.29620379794E+03  0.00000000000E+00 0. -1.
</event>
<event>
 7    1  0.6273950E-006  0.1007173E+03  0.7818608E-02  0.1434352E+00
          2   -1    0    0  502    0  0.00000000000E+00  0.00000000000E+00  0.12126251251E+04  0.12126251251E+04  0.00000000000E+00 0. -1.
          1   -1    0    0  501    0 -0.00000000000E+00 -0.00000000000E+00 -0.41930973820E+02  0.41930973820E+02  0.00000000000E+00 0. -1.
         25    2    1    2    0    0  0.60138114915E+02  0.99831684898E+02  0.10060995847E+04  0.10205120314E+04  0.12500189490E+03 0.  0.
          2    1    1    2  501    0 -0.67051124737E+02 -0.73786573058E+02  0.41430568466E+02  0.10796667864E+03  0.00000000000E+00 0. -1.
          1    1    1    2  502    0  0.69130098219E+01 -0.26045111840E+02  0.12316399811E+03  0.12607738887E+03  0.00000000000E+00 0. -1.
         22    1    3    3    0    0  0.77730910110E+02  0.11669728660E+03  0.93248771075E+03  0.94297066857E+03  0.00000000000E+00 0. -1.
         22    1    3    3    0    0 -0.17592795195E+02 -0.16865601700E+02  0.73611873964E+02  0.77541362846E+02  0.00000000000E+00 0. -1.
</event>
<event>
 7    1  0.6273950E-006  0.1342160E+03  0.7818608E-02  0.1254841E+00
          2   -1    0    0  502    0  0.00000000000E+00  0.00000000000E+00  0.15980132539E+04  0.15980132539E+04  0.00000000000E+00 0. -1.
          1   -1    0    0  501    0 -0.00000000000E+00 -0.00000000000E+00 -0.89308448357E+02  0.89308448357E+02  0.00000000000E+00 0. -1.
         25    2    1    2    0    0 -0.42649277037E+02 -0.72880588854E+01  0.65222113437E+03  0.66549746267E+03  0.12498955181E+03 0.  0.
          2    1    1    2  501    0 -0.66194462609E+02 -0.11675709149E+03 -0.14818336332E+02  0.13503150886E+03  0.00000000000E+00 0. -1.
          1    1    1    2  502    0  0.10884373965E+03  0.12404515038E+03  0.87130200752E+03  0.88679273075E+03  0.00000000000E+00 0. -1.
         22    1    3    3    0    0 -0.74888016517E+01 -0.20851070507E+02  0.14093232996E+02  0.26257732341E+02  0.00000000000E+00 0.  1.
         22    1    3    3    0    0 -0.35160475386E+02  0.13563011621E+02  0.63812790138E+03  0.63923973033E+03  0.00000000000E+00 0.  1.
</event>
<event>
 7    1  0.6273950E-006  0.2566793E+02  0.7818608E-02  0.1652628E+00
          2   -1    0    0  502    0  0.00000000000E+00  0.00000000000E+00  0.61931686624E+02  0.61931686624E+02  0.00000000000E+00 0. -1.
          1   -1    0    0  501    0 -0.00000000000E+00 -0.00000000000E+00 -0.14814214988E+04  0.14814214988E+04  0.00000000000E+00 0. -1.
         25    2    1    2    0    0 -0.34085985493E+02 -0.72579552340E+00 -0.25617756572E+03  0.28707925278E+03  0.12500068405E+03 0.  0.
          2    1    1    2  501    0  0.17580506052E+02 -0.18735664300E+02 -0.12061435392E+04  0.12064171486E+04  0.00000000000E+00 0. -1.
          1    1    1    2  502    0  0.16505479441E+02  0.19461459823E+02  0.42831292775E+02  0.49856784000E+02  0.00000000000E+00 0. -1.
         22    1    3    3    0    0 -0.73873248647E+02  0.23758524835E+02 -0.11810281223E+03  0.14131524555E+03  0.00000000000E+00 0.  1.
         22    1    3    3    0    0  0.39787263154E+02 -0.24484320358E+02 -0.13807475349E+03  0.14576400723E+03  0.00000000000E+00 0.  1.
</event>
<event>
 7    1  0.6273950E-006  0.7229362E+02  0.7818608E-02  0.1363778E+00
          2   -1    0    0  502    0  0.00000000000E+00  0.00000000000E+00  0.99269038246E+03  0.99269038246E+03  0.00000000000E+00 0. -1.
          1   -1    0    0  501    0 -0.00000000000E+00 -0.00000000000E+00 -0.41456400978E+03  0.41456400978E+03  0.00000000000E+00 0. -1.
         25    2    1    2    0    0  0.75220809867E+02  0.61659020322E+02 -0.17726640273E+03  0.23771378423E+03  0.12499784258E+03 0.  0.
          2    1    1    2  501    0 -0.71261631742E+02  0.39401042157E+01 -0.19976144117E+03  0.21212821113E+03  0.00000000000E+00 0. -1.
          1    1    1    2  502    0 -0.39591781244E+01 -0.65599124538E+02  0.95515421659E+03  0.95741239688E+03  0.00000000000E+00 0. -1.
         22    1    3    3    0    0  0.95833523164E+01 -0.46236741133E+01  0.18226742178E+02  0.21105286882E+02  0.00000000000E+00 0. -1.
         22    1    3    3    0    0  0.65637457550E+02  0.66282694435E+02 -0.19549314491E+03  0.21660849735E+03  0.00000000000E+00 0. -1.
</event>
<event>
 7    1  0.6273950E-006  0.1653667E+03  0.7818608E-02  0.1211908E+00
          2   -1    0    0  502    0  0.00000000000E+00  0.00000000000E+00  0.12542586283E+04  0.12542586283E+04  0.00000000000E+00 0. -1.
          1   -1    0    0  501    0 -0.00000000000E+00 -0.00000000000E+00 -0.48744772173E+03  0.48744772173E+03  0.00000000000E+00 0. -1.
         25    2    1    2    0    0 -0.10056949325E+03 -0.54190448210E+02  0.35383836682E+03  0.39227256435E+03  0.12500138903E+03 0.  0.
          2    1    1    2  501    0 -0.62250178020E+01 -0.12016760621E+03 -0.44832895713E+03  0.46419592655E+03  0.00000000000E+00 0. -1.
          1    1    1    2  502    0  0.10679451105E+03  0.17435805442E+03  0.86130149686E+03  0.88523785912E+03  0.00000000000E+00 0. -1.
         22    1    3    3    0    0  0.27091051885E+02 -0.19465632546E+02  0.42785276977E+02  0.54253256756E+02  0.00000000000E+00 0. -1.
         22    1    3    3    0    0 -0.12766054513E+03 -0.34724815664E+02  0.31105308984E+03  0.33801930759E+03  0.00000000000E+00 0. -1.
</event>
<event>
 7    1  0.6273950E-006  0.6892138E+02  0.7818608E-02  0.1439566E+00
          2   -1    0    0  502    0  0.00000000000E+00  0.00000000000E+00  0.13655848476E+04  0.13655848476E+04  0.00000000000E+00 0. -1.
          1   -1    0    0  501    0 -0.00000000000E+00 -0.00000000000E+00 -0.27764595663E+03  0.27764595663E+03  0.00000000000E+00 0. -1.
         25    2    1    2    0    0  0.21443505009E+02  0.90080772143E+02 -0.14256522745E+02  0.15621162898E+03  0.12499782066E+03 0.  0.
          2    1    1    2  501    0  0.17613252290E+02 -0.33521584969E+02 -0.18962626236E+03  0.19337022183E+03  0.00000000000E+00 0. -1.
          1    1    1    2  502    0 -0.39056757300E+02 -0.56559187174E+02  0.12918216761E+04  0.12936489534E+04  0.00000000000E+00 0. -1.
         22    1    3    3    0    0  0.74820521312E+01 -0.70430384832E+01  0.41910017553E+02  0.43151304343E+02  0.00000000000E+00 0. -1.
         22    1    3    3    0    0  0.13961452878E+02  0.97123810626E+02 -0.56166540299E+02  0.11306032463E+03  0.00000000000E+00 0. -1.
</event>
<event>
 7    1  0.6273950E-006  0.1311021E+03  0.7818608E-02  0.1242155E+00
          2   -1    0    0  502    0  0.00000000000E+00  0.00000000000E+00  0.40730035824E+04  0.40730035824E+04  0.00000000000E+00 0. -1.
          1   -1    0    0  501    0 -0.00000000000E+00 -0.00000000000E+00 -0.11894602479E+03  0.11894602479E+03  0.00000000000E+00 0. -1.
         25    2    1    2    0    0 -0.93490155060E+02 -0.57214088615E+02  0.65417420593E+03  0.67496862722E+03  0.12499958002E+03 0.  0.
          2    1    1    2  501    0  0.75821580234E+02 -0.80917073575E+02 -0.78414918474E+02  0.13581378525E+03  0.00000000000E+00 0. -1.
          1    1    1    2  502    0  0.17668574826E+02  0.13813116219E+03  0.33782982702E+04  0.33811671947E+04  0.00000000000E+00 0. -1.
         22    1    3    3    0    0  0.29171914375E+02 -0.94294197639E+01  0.75035562494E+02  0.81057079790E+02  0.00000000000E+00 0.  1.
         22    1    3    3    0    0 -0.12266206943E+03 -0.47784668851E+02  0.57913864343E+03  0.59391154743E+03  0.00000000000E+00 0.  1.
</event>
<event>
 7    1  0.6273950E-006  0.9351863E+02  0.7818608E-02  0.1377131E+00
          2   -1    0    0  502    0  0.00000000000E+00  0.00000000000E+00  0.48704546160E+03  0.48704546160E+03  0.00000000000E+00 0. -1.
          1   -1    0    0  501    0 -0.00000000000E+00 -0.00000000000E+00 -0.22775272768E+04  0.22775272768E+04  0.00000000000E+00 0. -1.
         25    2    1    2    0    0  0.29840975878E+02  0.41977104343E+02 -0.33095705599E+02  0.13917796312E+03  0.12499047388E+03 0.  0.
          2    1    1    2  501    0  0.35170557803E+02  0.28850849486E+02 -0.21858265738E+04  0.21862998766E+04  0.00000000000E+00 0. -1.
          1    1    1    2  502    0 -0.65011533680E+02 -0.70827953828E+02  0.42844046427E+03  0.43909489861E+03  0.00000000000E+00 0. -1.
         22    1    3    3    0    0 -0.14796382517E+02 -0.35605713609E+02  0.10003783854E+02  0.39834350360E+02  0.00000000000E+00 0. -1.
         22    1    3    3    0    0  0.44637358395E+02  0.77582817951E+02 -0.43099489453E+02  0.99343612763E+02  0.00000000000E+00 0. -1.
</event>
<event>
 7    1  0.6273950E-006  0.4902186E+02  0.7818608E-02  0.1516075E+00
          2   -1    0    0  502    0  0.00000000000E+00  0.00000000000E+00  0.39394212437E+03  0.39394212437E+03  0.00000000000E+00 0. -1.
          1   -1    0    0  501    0 -0.00000000000E+00 -0.00000000000E+00 -0.31004737039E+03  0.31004737039E+03  0.00000000000E+00 0. -1.
         25    2    1    2    0    0 -0.77520972024E+01  0.10880064854E+02 -0.23944251907E+03  0.27043932934E+03  0.12500496029E+03 0.  0.
          2    1    1    2  501    0 -0.30688559920E+02 -0.41301419506E+02 -0.41085258530E+02  0.65845223302E+02  0.00000000000E+00 0. -1.
          1    1    1    2  502    0  0.38440657122E+02  0.30421354653E+02  0.36442253157E+03  0.36770494212E+03  0.00000000000E+00 0. -1.
         22    1    3    3    0    0 -0.12842716519E+02  0.13632471746E+02 -0.25404368717E+03  0.25473314398E+03  0.00000000000E+00 0.  1.
         22    1    3    3    0    0  0.50906193170E+01 -0.27524068922E+01  0.14601168100E+02  0.15706185362E+02  0.00000000000E+00 0.  1.
</event>
<event>
 7    1  0.6273950E-006  0.1008279E+03  0.7818608E-02  0.1358628E+00
          2   -1    0    0  502    0  0.00000000000E+00  0.00000000000E+00  0.11185953889E+04  0.11185953889E+04  0.00000000000E+00 0. -1.
          1   -1    0    0  501    0 -0.00000000000E+00 -0.00000000000E+00 -0.10379378242E+03  0.10379378242E+03  0.00000000000E+00 0. -1.
         25    2    1    2    0    0  0.57210029662E+02  0.44288556069E+02  0.25501607324E+03  0.29309134040E+03  0.12503948382E+03 0.  0.
          2    1    1    2  501    0 -0.10212270818E+03 -0.24200850768E+02 -0.51232880056E+02  0.11678842709E+03  0.00000000000E+00 0. -1.
          1    1    1    2  502    0  0.44912678520E+02 -0.20087705300E+02  0.81101841334E+03  0.81250940387E+03  0.00000000000E+00 0. -1.
         22    1    3    3    0    0  0.40981600012E+02  0.24571713422E+02  0.12712208395E+02  0.49445534503E+02  0.00000000000E+00 0.  1.
         22    1    3    3    0    0  0.16228429650E+02  0.19716842646E+02  0.24230386485E+03  0.24364580590E+03  0.00000000000E+00 0.  1.
</event>
<event>
 7    1  0.6273950E-006  0.4964312E+02  0.7818608E-02  0.1466338E+00
          2   -1    0    0  502    0  0.00000000000E+00  0.00000000000E+00  0.26908768333E+02  0.26908768333E+02  0.00000000000E+00 0. -1.
          1   -1    0    0  501    0 -0.00000000000E+00 -0.00000000000E+00 -0.16393216237E+04  0.16393216237E+04  0.00000000000E+00 0. -1.
         25    2    1    2    0    0  0.40058026380E+02 -0.62761106444E+02 -0.66107309761E+03  0.67689435204E+03  0.12499888592E+03 0.  0.
          2    1    1    2  501    0 -0.40944764314E+02  0.13765015681E+02 -0.93739045707E+03  0.93838521854E+03  0.00000000000E+00 0. -1.
          1    1    1    2  502    0  0.88673793416E+00  0.48996090763E+02 -0.13949300659E+02  0.50950821417E+02  0.00000000000E+00 0. -1.
         22    1    3    3    0    0 -0.44070515620E+02 -0.17280330694E+02 -0.16354173995E+03  0.17025487037E+03  0.00000000000E+00 0.  1.
         22    1    3    3    0    0  0.84128542001E+02 -0.45480775749E+02 -0.49753135766E+03  0.50663948168E+03  0.00000000000E+00 0.  1.
</event>
<event>
 7    1  0.6273950E-006  0.3185216E+02  0.7818608E-02  0.1646203E+00
          2   -1    0    0  502    0  0.00000000000E+00  0.00000000000E+00  0.60732448342E+03  0.60732448342E+03  0.00000000000E+00 0. -1.
          1   -1    0    0  501    0 -0.00000000000E+00 -0.00000000000E+00 -0.23035306627E+03  0.23035306627E+03  0.00000000000E+00 0. -1.
         25    2    1    2    0    0 -0.44861578657E+02 -0.17470116234E+02 -0.18287139108E+01  0.13396723858E+03  0.12500444240E+03 0.  0.
          2    1    1    2  501    0  0.13108060866E+02  0.16819519576E+02 -0.16128679914E+03  0.16269034721E+03  0.00000000000E+00 0. -1.
          1    1    1    2  502    0  0.31753517791E+02  0.65059665781E+00  0.54008693019E+03  0.54101996389E+03  0.00000000000E+00 0. -1.
         22    1    3    3    0    0 -0.23427392869E+02 -0.25300883181E+02  0.59367485924E+02  0.68654758111E+02  0.00000000000E+00 0.  1.
         22    1    3    3    0    0 -0.21434185789E+02  0.78307669472E+01 -0.61196199835E+02  0.65312480474E+02  0.00000000000E+00 0.  1.
</event>
<event>
 7    1  0.6273950E-006  0.8243469E+02  0.7818608E-02  0.1335525E+00
          2   -1    0    0  502    0  0.00000000000E+00  0.00000000000E+00  0.58618861833E+03  0.58618861833E+03  0.00000000000E+00 0. -1.
          1   -1    0    0  501    0 -0.00000000000E+00 -0.00000000000E+00 -0.41910952438E+03  0.41910952438E+03  0.00000000000E+00 0. -1.
         25    2    1    2    0    0 -0.36887582781E+02  0.54631334108E+02 -0.19312783081E+02  0.14260865001E+03  0.12497586582E+03 0.  0.
          2    1    1    2  501    0 -0.31828481651E+02 -0.80302256676E+02 -0.32999771540E+03  0.34111581148E+03  0.00000000000E+00 0. -1.
          1    1    1    2  502    0  0.68716064432E+02  0.25670922569E+02  0.51638959243E+03  0.52157368122E+03  0.00000000000E+00 0. -1.
         22    1    3    3    0    0 -0.40568262120E+00 -0.39726137442E+02 -0.10310761119E+02  0.41044395102E+02  0.00000000000E+00 0. -1.
         22    1    3    3    0    0 -0.36481900160E+02  0.94357471549E+02 -0.90020219620E+01  0.10156425491E+03  0.00000000000E+00 0. -1.
</event>
<event>
 7    1  0.6273950E-006  0.1071510E+03  0.7818608E-02  0.1418354E+00
          2   -1    0    0  502    0  0.00000000000E+00  0.00000000000E+00  0.47382633038E+03  0.47382633038E+03  0.00000000000E+00 0. -1.
          1   -1    0    0  501    0 -0.00000000000E+00 -0.00000000000E+00 -0.98519673429E+03  0.98519673429E+03  0.00000000000E+00 0. -1.
         25    2    1    2    0    0 -0.12191170975E+03 -0.45843841997E+02 -0.10573183758E+02  0.18083400081E+03  0.12500008325E+03 0.  0.
          2    1    1    2  501    0  0.19376312978E+02  0.21053764577E+02 -0.88209959524E+03  0.88256353790E+03  0.00000000000E+00 0. -1.
          1    1    1    2  502    0  0.10253539677E+03  0.24790077421E+02  0.38130237510E+03  0.39562552595E+03  0.00000000000E+00 0. -1.
         22    1    3    3    0    0  0.13543618678E+02 -0.12343165190E+01  0.29682232666E+02  0.32649472893E+02  0.00000000000E+00 0. -1.
         22    1    3    3    0    0 -0.13545532843E+03 -0.44609525478E+02 -0.40255416425E+02  0.14818452792E+03  0.00000000000E+00 0. -1.
</event>
<event>
 7    1  0.6273950E-006  0.4038540E+02  0.7818608E-02  0.1553504E+00
          2   -1    0    0  502    0  0.00000000000E+00  0.00000000000E+00  0.83355776573E+03  0.83355776573E+03  0.00000000000E+00 0. -1.
          1   -1    0    0  501    0 -0.00000000000E+00 -0.00000000000E+00 -0.26446214136E+03  0.26446214136E+03  0.00000000000E+00 0. -1.
         25    2    1    2    0    0  0.18497335933E+02 -0.29292123588E+02 -0.84834868815E+02  0.15499177749E+03  0.12500126472E+03 0.  0.
          2    1    1    2  501    0  0.85588874902E+01  0.40778868254E+02 -0.14126889359E+03  0.14728567801E+03  0.00000000000E+00 0. -1.
          1    1    1    2  502    0 -0.27056223423E+02 -0.11486744666E+02  0.79519938677E+03  0.79574245158E+03  0.00000000000E+00 0. -1.
         22    1    3    3    0    0 -0.46849997158E+02  0.66065240060E+01 -0.59989904291E+02  0.76402598189E+02  0.00000000000E+00 0.  1.
         22    1    3    3    0    0  0.65347333091E+02 -0.35898647594E+02 -0.24844964524E+02  0.78589179302E+02  0.00000000000E+00 0.  1.
</event>
<event>
 7    1  0.6273950E-006  0.1007966E+03  0.7818608E-02  0.1337506E+00
          2   -1    0    0  502    0  0.00000000000E+00  0.00000000000E+00  0.12417844675E+04  0.12417844675E+04  0.00000000000E+00 0. -1.
          1   -1    0    0  501    0 -0.00000000000E+00 -0.00000000000E+00 -0.94943378939E+02  0.94943378939E+02  0.00000000000E+00 0. -1.
         25    2    1    2    0    0 -0.26075727241E+02  0.14404740686E+03  0.24751694431E+03  0.31355984114E+03  0.12500214912E+03 0.  0.
          2    1    1    2  501    0 -0.66800388398E+01 -0.95016754546E+02 -0.23786184532E+02  0.98176316584E+02  0.00000000000E+00 0. -1.
          1    1    1    2  502    0  0.32755766081E+02 -0.49030652312E+02  0.92311032881E+03  0.92499168874E+03  0.00000000000E+00 0. -1.
         22    1    3    3    0    0 -0.49291371371E+02  0.11514214408E+03  0.96649518600E+02  0.15820392562E+03  0.00000000000E+00 0.  1.
         22    1    3    3    0    0  0.23215644130E+02  0.28905262775E+02  0.15086742571E+03  0.15535591552E+03  0.00000000000E+00 0.  1.
</event>
<event>
 7    1  0.6273950E-006  0.5373606E+02  0.7818608E-02  0.1439224E+00
          2   -1    0    0  502    0  0.00000000000E+00  0.00000000000E+00  0.28733462704E+02  0.28733462704E+02  0.00000000000E+00 0. -1.
          1   -1    0    0  501    0 -0.00000000000E+00 -0.00000000000E+00 -0.27112312156E+04  0.27112312156E+04  0.00000000000E+00 0. -1.
         25    2    1    2    0    0 -0.27371740203E+02  0.44938485100E+01 -0.18431072667E+03  0.22442260510E+03  0.12500261947E+03 0.  0.
          2    1    1    2  501    0 -0.43674270968E+02  0.21529414787E+02 -0.23367147115E+04  0.23372219836E+04  0.00000000000E+00 0. -1.
          1    1    1    2  502    0  0.71046011171E+02 -0.26023263297E+02 -0.16147231462E+03  0.17832008952E+03  0.00000000000E+00 0. -1.
         22    1    3    3    0    0 -0.75128364394E+02  0.78627790048E+01 -0.14053891591E+03  0.15955338077E+03  0.00000000000E+00 0.  1.
         22    1    3    3    0    0  0.47756624191E+02 -0.33689304948E+01 -0.43771810760E+02  0.64869224321E+02  0.00000000000E+00 0.  1.
</event>
<event>
 7    1  0.6273950E-006  0.1593929E+03  0.7818608E-02  0.1315687E+00
          2   -1    0    0  502    0  0.00000000000E+00  0.00000000000E+00  0.12636172971E+04  0.12636172971E+04  0.00000000000E+00 0. -1.
          1   -1    0    0  501    0 -0.00000000000E+00 -0.00000000000E+00 -0.18689279073E+04  0.18689279073E+04  0.00000000000E+00 0. -1.
         25    2    1    2    0    0  0.11997379092E+03 -0.16364914394E+03 -0.16214808588E+04  0.16389021768E+04  0.12500166691E+03 0.  0.
          2    1    1    2  501    0 -0.17584609543E+02  0.41665818007E+02 -0.23148655482E+03  0.23586284986E+03  0.00000000000E+00 0. -1.
          1    1    1    2  502    0 -0.10238918138E+03  0.12198332593E+03  0.12476568034E+04  0.12577801777E+04  0.00000000000E+00 0. -1.
         22    1    3    3    0    0  0.89084343917E+02 -0.18181177031E+03 -0.13869106092E+04  0.14016107084E+04  0.00000000000E+00 0.  1.
         22    1    3    3    0    0  0.30889447002E+02  0.18162626378E+02 -0.23457024965E+03  0.23729146836E+03  0.00000000000E+00 0.  1.
</event>
<event>
 7    1  0.6273950E-006  0.1413651E+03  0.7818608E-02  0.1365471E+00
          2   -1    0    0  502    0  0.00000000000E+00  0.00000000000E+00  0.38752213562E+04  0.38752213562E+04  0.00000000000E+00 0. -1.
          1   -1    0    0  501    0 -0.00000000000E+00 -0.00000000000E+00 -0.50451893416E+03  0.50451893416E+03  0.00000000000E+00 0. -1.
         25    2    1    2    0    0  0.27924951817E+02 -0.16755079891E+03 -0.13399976316E+03  0.24986791884E+03  0.12499986876E+03 0.  0.
          2    1    1    2  501    0  0.10049423665E+02  0.31576023151E+02 -0.31039759388E+03  0.31216134040E+03  0.00000000000E+00 0. -1.
          1    1    1    2  502    0 -0.37974375483E+02  0.13597477576E+03  0.38150997791E+04  0.38177110311E+04  0.00000000000E+00 0. -1.
         22    1    3    3    0    0  0.52623148343E+02 -0.11229161796E+03 -0.14232296052E+03  0.18877083540E+03  0.00000000000E+00 0. -1.
         22    1    3    3    0    0 -0.24698196526E+02 -0.55259180949E+02  0.83231973599E+01  0.61097083442E+02  0.00000000000E+00 0. -1.
</event>
<event>
 7    1  0.6273950E-006  0.1500747E+03  0.7818608E-02  0.1233744E+00
          2   -1    0    0  502    0  0.00000000000E+00  0.00000000000E+00  0.50554454104E+03  0.50554454104E+03  0.00000000000E+00 0. -1.
          1   -1    0    0  501    0 -0.00000000000E+00 -0.00000000000E+00 -0.87770605878E+03  0.87770605878E+03  0.00000000000E+00 0. -1.
         25    2    1    2    0    0 -0.13743404594E+02 -0.94739637611E+02 -0.32115438339E+03  0.35767849070E+03  0.12501713735E+03 0.  0.
          2    1    1    2  501    0  0.10091355161E+03 -0.30900321153E+02 -0.52086843970E+03  0.53145301413E+03  0.00000000000E+00 0. -1.
          1    1    1    2  502    0 -0.87170147016E+02  0.12563995876E+03  0.46986130535E+03  0.49411909499E+03  0.00000000000E+00 0. -1.
         22    1    3    3    0    0 -0.57909290169E+02 -0.95917458279E+02 -0.24941694337E+03  0.27342724139E+03  0.00000000000E+00 0. -1.
         22    1    3    3    0    0  0.44165885575E+02  0.11778206678E+01 -0.71737440018E+02  0.84251249311E+02  0.00000000000E+00 0. -1.
</event>
<event>
 7    1  0.6273950E-006  0.8870554E+02  0.7818608E-02  0.1481908E+00
          2   -1    0    0  502    0  0.00000000000E+00  0.00000000000E+00  0.17554302544E+04  0.17554302544E+04  0.00000000000E+00 0. -1.
          1   -1    0    0  501    0 -0.00000000000E+00 -0.00000000000E+00 -0.12013074706E+02  0.12013074706E+02  0.00000000000E+00 0. -1.
         25    2    1    2    0    0  0.69090390341E+02  0.48422353466E+02  0.10668969471E+04  0.10775027346E+04  0.12499936376E+03 0.  0.
          2    1    1    2  501    0 -0.84315284962E+02 -0.33047872451E+02  0.31462277145E+03  0.32739688066E+03  0.00000000000E+00 0. -1.
          1    1    1    2  502    0  0.15224894621E+02 -0.15374481014E+02  0.36189746110E+03  0.36254371383E+03  0.00000000000E+00 0. -1.
         22    1    3    3    0    0  0.75587247580E+02  0.15823992660E+02  0.29659539147E+03  0.30648435031E+03  0.00000000000E+00 0. -1.
         22    1    3    3    0    0 -0.64968572390E+01  0.32598360805E+02  0.77030155566E+03  0.77101838431E+03  0.00000000000E+00 0. -1.
</event>
<event>
 7    1  0.6273950E-006  0.1487233E+03  0.7818608E-02  0.1299344E+00
          2   -1    0    0  502    0  0.00000000000E+00  0.00000000000E+00  0.27808596214E+04  0.27808596214E+04  0.00000000000E+00 0. -1.
          1   -1    0    0  501    0 -0.00000000000E+00 -0.00000000000E+00 -0.20072192149E+04  0.20072192149E+04  0.00000000000E+00 0. -1.
         25    2    1    2    0    0  0.11922575220E+03  0.16460765959E+03  0.40083280570E+02  0.24195664229E+03  0.12500354308E+03 0.  0.
          2    1    1    2  501    0 -0.27019978859E+02 -0.49335403146E+02 -0.19038032736E+04  0.19046340766E+04  0.00000000000E+00 0. -1.
          1    1    1    2  502    0 -0.92205773340E+02 -0.11527225645E+03  0.26373603995E+04  0.26414881174E+04  0.00000000000E+00 0. -1.
         22    1    3    3    0    0  0.11237327458E+03  0.17774452053E+03  0.12515828543E+02  0.21065970991E+03  0.00000000000E+00 0.  1.
         22    1    3    3    0    0  0.68524776211E+01 -0.13136860937E+02  0.27567452027E+02  0.31296932375E+02  0.00000000000E+00 0.  1.
</event>
<event>
 7    1  0.6273950E-006  0.6443533E+02  0.7818608E-02  0.1435015E+00
          2   -1    0    0  502    0  0.00000000000E+00  0.00000000000E+00  0.99586351722E+03  0.99586351722E+03  0.00000000000E+00 0. -1.
          1   -1    0    0  501    0 -0.00000000000E+00 -0.00000000000E+00 -0.92652756364E+03  0.92652756364E+03  0.00000000000E+00 0. -1.
         25    2    1    2    0    0 -0.98647259362E+02 -0.34930012689E+02  0.29919592991E+03  0.34072621756E+03  0.12499905317E+03 0.  0.
          2    1    1    2  501    0  0.57077335345E+02  0.29598484205E+02 -0.90396982109E+03  0.90625345788E+03  0.00000000000E+00 0. -1.
          1    1    1    2  502    0  0.41569924017E+02  0.53315284834E+01  0.67410984476E+03  0.67541140543E+03  0.00000000000E+00 0. -1.
         22    1    3    3    0    0 -0.78105091618E+02  0.38232598677E+02  0.15469211443E+03  0.17745925505E+03  0.00000000000E+00 0. -1.
         22    1    3    3    0    0 -0.20542167744E+02 -0.73162611366E+02  0.14450381548E+03  0.16326696250E+03  0.00000000000E+00 0. -1.
</event>
<event>
 7    1  0.6273950E-006  0.1089989E+03  0.7818608E-02  0.1265347E+00
          2   -1    0    0  502    0  0.00000000000E+00  0.00000000000E+00  0.87952162186E+03  0.87952162186E+03  0.00000000000E+00 0. -1.
          1   -1    0    0  501    0 -0.00000000000E+00 -0.00000000000E+00 -0.30633097983E+03  0.30633097983E+03  0.00000000000E+00 0. -1.
         25    2    1    2    0    0 -0.13405471358E+02 -0.45758252376E+02 -0.72272832063E+02  0.15206581672E+03  0.12500850387E+03 0.  0.
          2    1    1    2  501    0  0.91680347651E+02  0.12161213748E+03 -0.16005025848E+03  0.22093185232E+03  0.00000000000E+00 0. -1.
          1    1    1    2  502    0 -0.78274876293E+02 -0.75853885103E+02  0.80551373258E+03  0.81285493264E+03  0.00000000000E+00 0. -1.
         22    1    3    3    0    0 -0.50350952645E+02  0.52480570706E+01  0.66881371830E+01  0.51063604595E+02  0.00000000000E+00 0.  1.
         22    1    3    3    0    0  0.36945481287E+02 -0.51006309446E+02 -0.78960969246E+02  0.10100221213E+03  0.00000000000E+00 0.  1.
</event>
<event>
 7    1  0.6273950E-006  0.5867308E+02  0.7818608E-02  0.1523641E+00
          2   -1    0    0  502    0  0.00000000000E+00  0.00000000000E+00  0.60665858830E+03  0.60665858830E+03  0.00000000000E+00 0. -1.
          1   -1    0    0  501    0 -0.00000000000E+00 -0.00000000000E+00 -0.79793798857E+02  0.79793798857E+02  0.00000000000E+00 0. -1.
         25    2    1    2    0    0  0.75258698952E+02  0.36086232836E+01  0.26888573219E+03  0.30594317616E+03  0.12499918454E+03 0.  0.
          2    1    1    2  501    0 -0.55188577438E+02 -0.17803316902E+02 -0.46936639588E+02  0.74604190956E+02  0.00000000000E+00 0. -1.
          1    1    1    2  502    0 -0.20070121514E+02  0.14194693618E+02  0.30491569685E+03  0.30590502005E+03  0.00000000000E+00 0. -1.
         22    1    3    3    0    0 -0.21957106744E+02 -0.11093456544E+02  0.60700476617E+01  0.25338208170E+02  0.00000000000E+00 0.  1.
         22    1    3    3    0    0  0.97215805696E+02  0.14702079828E+02  0.26281568452E+03  0.28060496799E+03  0.00000000000E+00 0.  1.
</event>
<event>
 7    1  0.6273950E-006  0.9769025E+02  0.7818608E-02  0.1440216E+00
          2   -1    0    0  502    0  0.00000000000E+00  0.00000000000E+00  0.19752664580E+03  0.19752664580E+03  0.00000000000E+00 0. -1.
          1   -1    0    0  501    0 -0.00000000000E+00 -0.00000000000E+00 -0.21866895957E+04  0.21866895957E+04  0.00000000000E+00 0. -1.
         25    2    1    2    0    0 -0.11730511521E+03 -0.39048084875E+02 -0.14570110159E+04  0.14675800101E+04  0.12499897047E+03 0.  0.
          2    1    1    2  501    0  0.23581806965E+02  0.12277215357E+02 -0.71177476448E+03  0.71227111902E+03  0.00000000000E+00 0. -1.
          1    1    1    2  502    0  0.93723308243E+02  0.26770869518E+02  0.17962283044E+03  0.20436511243E+03  0.00000000000E+00 0. -1.
         22    1    3    3    0    0 -0.28319223274E+01 -0.53403549309E+02 -0.29081879413E+03  0.29569499468E+03  0.00000000000E+00 0.  1.
         22    1    3    3    0    0 -0.11447319288E+03  0.14355464434E+02 -0.11661922218E+04  0.11718850154E+04  0.00000000000E+00 0.  1.
</event>
<event>
 7    1  0.6273950E-006  0.8823458E+02  0.7818608E-02  0.1430228E+00
          2   -1    0    0  502    0  0.00000000000E+00  0.00000000000E+00  0.24055641410E+03  0.24055641410E+03  0.00000000000E+00 0. -1.
          1   -1    0    0  501    0 -0.00000000000E+00 -0.00000000000E+00 -0.30635228269E+03  0.30635228269E+03  0.00000000000E+00 0. -1.
         25    2    1    2    0    0 -0.47517428724E+02  0.38207663212E+02  0.10369479871E+03  0.17348153085E+03  0.12500199481E+03 0.  0.
          2    1    1    2  501    0  0.58703204087E+02 -0.67903372058E+02 -0.26130070823E+03  0.27628788289E+03  0.00000000000E+00 0. -1.
          1    1    1    2  502    0 -0.11185775364E+02  0.29695708846E+02  0.91810040931E+02  0.97139283043E+02  0.00000000000E+00 0. -1.
         22    1    3    3    0    0  0.14960157819E+02  0.68063202808E+02  0.48018536291E+02  0.84629697660E+02  0.00000000000E+00 0.  1.
         22    1    3    3    0    0 -0.62477586542E+02 -0.29855539596E+02  0.55676262419E+02  0.88851833193E+02  0.00000000000E+00 0.  1.
</event>
<event>
 7    1  0.6273950E-006  0.3465223E+03  0.7818608E-02  0.1207925E+00
          2   -1    0    0  502    0  0.00000000000E+00  0.00000000000E+00  0.15079836667E+04  0.15079836667E+04  0.00000000000E+00 0. -1.
          1   -1    0    0  501    0 -0.00000000000E+00 -0.00000000000E+00 -0.71269382733E+03  0.71269382733E+03  0.00000000000E+00 0. -1.
         25    2    1    2    0    0 -0.36918175303E+03  0.53410017846E+02 -0.33578374201E+03  0.51722646306E+03  0.12499878365E+03 0.  0.
          2    1    1    2  501    0  0.23781694558E+02 -0.54996013760E+02 -0.26170786171E+03  0.26847930164E+03  0.00000000000E+00 0. -1.
          1    1    1    2  502    0  0.34540005848E+03  0.15859959134E+01  0.13927814431E+04  0.14349717293E+04  0.00000000000E+00 0. -1.
         22    1    3    3    0    0 -0.29145323405E+03  0.90398016670E+02 -0.23827886135E+03  0.38716095467E+03  0.00000000000E+00 0. -1.
         22    1    3    3    0    0 -0.77728518985E+02 -0.36987998823E+02 -0.97504880657E+02  0.13006550839E+03  0.00000000000E+00 0. -1.
</event>
<event>
 7    1  0.6273950E-006  0.9128185E+02  0.7818608E-02  0.1470915E+00
          2   -1    0    0  502    0  0.00000000000E+00  0.00000000000E+00  0.52280977782E+02  0.52280977782E+02  0.00000000000E+00 0. -1.
          1   -1    0    0  501    0 -0.00000000000E+00 -0.00000000000E+00 -0.15634955140E+04  0.15634955140E+04  0.00000000000E+00 0. -1.
         25    2    1    2    0    0  0.28824842646E+02 -0.92591057878E+02 -0.49553613322E+03  0.52018340764E+03  0.12502296873E+03 0.  0.
          2    1    1    2  501    0  0.17599623287E+02  0.14389191369E+02 -0.10035923274E+04  0.10038497673E+04  0.00000000000E+00 0. -1.
          1    1    1    2  502    0 -0.46424465933E+02  0.78201866510E+02 -0.12086075537E+02  0.91743316839E+02  0.00000000000E+00 0. -1.
         22    1    3    3    0    0 -0.63799713887E+01 -0.50241959593E+02 -0.43657793194E+03  0.43950568733E+03  0.00000000000E+00 0.  1.
         22    1    3    3    0    0  0.35204814034E+02 -0.42349098285E+02 -0.58958201278E+02  0.80677720312E+02  0.00000000000E+00 0.  1.
</event>
<event>
 7    1  0.6273950E-006  0.1099544E+03  0.7818608E-02  0.1410744E+00
          2   -1    0    0  502    0  0.00000000000E+00  0.00000000000E+00  0.28591734809E+04  0.28591734809E+04  0.00000000000E+00 0. -1.
          1   -1    0    0  501    0 -0.00000000000E+00 -0.00000000000E+00 -0.11420308168E+03  0.11420308168E+03  0.00000000000E+00 0. -1.
         25    2    1    2    0    0 -0.24116854295E+02  0.78011456482E+02  0.76813836725E+03  0.78251447605E+03  0.12499977597E+03 0.  0.
          2    1    1    2  501    0  0.36806545703E+02 -0.10472887544E+03 -0.78092257387E+02  0.13572494178E+03  0.00000000000E+00 0. -1.
          1    1    1    2  502    0 -0.12689691407E+02  0.26717418954E+02  0.20549242894E+04  0.20551371448E+04  0.00000000000E+00 0. -1.
         22    1    3    3    0    0 -0.42127326834E+02  0.38816662205E+01  0.83173288487E+02  0.93314387511E+02  0.00000000000E+00 0.  1.
         22    1    3    3    0    0  0.18010472538E+02  0.74129790262E+02  0.68496507876E+03  0.68920008854E+03  0.00000000000E+00 0.  1.
</event>
<event>
 7    1  0.6273950E-006  0.1231649E+03  0.7818608E-02  0.1362121E+00
          2   -1    0    0  502    0  0.00000000000E+00  0.00000000000E+00  0.30234664788E+04  0.30234664788E+04  0.00000000000E+00 0. -1.
          1   -1    0    0  501    0 -0.00000000000E+00 -0.00000000000E+00 -0.23056567798E+04  0.23056567798E+04  0.00000000000E+00 0. -1.
         25    2    1    2    0    0 -0.14712281035E+03  0.54340018629E+02  0.38322710365E+03  0.43252923677E+03  0.12498227370E+03 0.  0.
          2    1    1    2  501    0  0.12027872744E+03 -0.25893272607E+02 -0.22792002178E+04  0.22825185797E+04  0.00000000000E+00 0. -1.
          1    1    1    2  502    0  0.26844082911E+02 -0.28446746023E+02  0.26137828133E+04  0.26140754421E+04  0.00000000000E+00 0. -1.
         22    1    3    3    0    0 -0.13342620994E+03 -0.10600990391E+02  0.24431457015E+03  0.27857592086E+03  0.00000000000E+00 0.  1.
         22    1    3    3    0    0 -0.13696600408E+02  0.64941009021E+02  0.13891253349E+03  0.15395331590E+03  0.00000000000E+00 0.  1.
</event>
<event>
 7    1  0.6273950E-006  0.1036099E+03  0.7818608E-02  0.1338319E+00
          2   -1    0    0  502    0  0.00000000000E+00  0.00000000000E+00  0.11689476665E+04  0.11689476665E+04  0.00000000000E+00 0. -1.
          1   -1    0    0  501    0 -0.00000000000E+00 -0.00000000000E+00 -0.53305100768E+03  0.53305100768E+03  0.00000000000E+00 0. -1.
         25    2    1    2    0    0  0.14156529577E+03  0.25886936068E+02  0.13986712614E+03  0.23642887565E+03  0.12499973536E+03 0.  0.
          2    1    1    2  501    0 -0.40750742702E+02 -0.39797804119E+02 -0.48044324974E+03  0.48380802439E+03  0.00000000000E+00 0. -1.
          1    1    1    2  502    0 -0.10081455306E+03  0.13910868050E+02  0.97647278239E+03  0.98176177411E+03  0.00000000000E+00 0. -1.
         22    1    3    3    0    0  0.10211555095E+03  0.75222952246E+02  0.10219041430E+03  0.16287712873E+03  0.00000000000E+00 0. -1.
         22    1    3    3    0    0  0.39449744818E+02 -0.49336016178E+02  0.37676711842E+02  0.73551746912E+02  0.00000000000E+00 0. -1.
</event>
<event>
 7    1  0.6273950E-006  0.6785652E+02  0.7818608E-02  0.1370727E+00
          2   -1    0    0  502    0  0.00000000000E+00  0.00000000000E+00  0.21307327719E+04  0.21307327719E+04  0.00000000000E+00 0. -1.
          1   -1    0    0  501    0 -0.00000000000E+00 -0.00000000000E+00 -0.26639579478E+03  0.26639579478E+03  0.00000000000E+00 0. -1.
         25    2    1    2    0    0  0.24112039990E+01  0.18160575920E+01  0.87102618235E+03  0.87995564437E+03  0.12500485487E+03 0.  0.
          2    1    1    2  501    0 -0.67543786471E+02  0.93712247617E+01 -0.25660511811E+03  0.26551114776E+03  0.00000000000E+00 0. -1.
          1    1    1    2  502    0  0.65132582472E+02 -0.11187282354E+02  0.12499159129E+04  0.12516617745E+04  0.00000000000E+00 0. -1.
         22    1    3    3    0    0 -0.42670286212E+02 -0.26001189462E+02  0.17720761244E+03  0.18411776961E+03  0.00000000000E+00 0. -1.
         22    1    3    3    0    0  0.45081490211E+02  0.27817247054E+02  0.69381856992E+03  0.69583787476E+03  0.00000000000E+00 0. -1.
</event>
<event>
 7    1  0.6273950E-006  0.5652742E+02  0.7818608E-02  0.1472017E+00
          2   -1    0    0  502    0  0.00000000000E+00  0.00000000000E+00  0.35110638912E+03  0.35110638912E+03  0.00000000000E+00 0. -1.
          1   -1    0    0  501    0 -0.00000000000E+00 -0.00000000000E+00 -0.24542753434E+03  0.24542753434E+03  0.00000000000E+00 0. -1.
         25    2    1    2    0    0  0.15811454622E+02  0.73918610045E+02 -0.11273741341E+03  0.18452331679E+03  0.12500066819E+03 0.  0.
          2    1    1    2  501    0 -0.30710678991E+02 -0.19581159778E+02 -0.90732260965E+02  0.97769682428E+02  0.00000000000E+00 0. -1.
          1    1    1    2  502    0  0.14899224369E+02 -0.54337450267E+02  0.30914852916E+03  0.31424092424E+03  0.00000000000E+00 0. -1.
         22    1    3    3    0    0  0.19154425661E+02 -0.21215374874E+02 -0.78198184393E+02  0.83258274038E+02  0.00000000000E+00 0. -1.
         22    1    3    3    0    0 -0.33429710387E+01  0.95133984919E+02 -0.34539229022E+02  0.10126504275E+03  0.00000000000E+00 0. -1.
</event>
<event>
 7    1  0.6273950E-006  0.1126253E+03  0.7818608E-02  0.1435673E+00
          2   -1    0    0  502    0  0.00000000000E+00  0.00000000000E+00  0.10632750039E+04  0.10632750039E+04  0.00000000000E+00 0. -1.
          1   -1    0    0  501    0 -0.00000000000E+00 -0.00000000000E+00 -0.23231355324E+03  0.23231355324E+03  0.00000000000E+00 0. -1.
         25    2    1    2    0    0 -0.90813620724E+02 -0.78286365930E+02  0.54341155338E+02  0.18152957263E+03  0.12499662306E+03 0.  0.
          2    1    1    2  501    0  0.97156978746E+02  0.55285637474E+02 -0.15003299305E+03  0.18709858160E+03  0.00000000000E+00 0. -1.
          1    1    1    2  502    0 -0.63433580213E+01  0.23000728456E+02  0.92665328835E+03  0.92696040289E+03  0.00000000000E+00 0. -1.
         22    1    3    3    0    0 -0.23882062967E+02 -0.75561499578E+02 -0.19725651671E+02  0.81663911759E+02  0.00000000000E+00 0. -1.
         22    1    3    3    0    0 -0.66931557758E+02 -0.27248663521E+01  0.74066807008E+02  0.99865660870E+02  0.00000000000E+00 0. -1.
</event>
<event>
 7    1  0.6273950E-006  0.1122457E+03  0.7818608E-02  0.1357502E+00
          2   -1    0    0  502    0  0.00000000000E+00  0.00000000000E+00  0.46484182496E+03  0.46484182496E+03  0.00000000000E+00 0. -1.
          1   -1    0    0  501    0 -0.00000000000E+00 -0.00000000000E+00 -0.26257954867E+03  0.26257954867E+03  0.00000000000E+00 0. -1.
         25    2    1    2    0    0 -0.56330589187E+02  0.67796604935E+02  0.30103242178E+03  0.33765651359E+03  0.12498754853E+03 0.  0.
          2    1    1    2  501    0  0.36147659855E+02 -0.10758746061E+03 -0.22710982029E+03  0.25389089284E+03  0.00000000000E+00 0. -1.
          1    1    1    2  502    0  0.20182929332E+02  0.39790855679E+02  0.12833967480E+03  0.13587396719E+03  0.00000000000E+00 0. -1.
         22    1    3    3    0    0  0.23591115023E+02  0.55343628780E+02  0.67032619656E+02  0.90071249866E+02  0.00000000000E+00 0. -1.
         22    1    3    3    0    0 -0.79921704211E+02  0.12452976155E+02  0.23399980213E+03  0.24758526372E+03  0.00000000000E+00 0. -1.
</event>
<event>
 7    1  0.6273950E-006  0.9910707E+02  0.7818608E-02  0.1355746E+00
          2   -1    0    0  502    0  0.00000000000E+00  0.00000000000E+00  0.56974879841E+03  0.56974879841E+03  0.00000000000E+00 0. -1.
          1   -1    0    0  501    0 -0.00000000000E+00 -0.00000000000E+00 -0.16888198460E+03  0.16888198460E+03  0.00000000000E+00 0. -1.
         25    2    1    2    0    0 -0.85669683764E+02 -0.74580388598E+02 -0.78853303702E+02  0.18639896471E+03  0.12500080584E+03 0.  0.
          2    1    1    2  501    0  0.48345238233E+02 -0.17119136401E+02 -0.10299506861E+02  0.52310675129E+02  0.00000000000E+00 0. -1.
          1    1    1    2  502    0  0.37324445531E+02  0.91699524999E+02  0.49001962437E+03  0.49992114317E+03  0.00000000000E+00 0. -1.
         22    1    3    3    0    0  0.29420230651E+02  0.49842682280E-01 -0.26445810901E+02  0.39559238745E+02  0.00000000000E+00 0. -1.
         22    1    3    3    0    0 -0.11508991441E+03 -0.74630231280E+02 -0.52407492801E+02  0.14683972597E+03  0.00000000000E+00 0. -1.
</event>
<event>
 7    1  0.6273950E-006  0.4194881E+02  0.7818608E-02  0.1514781E+00
          2   -1    0    0  502    0  0.00000000000E+00  0.00000000000E+00  0.32627540282E+02  0.32627540282E+02  0.00000000000E+00 0. -1.
          1   -1    0    0  501    0 -0.00000000000E+00 -0.00000000000E+00 -0.85394062866E+03  0.85394062866E+03  0.00000000000E+00 0. -1.
         25    2    1    2    0    0 -0.21672731403E+02  0.39206267366E+02 -0.20114447174E+03  0.24102013644E+03  0.12499907589E+03 0.  0.
          2    1    1    2  501    0  0.36427782179E+02  0.20208139144E+01 -0.59277640998E+03  0.59389808826E+03  0.00000000000E+00 0. -1.
          1    1    1    2  502    0 -0.14755050776E+02 -0.41227081280E+02 -0.27392206654E+02  0.51649944237E+02  0.00000000000E+00 0. -1.
         22    1    3    3    0    0  0.10795329641E+02  0.51849425070E+02 -0.20090347188E+02  0.56643835254E+02  0.00000000000E+00 0. -1.
         22    1    3    3    0    0 -0.32468061044E+02 -0.12643157704E+02 -0.18105412455E+03  0.18437630119E+03  0.00000000000E+00 0. -1.
</event>
<event>
 7    1  0.6273950E-006  0.1074161E+03  0.7818608E-02  0.1305727E+00
          2   -1    0    0  502    0  0.00000000000E+00  0.00000000000E+00  0.31956522250E+03  0.31956522250E+03  0.00000000000E+00 0. -1.
          1   -1    0    0  501    0 -0.00000000000E+00 -0.00000000000E+00 -0.51831287752E+03  0.51831287752E+03  0.00000000000E+00 0. -1.
         25    2    1    2    0    0  0.20596435618E+02  0.48104406102E+02 -0.74914728043E+02  0.15484114942E+03  0.12500127211E+03 0.  0.
          2    1    1    2  501    0 -0.81882673350E+02 -0.88584977377E+02 -0.38931811670E+03  0.40757903086E+03  0.00000000000E+00 0. -1.
          1    1    1    2  502    0  0.61286237732E+02  0.40480571275E+02  0.26548518972E+03  0.27545791974E+03  0.00000000000E+00 0. -1.
         22    1    3    3    0    0  0.59389607523E+02  0.42705034346E+02 -0.87175450403E+02  0.11379984443E+03  0.00000000000E+00 0.  1.
         22    1    3    3    0    0 -0.38793171905E+02  0.53993717565E+01  0.12260722360E+02  0.41041304982E+02  0.00000000000E+00 0.  1.
</event>
<event>
 7    1  0.6273950E-006  0.1207625E+03  0.7818608E-02  0.1335532E+00
          2   -1    0    0  502    0  0.00000000000E+00  0.00000000000E+00  0.13344967409E+04  0.13344967409E+04  0.00000000000E+00 0. -1.
          1   -1    0    0  501    0 -0.00000000000E+00 -0.00000000000E+00 -0.62505889027E+03  0.62505889027E+03  0.00000000000E+00 0. -1.
         25    2    1    2    0    0 -0.69238412016E+02 -0.16895622029E+02  0.51788849028E+03  0.53750468349E+03  0.12499350649E+03 0.  0.
          2    1    1    2  501    0  0.11746734492E+03  0.30347875529E+02 -0.60847940779E+03  0.62045689647E+03  0.00000000000E+00 0. -1.
          1    1    1    2  502    0 -0.48228932908E+02 -0.13452253500E+02  0.80002876817E+03  0.80159405125E+03  0.00000000000E+00 0. -1.
         22    1    3    3    0    0 -0.85859233576E+02  0.23915461785E+02  0.43056073131E+03  0.43968886801E+03  0.00000000000E+00 0. -1.
         22    1    3    3    0    0  0.16620821560E+02 -0.40811083814E+02  0.87327758969E+02  0.97815815479E+02  0.00000000000E+00 0. -1.
</event>
<event>
 7    1  0.6273950E-006  0.5354096E+02  0.7818608E-02  0.1527488E+00
          2   -1    0    0  502    0  0.00000000000E+00  0.00000000000E+00  0.16183315117E+04  0.16183315117E+04  0.00000000000E+00 0. -1.
          1   -1    0    0  501    0 -0.00000000000E+00 -0.00000000000E+00 -0.28685979838E+02  0.28685979838E+02  0.00000000000E+00 0. -1.
         25    2    1    2    0    0 -0.22170921156E+02 -0.62042190336E+02  0.90817301011E+03  0.91909956291E+03  0.12500002854E+03 0.  0.
          2    1    1    2  501    0  0.35714861712E+02  0.39544641128E+02  0.79399906043E+01  0.53873680400E+02  0.00000000000E+00 0. -1.
          1    1    1    2  502    0 -0.13543940556E+02  0.22497549208E+02  0.67353253116E+03  0.67404424823E+03  0.00000000000E+00 0. -1.
         22    1    3    3    0    0  0.15752713499E+02  0.30265925242E+01  0.12685807126E+02  0.20450866665E+02  0.00000000000E+00 0.  1.
         22    1    3    3    0    0 -0.37923634655E+02 -0.65068782860E+02  0.89548720298E+03  0.89864869625E+03  0.00000000000E+00 0.  1.
</event>
<event>
 7    1  0.6273950E-006  0.7073755E+02  0.7818608E-02  0.1390752E+00
          2   -1    0    0  502    0  0.00000000000E+00  0.00000000000E+00  0.27004943398E+04  0.27004943398E+04  0.00000000000E+00 0. -1.
          1   -1    0    0  501    0 -0.00000000000E+00 -0.00000000000E+00 -0.32640990303E+02  0.32640990303E+02  0.00000000000E+00 0. -1.
         25    2    1    2    0    0 -0.95884644633E+02  0.63784202889E+02  0.13871974187E+04  0.13975712136E+04  0.12500531491E+03 0.  0.
          2    1    1    2  501    0  0.67026537777E+02 -0.18317083119E+02  0.18023554182E+02  0.71783847805E+02  0.00000000000E+00 0. -1.
          1    1    1    2  502    0  0.28858106856E+02 -0.45467119769E+02  0.12626323765E+04  0.12637802687E+04  0.00000000000E+00 0. -1.
         22    1    3    3    0    0 -0.10666981489E+03  0.90305920792E+02  0.10711411658E+04  0.10802208134E+04  0.00000000000E+00 0. -1.
         22    1    3    3    0    0  0.10785170258E+02 -0.26521717903E+02  0.31605625299E+03  0.31735040014E+03  0.00000000000E+00 0. -1.
</event>
<event>
 7    1  0.6273950E-006  0.6716814E+02  0.7818608E-02  0.1382235E+00
          2   -1    0    0  502    0  0.00000000000E+00  0.00000000000E+00  0.81642994528E+03  0.81642994528E+03  0.00000000000E+00 0. -1.
          1   -1    0    0  501    0 -0.00000000000E+00 -0.00000000000E+00 -0.27143140000E+02  0.27143140000E+02  0.00000000000E+00 0. -1.
         25    2    1    2    0    0 -0.53168570494E+02 -0.54492704607E+02  0.35768164952E+03  0.38646791987E+03  0.12499975575E+03 0.  0.
          2    1    1    2  501    0  0.70707358164E+02 -0.36734251721E+01  0.11753738097E+03  0.13721537989E+03  0.00000000000E+00 0. -1.
          1    1    1    2  502    0 -0.17538787670E+02  0.58166129780E+02  0.31406777478E+03  0.31988978552E+03  0.00000000000E+00 0. -1.
         22    1    3    3    0    0 -0.58255485400E+02 -0.87230429698E+02  0.31755866167E+03  0.33443437778E+03  0.00000000000E+00 0. -1.
         22    1    3    3    0    0  0.50869149053E+01  0.32737725091E+02  0.40122987857E+02  0.52033542085E+02  0.00000000000E+00 0. -1.
</event>
<event>
 7    1  0.6273950E-006  0.5138046E+02  0.7818608E-02  0.1542904E+00
          2   -1    0    0  502    0  0.00000000000E+00  0.00000000000E+00  0.89196017204E+03  0.89196017204E+03  0.00000000000E+00 0. -1.
          1   -1    0    0  501    0 -0.00000000000E+00 -0.00000000000E+00 -0.60056686495E+02  0.60056686495E+02  0.00000000000E+00 0. -1.
         25    2    1    2    0    0  0.69382598010E+02 -0.24656305305E+02  0.22635732233E+03  0.26885763590E+03  0.12499965083E+03 0.  0.
          2    1    1    2  501    0 -0.24695288774E+02  0.14065710985E+01 -0.33770950449E+02  0.41860635735E+02  0.00000000000E+00 0. -1.
          1    1    1    2  502    0 -0.44687309236E+02  0.23249734206E+02  0.63931711366E+03  0.64129858691E+03  0.00000000000E+00 0. -1.
         22    1    3    3    0    0  0.26704489127E+02  0.50554149872E+02  0.10895582636E+03  0.12304561718E+03  0.00000000000E+00 0. -1.
         22    1    3    3    0    0  0.42678108882E+02 -0.75210455177E+02  0.11740149597E+03  0.14581201872E+03  0.00000000000E+00 0. -1.
</event>
<event>
 7    1  0.6273950E-006  0.5927292E+02  0.7818608E-02  0.1456274E+00
          2   -1    0    0  502    0  0.00000000000E+00  0.00000000000E+00  0.48115760635E+03  0.48115760635E+03  0.00000000000E+00 0. -1.
          1   -1    0    0  501    0 -0.00000000000E+00 -0.00000000000E+00 -0.11926441495E+04  0.11926441495E+04  0.00000000000E+00 0. -1.
         25    2    1    2    0    0 -0.16417935137E+02  0.74025858123E+02 -0.87357323060E+01  0.14646367590E+03  0.12500367625E+03 0.  0.
          2    1    1    2  501    0  0.34609054625E+02 -0.17798147229E+02 -0.11125847663E+04  0.11132652078E+04  0.00000000000E+00 0. -1.
          1    1    1    2  502    0 -0.18191119488E+02 -0.56227710894E+02  0.40983395552E+03  0.41407287208E+03  0.00000000000E+00 0. -1.
         22    1    3    3    0    0 -0.50265222757E+02  0.93819046375E+02 -0.69650041977E+00  0.10643820364E+03  0.00000000000E+00 0. -1.
         22    1    3    3    0    0  0.33847287620E+02 -0.19793188252E+02 -0.80392318862E+01  0.40025472261E+02  0.00000000000E+00 0. -1.
</event>
<event>
 7    1  0.6273950E-006  0.4526173E+02  0.7818608E-02  0.1571406E+00
          2   -1    0    0  502    0  0.00000000000E+00  0.00000000000E+00  0.21676355709E+03  0.21676355709E+03  0.00000000000E+00 0. -1.
          1   -1    0    0  501    0 -0.00000000000E+00 -0.00000000000E+00 -0.27646440584E+03  0.27646440584E+03  0.00000000000E+00 0. -1.
         25    2    1    2    0    0 -0.41388775001E+02 -0.48426432694E+02 -0.87120356225E+02  0.16514526816E+03  0.12499941218E+03 0.  0.
          2    1    1    2  501    0  0.22043809154E+02  0.79157009668E+01 -0.14655225722E+03  0.14841210173E+03  0.00000000000E+00 0. -1.
          1    1    1    2  502    0  0.19344965847E+02  0.40510731727E+02  0.17397176470E+03  0.17967059303E+03  0.00000000000E+00 0. -1.
         22    1    3    3    0    0  0.58055968803E+01 -0.68737026592E+02 -0.61579714057E+01  0.69256078374E+02  0.00000000000E+00 0. -1.
         22    1    3    3    0    0 -0.47194371882E+02  0.20310593898E+02 -0.80962384819E+02  0.95889189784E+02  0.00000000000E+00 0. -1.
</event>
<event>
 7    1  0.6273950E-006  0.1072665E+03  0.7818608E-02  0.1290988E+00
          2   -1    0    0  502    0  0.00000000000E+00  0.00000000000E+00  0.75875063097E+03  0.75875063097E+03  0.00000000000E+00 0. -1.
          1   -1    0    0  501    0 -0.00000000000E+00 -0.00000000000E+00 -0.65032529302E+03  0.65032529302E+03  0.00000000000E+00 0. -1.
         25    2    1    2    0    0 -0.57371532174E+02  0.15198270653E+03 -0.27000645863E+03  0.33899661373E+03  0.12499992253E+03 0.  0.
          2    1    1    2  501    0  0.70612351956E+02 -0.46019124706E+02 -0.33666397530E+03  0.34705402512E+03  0.00000000000E+00 0. -1.
          1    1    1    2  502    0 -0.13240819782E+02 -0.10596358183E+03  0.71509577188E+03  0.72302528514E+03  0.00000000000E+00 0. -1.
         22    1    3    3    0    0 -0.80892943334E+02  0.15828822715E+03 -0.21590602686E+03  0.27966809537E+03  0.00000000000E+00 0.  1.
         22    1    3    3    0    0  0.23521411160E+02 -0.63055206160E+01 -0.54100431770E+02  0.59328518361E+02  0.00000000000E+00 0.  1.
</event>
<event>
 7    1  0.6273950E-006  0.4413521E+02  0.7818608E-02  0.1495386E+00
          2   -1    0    0  502    0  0.00000000000E+00  0.00000000000E+00  0.40277841623E+02  0.40277841623E+02  0.00000000000E+00 0. -1.
          1   -1    0    0  501    0 -0.00000000000E+00 -0.00000000000E+00 -0.59586897684E+03  0.59586897684E+03  0.00000000000E+00 0. -1.
         25    2    1    2    0    0 -0.47199984046E+01 -0.22366323498E+02 -0.39001070130E+03  0.41019064337E+03  0.12500194384E+03 0.  0.
          2    1    1    2  501    0  0.42406612509E+02  0.34473198745E+02 -0.17660369200E+03  0.18486640107E+03  0.00000000000E+00 0. -1.
          1    1    1    2  502    0 -0.37686614105E+02 -0.12106875247E+02  0.11023258085E+02  0.41089774029E+02  0.00000000000E+00 0. -1.
         22    1    3    3    0    0 -0.60159794296E+02 -0.30885391643E+02 -0.16558263835E+03  0.17885949343E+03  0.00000000000E+00 0. -1.
         22    1    3    3    0    0  0.55439795891E+02  0.85190681453E+01 -0.22442806296E+03  0.23133114994E+03  0.00000000000E+00 0. -1.
</event>
<event>
 7    1  0.6273950E-006  0.1110835E+03  0.7818608E-02  0.1383965E+00
          2   -1    0    0  502    0  0.00000000000E+00  0.00000000000E+00  0.27391383070E+03  0.27391383070E+03  0.00000000000E+00 0. -1.
          1   -1    0    0  501    0 -0.00000000000E+00 -0.00000000000E+00 -0.13549301383E+03  0.13549301383E+03  0.00000000000E+00 0. -1.
         25    2    1    2    0    0 -0.50347606399E+02 -0.82812151675E+02  0.11258477669E+03  0.19414741465E+03  0.12500061095E+03 0.  0.
          2    1    1    2  501    0  0.10868273830E+02 -0.34553585032E+02 -0.56099841946E+02  0.66777704969E+02  0.00000000000E+00 0. -1.
          1    1    1    2  502    0  0.39479332569E+02  0.11736573671E+03  0.81935882125E+02  0.14848172491E+03  0.00000000000E+00 0. -1.
         22    1    3    3    0    0 -0.46457377106E+02 -0.27827677731E+02 -0.14126034325E+02  0.55966171758E+02  0.00000000000E+00 0.  1.
         22    1    3    3    0    0 -0.38902292928E+01 -0.54984473945E+02  0.12671081101E+03  0.13818124289E+03  0.00000000000E+00 0.  1.
</event>
<event>
 7    1  0.6273950E-006  0.1088569E+03  0.7818608E-02  0.1402185E+00
          2   -1    0    0  502    0  0.00000000000E+00  0.00000000000E+00  0.13165189164E+04  0.13165189164E+04  0.00000000000E+00 0. -1.
          1   -1    0    0  501    0 -0.00000000000E+00 -0.00000000000E+00 -0.51874960841E+02  0.51874960841E+02  0.00000000000E+00 0. -1.
         25    2    1    2    0    0  0.58210312075E+02  0.70306552247E+02  0.39690322980E+03  0.42601458991E+03  0.12499922108E+03 0.  0.
          2    1    1    2  501    0 -0.69900854478E+01  0.31176462866E+02 -0.26151198201E+02  0.41288234386E+02  0.00000000000E+00 0. -1.
          1    1    1    2  502    0 -0.51220226627E+02 -0.10148301511E+03  0.89389192394E+03  0.90109105292E+03  0.00000000000E+00 0. -1.
         22    1    3    3    0    0  0.55790717063E+02  0.10442999854E+03  0.27505530315E+03  0.29945558685E+03  0.00000000000E+00 0.  1.
         22    1    3    3    0    0  0.24195950119E+01 -0.34123446292E+02  0.12184792665E+03  0.12655900306E+03  0.00000000000E+00 0.  1.
</event>
<event>
 7    1  0.6273950E-006  0.1516275E+03  0.7818608E-02  0.1228980E+00
          2   -1    0    0  502    0  0.00000000000E+00  0.00000000000E+00  0.29569488138E+04  0.29569488138E+04  0.00000000000E+00 0. -1.
          1   -1    0    0  501    0 -0.00000000000E+00 -0.00000000000E+00 -0.88026820433E+03  0.88026820433E+03  0.00000000000E+00 0. -1.
         25    2    1    2    0    0  0.17954570570E+03  0.32409588916E+02 -0.24388978581E+02  0.22248861619E+03  0.12497727861E+03 0.  0.
          2    1    1    2  501    0 -0.13569492236E+03  0.68158280343E+02 -0.74814614595E+03  0.76340115198E+03  0.00000000000E+00 0. -1.
          1    1    1    2  502    0 -0.43850783339E+02 -0.10056786926E+03  0.28492157340E+04  0.28513272500E+04  0.00000000000E+00 0. -1.
         22    1    3    3    0    0  0.74876835090E+02  0.44509615795E+02  0.43277821816E+02  0.97265698951E+02  0.00000000000E+00 0. -1.
         22    1    3    3    0    0  0.10466887061E+03 -0.12100026880E+02 -0.67666800398E+02  0.12522291724E+03  0.00000000000E+00 0. -1.
</event>
<event>
 7    1  0.1050908E-005  0.6964385E+02  0.7818608E-02  0.1486304E+00
          2   -1    0    0  502    0  0.00000000000E+00  0.00000000000E+00  0.23663420556E+04  0.23663420556E+04  0.00000000000E+00 0. -1.
          1   -1    0    0  501    0 -0.00000000000E+00 -0.00000000000E+00 -0.69019836227E+03  0.69019836227E+03  0.00000000000E+00 0. -1.
         25    2    1    2    0    0  0.47018719805E+02 -0.76917731079E+02 -0.38065321823E+03  0.41066980704E+03  0.12500288197E+03 0.  0.
          2    1    1    2  501    0  0.11952931710E+01  0.26694881838E+02 -0.29341424128E+03  0.29462851598E+03  0.00000000000E+00 0. -1.
          1    1    1    2  502    0 -0.48214012976E+02  0.50222849241E+02  0.23502111528E+04  0.23512420948E+04  0.00000000000E+00 0. -1.
         22    1    3    3    0    0  0.83751774473E+02 -0.19587936913E+02 -0.21568121964E+03  0.23219912900E+03  0.00000000000E+00 0.  1.
         22    1    3    3    0    0 -0.36733054668E+02 -0.57329794167E+02 -0.16497199859E+03  0.17847067805E+03  0.00000000000E+00 0.  1.
</event>
<event>
 7    1  0.6273950E-006  0.2099779E+03  0.7818608E-02  0.1234611E+00
          2   -1    0    0  502    0  0.00000000000E+00  0.00000000000E+00  0.57721621547E+03  0.57721621547E+03  0.00000000000E+00 0. -1.
          1   -1    0    0  501    0 -0.00000000000E+00 -0.00000000000E+00 -0.58907690144E+03  0.58907690144E+03  0.00000000000E+00 0. -1.
         25    2    1    2    0    0 -0.11043630004E+03 -0.95164139055E+02  0.11389467185E+03  0.22327012053E+03  0.12500064286E+03 0.  0.
          2    1    1    2  501    0  0.17831051050E+03  0.12650956995E+03 -0.50825606607E+03  0.55328431945E+03  0.00000000000E+00 0. -1.
          1    1    1    2  502    0 -0.67874210460E+02 -0.31345430896E+02  0.38250070825E+03  0.38973867693E+03  0.00000000000E+00 0. -1.
         22    1    3    3    0    0 -0.99255067743E+02 -0.11682367329E+03  0.60919541967E+02  0.16495614480E+03  0.00000000000E+00 0. -1.
         22    1    3    3    0    0 -0.11181232299E+02  0.21659534235E+02  0.52975129885E+02  0.58313975729E+02  0.00000000000E+00 0. -1.
</event>
<event>
 7    1  0.6273950E-006  0.1447936E+03  0.7818608E-02  0.1290548E+00
          2   -1    0    0  502    0  0.00000000000E+00  0.00000000000E+00  0.23161201455E+04  0.23161201455E+04  0.00000000000E+00 0. -1.
          1   -1    0    0  501    0 -0.00000000000E+00 -0.00000000000E+00 -0.20255670613E+03  0.20255670613E+03  0.00000000000E+00 0. -1.
         25    2    1    2    0    0  0.70979430634E+02  0.71142793400E+02  0.31157546986E+03  0.35043623736E+03  0.12500762542E+03 0.  0.
          2    1    1    2  501    0 -0.66543279919E+02 -0.13368307478E+03 -0.15209738693E+03  0.21314968378E+03  0.00000000000E+00 0. -1.
          1    1    1    2  502    0 -0.44361507148E+01  0.62540281380E+02  0.19540853565E+04  0.19550909305E+04  0.00000000000E+00 0. -1.
         22    1    3    3    0    0  0.62638517183E+02  0.45912992104E+02  0.61800223849E+02  0.99251470249E+02  0.00000000000E+00 0. -1.
         22    1    3    3    0    0  0.83409134507E+01  0.25229801297E+02  0.24977524601E+03  0.25118476711E+03  0.00000000000E+00 0. -1.
</event>
<event>
 7    1  0.6273950E-006  0.1685046E+03  0.7818608E-02  0.1332635E+00
          2   -1    0    0  502    0  0.00000000000E+00  0.00000000000E+00  0.13171921307E+04  0.13171921307E+04  0.00000000000E+00 0. -1.
          1   -1    0    0  501    0 -0.00000000000E+00 -0.00000000000E+00 -0.18094738932E+04  0.18094738932E+04  0.00000000000E+00 0. -1.
         25    2    1    2    0    0  0.11482280404E+03 -0.10732663163E+03 -0.17186855806E+03  0.26432480916E+03  0.12500208519E+03 0.  0.
          2    1    1    2  501    0 -0.14574924550E+03  0.87374092554E+02 -0.15865725603E+04  0.15956470674E+04  0.00000000000E+00 0. -1.
          1    1    1    2  502    0  0.30926441459E+02  0.19952539078E+02  0.12661593559E+04  0.12666941474E+04  0.00000000000E+00 0. -1.
         22    1    3    3    0    0  0.11558644245E+03 -0.12749429352E+03 -0.17312312116E+03  0.24410373950E+03  0.00000000000E+00 0. -1.
         22    1    3    3    0    0 -0.76363841217E+00  0.20167661884E+02  0.12545630997E+01  0.20221069656E+02  0.00000000000E+00 0. -1.
</event>
<event>
 7    1  0.6273950E-006  0.5501207E+02  0.7818608E-02  0.1455707E+00
          2   -1    0    0  502    0  0.00000000000E+00  0.00000000000E+00  0.63470289352E+03  0.63470289352E+03  0.00000000000E+00 0. -1.
          1   -1    0    0  501    0 -0.00000000000E+00 -0.00000000000E+00 -0.15242931081E+03  0.15242931081E+03  0.00000000000E+00 0. -1.
         25    2    1    2    0    0  0.54422759660E+02 -0.74911390467E+02  0.11304068696E+03  0.19229264274E+03  0.12499884141E+03 0.  0.
          2    1    1    2  501    0 -0.33521757375E+02  0.25479280409E+02 -0.10731465895E+03  0.11527939093E+03  0.00000000000E+00 0. -1.
          1    1    1    2  502    0 -0.20901002285E+02  0.49432110058E+02  0.47654755469E+03  0.47956017066E+03  0.00000000000E+00 0. -1.
         22    1    3    3    0    0  0.38116552315E+02 -0.10987823405E+03  0.92382027916E+02  0.14852789960E+03  0.00000000000E+00 0.  1.
         22    1    3    3    0    0  0.16306207345E+02  0.34966843587E+02  0.20658659048E+02  0.43764743139E+02  0.00000000000E+00 0.  1.
</event>
<event>
 7    1  0.6868239E-006  0.1149761E+03  0.7818608E-02  0.1334206E+00
          2   -1    0    0  502    0  0.00000000000E+00  0.00000000000E+00  0.22580499141E+04  0.22580499141E+04  0.00000000000E+00 0. -1.
          1   -1    0    0  501    0 -0.00000000000E+00 -0.00000000000E+00 -0.10888505467E+04  0.10888505467E+04  0.00000000000E+00 0. -1.
         25    2    1    2    0    0 -0.20939066884E+02 -0.14240007834E+03 -0.18726605934E+03  0.26722600039E+03  0.12499972587E+03 0.  0.
          2    1    1    2  501    0 -0.21891343794E+02  0.11084034516E+03 -0.85757979464E+03  0.86499012551E+03  0.00000000000E+00 0. -1.
          1    1    1    2  502    0  0.42830410678E+02  0.31559733180E+02  0.22140452214E+04  0.22146843349E+04  0.00000000000E+00 0. -1.
         22    1    3    3    0    0 -0.66171420630E+01 -0.63183354352E+02 -0.17451856884E+03  0.18572197960E+03  0.00000000000E+00 0.  1.
         22    1    3    3    0    0 -0.14321924821E+02 -0.79216723991E+02 -0.12747490500E+02  0.81504020787E+02  0.00000000000E+00 0.  1.
</event>
<event>
 7    1  0.6273950E-006  0.1924532E+03  0.7818608E-02  0.1293487E+00
          2   -1    0    0  502    0  0.00000000000E+00  0.00000000000E+00  0.89626110089E+03  0.89626110089E+03  0.00000000000E+00 0. -1.
          1   -1    0    0  501    0 -0.00000000000E+00 -0.00000000000E+00 -0.82472458015E+03  0.82472458015E+03  0.00000000000E+00 0. -1.
         25    2    1    2    0    0 -0.11589096035E+03  0.19717091095E+03  0.13608847799E+03  0.29402727622E+03  0.12499953003E+03 0.  0.
          2    1    1    2  501    0  0.75853897507E+02 -0.17473620647E+03 -0.73279089284E+03  0.75714532835E+03  0.00000000000E+00 0. -1.
          1    1    1    2  502    0  0.40037062839E+02 -0.22434704483E+02  0.66823893559E+03  0.66981307646E+03  0.00000000000E+00 0. -1.
         22    1    3    3    0    0 -0.26629628391E+02  0.11198353007E+03  0.67958891659E+01  0.11530668768E+03  0.00000000000E+00 0.  1.
         22    1    3    3    0    0 -0.89261331955E+02  0.85187380883E+02  0.12929258883E+03  0.17872058854E+03  0.00000000000E+00 0.  1.
</event>
<event>
 7    1  0.7537736E-006  0.8200078E+02  0.7818608E-02  0.1391306E+00
          2   -1    0    0  502    0  0.00000000000E+00  0.00000000000E+00  0.88138216308E+03  0.88138216308E+03  0.00000000000E+00 0. -1.
          1   -1    0    0  501    0 -0.00000000000E+00 -0.00000000000E+00 -0.18091141918E+04  0.18091141918E+04  0.00000000000E+00 0. -1.
         25    2    1    2    0    0 -0.86886653381E+02 -0.19131740853E+02 -0.25007537925E+03  0.29339050179E+03  0.12499990874E+03 0.  0.
          2    1    1    2  501    0  0.27339187982E+02 -0.37303594884E+02 -0.15350749159E+04  0.15357714631E+04  0.00000000000E+00 0. -1.
          1    1    1    2  502    0  0.59547465400E+02  0.56435335738E+02  0.85741826645E+03  0.86133439000E+03  0.00000000000E+00 0. -1.
         22    1    3    3    0    0 -0.71482135704E+02 -0.42197779641E+02 -0.25226127070E+03  0.26556749994E+03  0.00000000000E+00 0. -1.
         22    1    3    3    0    0 -0.15404517677E+02  0.23066038787E+02  0.21858914442E+01  0.27823001844E+02  0.00000000000E+00 0. -1.
</event>
<event>
 7    1  0.6273950E-006  0.2455530E+03  0.7818608E-02  0.1266537E+00
          2   -1    0    0  502    0  0.00000000000E+00  0.00000000000E+00  0.84749691291E+03  0.84749691291E+03  0.00000000000E+00 0. -1.
          1   -1    0    0  501    0 -0.00000000000E+00 -0.00000000000E+00 -0.21154142167E+04  0.21154142167E+04  0.00000000000E+00 0. -1.
         25    2    1    2    0    0  0.79457229750E+02 -0.24997741544E+03 -0.23696378360E+03  0.37493883901E+03  0.12500055468E+03 0.  0.
          2    1    1    2  501    0 -0.33731390688E+02  0.24160808877E+03 -0.18005360181E+04  0.18169871292E+04  0.00000000000E+00 0. -1.
          1    1    1    2  502    0 -0.45725839063E+02  0.83693266709E+01  0.76958249790E+03  0.77098516138E+03  0.00000000000E+00 0. -1.
         22    1    3    3    0    0  0.88568655351E+02 -0.25056096385E+03 -0.18898471467E+03  0.32609879744E+03  0.00000000000E+00 0.  1.
         22    1    3    3    0    0 -0.91114256007E+01  0.58354840353E+00 -0.47979068929E+02  0.48840041570E+02  0.00000000000E+00 0.  1.
</event>
<event>
 7    1  0.6273950E-006  0.5088453E+02  0.7818608E-02  0.1486293E+00
          2   -1    0    0  502    0  0.00000000000E+00  0.00000000000E+00  0.19906245669E+03  0.19906245669E+03  0.00000000000E+00 0. -1.
          1   -1    0    0  501    0 -0.00000000000E+00 -0.00000000000E+00 -0.75121205416E+03  0.75121205416E+03  0.00000000000E+00 0. -1.
         25    2    1    2    0    0 -0.51855764683E+02  0.79728793203E+01  0.95671966172E+02  0.16592322641E+03  0.12499921926E+03 0.  0.
          2    1    1    2  501    0  0.64399725421E+01 -0.36004162775E+02 -0.70510825802E+03  0.70605625024E+03  0.00000000000E+00 0. -1.
          1    1    1    2  502    0  0.45415792141E+02  0.28031283454E+02  0.57286694379E+02  0.78295034202E+02  0.00000000000E+00 0. -1.
         22    1    3    3    0    0  0.28737289336E+02 -0.24796931741E+01  0.77436934804E+02  0.82634493696E+02  0.00000000000E+00 0.  1.
         22    1    3    3    0    0 -0.80593054019E+02  0.10452572494E+02  0.18235031369E+02  0.83288732712E+02  0.00000000000E+00 0.  1.
</event>
<event>
 7    1  0.6273950E-006  0.4240963E+02  0.7818608E-02  0.1565251E+00
          2   -1    0    0  502    0  0.00000000000E+00  0.00000000000E+00  0.13825002869E+03  0.13825002869E+03  0.00000000000E+00 0. -1.
          1   -1    0    0  501    0 -0.00000000000E+00 -0.00000000000E+00 -0.32722246342E+03  0.32722246342E+03  0.00000000000E+00 0. -1.
         25    2    1    2    0    0  0.52704132444E+02  0.27949683983E+02 -0.10566969661E+03  0.17421318827E+03  0.12500095910E+03 0.  0.
          2    1    1    2  501    0 -0.41240031320E+02 -0.46351074598E+01 -0.18330152427E+03  0.18794061084E+03  0.00000000000E+00 0. -1.
          1    1    1    2  502    0 -0.11464101124E+02 -0.23314576523E+02  0.99998786141E+02  0.10331869300E+03  0.00000000000E+00 0. -1.
         22    1    3    3    0    0 -0.17245087329E+02 -0.38267171112E+02 -0.27690816983E+02  0.50284697146E+02  0.00000000000E+00 0.  1.
         22    1    3    3    0    0  0.69949219773E+02  0.66216855095E+02 -0.77978879627E+02  0.12392849113E+03  0.00000000000E+00 0.  1.
</event>
<event>
 7    1  0.6273950E-006  0.6633306E+02  0.7818608E-02  0.1378813E+00
          2   -1    0    0  502    0  0.00000000000E+00  0.00000000000E+00  0.65915298616E+03  0.65915298616E+03  0.00000000000E+00 0. -1.
          1   -1    0    0  501    0 -0.00000000000E+00 -0.00000000000E+00 -0.16192381365E+04  0.16192381365E+04  0.00000000000E+00 0. -1.
         25    2    1    2    0    0  0.94298852503E+02 -0.89986556463E+00  0.20411736096E+02  0.15790731445E+03  0.12499999057E+03 0.  0.
          2    1    1    2  501    0 -0.48816943655E+02  0.44864427576E+02 -0.15480235037E+04  0.15494426994E+04  0.00000000000E+00 0. -1.
          1    1    1    2  502    0 -0.45481908848E+02 -0.43964562012E+02  0.56752661720E+03  0.57104110883E+03  0.00000000000E+00 0. -1.
         22    1    3    3    0    0  0.10269728484E+02  0.33544812983E+02  0.51156077900E+02  0.62029558336E+02  0.00000000000E+00 0.  1.
         22    1    3    3    0    0  0.84029124019E+02 -0.34444678548E+02 -0.30744341805E+02  0.95877756110E+02  0.00000000000E+00 0.  1.
</event>
<event>
 7    1  0.6273950E-006  0.3392678E+02  0.7818608E-02  0.1571816E+00
          2   -1    0    0  502    0  0.00000000000E+00  0.00000000000E+00  0.83923196779E+03  0.83923196779E+03  0.00000000000E+00 0. -1.
          1   -1    0    0  501    0 -0.00000000000E+00 -0.00000000000E+00 -0.29195750114E+02  0.29195750114E+02  0.00000000000E+00 0. -1.
         25    2    1    2    0    0  0.30280812162E+02 -0.72603567022E+01  0.29377883385E+03  0.32078151617E+03  0.12500055013E+03 0.  0.
          2    1    1    2  501    0 -0.25811144075E+02 -0.23584942700E+02  0.48599786402E+01  0.35299916048E+02  0.00000000000E+00 0. -1.
          1    1    1    2  502    0 -0.44696680877E+01  0.30845299402E+02  0.51139740519E+03  0.51234628569E+03  0.00000000000E+00 0. -1.
         22    1    3    3    0    0  0.45704757517E+02  0.10066807350E+01  0.26320660148E+02  0.52751449425E+02  0.00000000000E+00 0. -1.
         22    1    3    3    0    0 -0.15423945355E+02 -0.82670374372E+01  0.26745817370E+03  0.26803006674E+03  0.00000000000E+00 0. -1.
</event>
<event>
 7    1  0.6273950E-006  0.9183014E+02  0.7818608E-02  0.1419715E+00
          2   -1    0    0  502    0  0.00000000000E+00  0.00000000000E+00  0.26483475179E+03  0.26483475179E+03  0.00000000000E+00 0. -1.
          1   -1    0    0  501    0 -0.00000000000E+00 -0.00000000000E+00 -0.65238131145E+03  0.65238131145E+03  0.00000000000E+00 0. -1.
         25    2    1    2    0    0  0.69723565274E+02 -0.36877075856E+02 -0.46150312279E+03  0.48459708599E+03  0.12501163596E+03 0.  0.
          2    1    1    2  501    0 -0.95460646511E+02  0.57593025897E+02 -0.16073378996E+03  0.19561452630E+03  0.00000000000E+00 0. -1.
          1    1    1    2  502    0  0.25737081236E+02 -0.20715950041E+02  0.23469035309E+03  0.23700445095E+03  0.00000000000E+00 0. -1.
         22    1    3    3    0    0 -0.24422661828E+02 -0.31769265781E+02 -0.59850904887E+02  0.72026963527E+02  0.00000000000E+00 0.  1.
         22    1    3    3    0    0  0.94146227102E+02 -0.51078100754E+01 -0.40165221790E+03  0.41257012246E+03  0.00000000000E+00 0.  1.
</event>
<event>
 7    1  0.6273950E-006  0.8560071E+02  0.7818608E-02  0.1426630E+00
          2   -1    0    0  502    0  0.00000000000E+00  0.00000000000E+00  0.20403053344E+03  0.20403053344E+03  0.00000000000E+00 0. -1.
          1   -1    0    0  501    0 -0.00000000000E+00 -0.00000000000E+00 -0.16862009716E+04  0.16862009716E+04  0.00000000000E+00 0. -1.
         25    2    1    2    0    0 -0.52098290416E+02  0.38398790705E+02 -0.37732791276E+03  0.40272770652E+03  0.12499821143E+03 0.  0.
          2    1    1    2  501    0  0.42809571803E+01  0.33341875745E+02 -0.12862298705E+04  0.12866690666E+04  0.00000000000E+00 0. -1.
          1    1    1    2  502    0  0.47817333236E+02 -0.71740666450E+02  0.18138734509E+03  0.20083473190E+03  0.00000000000E+00 0. -1.
         22    1    3    3    0    0  0.28757411886E+02  0.28523069645E+02 -0.44918100215E+02  0.60482972540E+02  0.00000000000E+00 0.  1.
         22    1    3    3    0    0 -0.80855702302E+02  0.98757210592E+01 -0.33240981254E+03  0.34224473398E+03  0.00000000000E+00 0.  1.
</event>
<event>
 7    1  0.6273950E-006  0.6891380E+02  0.7818608E-02  0.1500057E+00
          2   -1    0    0  502    0  0.00000000000E+00  0.00000000000E+00  0.31313180979E+02  0.31313180979E+02  0.00000000000E+00 0. -1.
          1   -1    0    0  501    0 -0.00000000000E+00 -0.00000000000E+00 -0.10242857901E+04  0.10242857901E+04  0.00000000000E+00 0. -1.
         25    2    1    2    0    0  0.26476136562E+02  0.78251961508E+02 -0.74223116221E+03  0.75720311985E+03  0.12500044509E+03 0.  0.
          2    1    1    2  501    0 -0.22327306610E+02 -0.10202000222E+02 -0.22371541741E+03  0.22505816452E+03  0.00000000000E+00 0. -1.
          1    1    1    2  502    0 -0.41488299525E+01 -0.68049961286E+02 -0.27026029500E+02  0.73337686707E+02  0.00000000000E+00 0. -1.
         22    1    3    3    0    0 -0.39956680535E+02 -0.81009646380E+01 -0.18935410644E+03  0.19369341644E+03  0.00000000000E+00 0. -1.
         22    1    3    3    0    0  0.66432817097E+02  0.86352926146E+02 -0.55287705577E+03  0.56350970341E+03  0.00000000000E+00 0. -1.
</event>
<event>
 7    1  0.6273950E-006  0.4841016E+02  0.7818608E-02  0.1579208E+00
          2   -1    0    0  502    0  0.00000000000E+00  0.00000000000E+00  0.20693731814E+03  0.20693731814E+03  0.00000000000E+00 0. -1.
          1   -1    0    0  501    0 -0.00000000000E+00 -0.00000000000E+00 -0.12873915395E+04  0.12873915395E+04  0.00000000000E+00 0. -1.
         25    2    1    2    0    0 -0.63791448126E+02  0.26713169394E+02 -0.66104118862E+03  0.67630155544E+03  0.12500159426E+03 0.  0.
          2    1    1    2  501    0  0.18912198080E+02 -0.88077855374E+01 -0.61561228230E+03  0.61596568934E+03  0.00000000000E+00 0. -1.
          1    1    1    2  502    0  0.44879250046E+02 -0.17905383856E+02  0.19619924957E+03  0.20206161285E+03  0.00000000000E+00 0. -1.
         22    1    3    3    0    0  0.79360673473E+01 -0.20811294770E+02 -0.41594630426E+03  0.41654221776E+03  0.00000000000E+00 0. -1.
         22    1    3    3    0    0 -0.71727515473E+02  0.47524464164E+02 -0.24509488436E+03  0.25975933768E+03  0.00000000000E+00 0. -1.
</event>
<event>
 7    1  0.7584736E-006  0.1614877E+03  0.7818608E-02  0.1295219E+00
          2   -1    0    0  502    0  0.00000000000E+00  0.00000000000E+00  0.86116335529E+03  0.86116335529E+03  0.00000000000E+00 0. -1.
          1   -1    0    0  501    0 -0.00000000000E+00 -0.00000000000E+00 -0.20387048422E+04  0.20387048422E+04  0.00000000000E+00 0. -1.
         25    2    1    2    0    0 -0.11065461603E+03  0.11736255966E+02 -0.62712076602E+03  0.64906656923E+03  0.12499908948E+03 0.  0.
          2    1    1    2  501    0 -0.51397924391E+02 -0.15966177812E+02 -0.13923591780E+04  0.13933989902E+04  0.00000000000E+00 0. -1.
          1    1    1    2  502    0  0.16205254042E+03  0.42299218462E+01  0.84193845711E+03  0.85740263801E+03  0.00000000000E+00 0. -1.
         22    1    3    3    0    0 -0.10544104751E+03 -0.40387393957E+02 -0.47287478083E+03  0.48616819562E+03  0.00000000000E+00 0. -1.
         22    1    3    3    0    0 -0.52135685233E+01  0.52123649923E+02 -0.15424598519E+03  0.16289837361E+03  0.00000000000E+00 0. -1.
</event>
<event>
 7    1  0.6273950E-006  0.4875047E+03  0.7818608E-02  0.1021670E+00
          2   -1    0    0  502    0  0.00000000000E+00  0.00000000000E+00  0.12777094198E+04  0.12777094198E+04  0.00000000000E+00 0. -1.
          1   -1    0    0  501    0 -0.00000000000E+00 -0.00000000000E+00 -0.31734328107E+04  0.31734328107E+04  0.00000000000E+00 0. -1.
         25    2    1    2    0    0  0.15137567157E+03  0.20213380328E+03 -0.59399858390E+03  0.65744318414E+03  0.12499821729E+03 0.  0.
          2    1    1    2  501    0 -0.36522033779E+03  0.27109416945E+03 -0.24719385962E+04  0.25134355705E+04  0.00000000000E+00 0. -1.
          1    1    1    2  502    0  0.21384466621E+03 -0.47322797273E+03  0.11702137891E+04  0.12802634759E+04  0.00000000000E+00 0. -1.
         22    1    3    3    0    0  0.52952463889E+02  0.16929469353E+03 -0.35313394657E+03  0.39518127601E+03  0.00000000000E+00 0. -1.
         22    1    3    3    0    0  0.98423207685E+02  0.32839109749E+02 -0.24086463732E+03  0.26226190812E+03  0.00000000000E+00 0. -1.
</event>
<event>
 7    1  0.6273950E-006  0.5194198E+02  0.7818608E-02  0.1462133E+00
          2   -1    0    0  502    0  0.00000000000E+00  0.00000000000E+00  0.28398631858E+04  0.28398631858E+04  0.00000000000E+00 0. -1.
          1   -1    0    0  501    0 -0.00000000000E+00 -0.00000000000E+00 -0.16486735514E+02  0.16486735514E+02  0.00000000000E+00 0. -1.
         25    2    1    2    0    0 -0.90687528836E+01  0.53133378335E+02  0.11584131024E+04  0.11663837956E+04  0.12499937851E+03 0.  0.
          2    1    1    2  501    0 -0.35429136660E+02 -0.23578291344E+02  0.25458542478E+02  0.49591298957E+02  0.00000000000E+00 0. -1.
          1    1    1    2  502    0  0.44497889543E+02 -0.29555086991E+02  0.16395048054E+04  0.16403748268E+04  0.00000000000E+00 0. -1.
         22    1    3    3    0    0  0.42058761797E+02 -0.33142931130E+01  0.73257069315E+03  0.73378453544E+03  0.00000000000E+00 0.  1.
         22    1    3    3    0    0 -0.51127514681E+02  0.56447671448E+02  0.42584240929E+03  0.43259926020E+03  0.00000000000E+00 0.  1.
</event>
<event>
 7    1  0.6273950E-006  0.8625496E+02  0.7818608E-02  0.1401480E+00
          2   -1    0    0  502    0  0.00000000000E+00  0.00000000000E+00  0.42930425157E+03  0.42930425157E+03  0.00000000000E+00 0. -1.
          1   -1    0    0  501    0 -0.00000000000E+00 -0.00000000000E+00 -0.73037038120E+03  0.73037038120E+03  0.00000000000E+00 0. -1.
         25    2    1    2    0    0 -0.44636990316E+02  0.82645325930E+02  0.99638398460E+02  0.18540773723E+03  0.12500203108E+03 0.  0.
          2    1    1    2  501    0  0.69738835512E+02 -0.50801595832E+02 -0.68332597978E+03  0.68875155315E+03  0.00000000000E+00 0. -1.
          1    1    1    2  502    0 -0.25101845196E+02 -0.31843730098E+02  0.28262145170E+03  0.28551534238E+03  0.00000000000E+00 0. -1.
         22    1    3    3    0    0  0.22006808630E+02 -0.17909353013E+02  0.44485222133E+02  0.52763429946E+02  0.00000000000E+00 0. -1.
         22    1    3    3    0    0 -0.66643798946E+02  0.10055467894E+03  0.55153176327E+02  0.13264430728E+03  0.00000000000E+00 0. -1.
</event>
<event>
 7    1  0.1209726E-005  0.1047592E+03  0.7818608E-02  0.1341864E+00
          2   -1    0    0  502    0  0.00000000000E+00  0.00000000000E+00  0.28152768731E+04  0.28152768731E+04  0.00000000000E+00 0. -1.
          1   -1    0    0  501    0 -0.00000000000E+00 -0.00000000000E+00 -0.10072033910E+04  0.10072033910E+04  0.00000000000E+00 0. -1.
         25    2    1    2    0    0  0.69186680032E+02  0.71317993513E+02 -0.19686390329E+03  0.25346797530E+03  0.12497025722E+03 0.  0.
          2    1    1    2  501    0  0.32093136050E+02 -0.44212247900E+02 -0.78009572452E+03  0.78200641408E+03  0.00000000000E+00 0. -1.
          1    1    1    2  502    0 -0.10127981608E+03 -0.27105745613E+02  0.27850331099E+04  0.27870058747E+04  0.00000000000E+00 0. -1.
         22    1    3    3    0    0  0.86257362967E+02  0.96267078515E+02 -0.16399807943E+03  0.20881344097E+03  0.00000000000E+00 0. -1.
         22    1    3    3    0    0 -0.17070682934E+02 -0.24949085002E+02 -0.32865823854E+02  0.44654534327E+02  0.00000000000E+00 0. -1.
</event>
<event>
 7    1  0.6273950E-006  0.1010525E+03  0.7818608E-02  0.1309434E+00
          2   -1    0    0  502    0  0.00000000000E+00  0.00000000000E+00  0.31614717474E+04  0.31614717474E+04  0.00000000000E+00 0. -1.
          1   -1    0    0  501    0 -0.00000000000E+00 -0.00000000000E+00 -0.47919639265E+02  0.47919639265E+02  0.00000000000E+00 0. -1.
         25    2    1    2    0    0  0.30929170377E+02  0.41584624908E+01  0.27685916545E+03  0.30534437510E+03  0.12494112022E+03 0.  0.
          2    1    1    2  501    0  0.74900966413E+02 -0.93432747383E+01  0.10895511924E+02  0.76263777329E+02  0.00000000000E+00 0. -1.
          1    1    1    2  502    0 -0.10583013679E+03  0.51848122476E+01  0.28257974307E+04  0.28277832342E+04  0.00000000000E+00 0. -1.
         22    1    3    3    0    0 -0.17013235665E+02 -0.29919911388E+02  0.22284107377E+03  0.22548347045E+03  0.00000000000E+00 0.  1.
         22    1    3    3    0    0  0.47942406042E+02  0.34078373879E+02  0.54018091675E+02  0.79860904650E+02  0.00000000000E+00 0.  1.
</event>
<event>
 7    1  0.6273950E-006  0.6705920E+02  0.7818608E-02  0.1407433E+00
          2   -1    0    0  502    0  0.00000000000E+00  0.00000000000E+00  0.14015112192E+04  0.14015112192E+04  0.00000000000E+00 0. -1.
          1   -1    0    0  501    0 -0.00000000000E+00 -0.00000000000E+00 -0.94138077293E+02  0.94138077293E+02  0.00000000000E+00 0. -1.
         25    2    1    2    0    0 -0.29270440984E+02  0.66991993030E+01  0.24293804348E+03  0.27485652324E+03  0.12500230964E+03 0.  0.
          2    1    1    2  501    0  0.62892159884E+02  0.29995197089E+02 -0.61993756631E+02  0.93265006752E+02  0.00000000000E+00 0. -1.
          1    1    1    2  502    0 -0.33621718900E+02 -0.36694396392E+02  0.11264288551E+04  0.11275277665E+04  0.00000000000E+00 0. -1.
         22    1    3    3    0    0 -0.70373498159E+02  0.60017307581E+00  0.79299354236E+02  0.10602441716E+03  0.00000000000E+00 0. -1.
         22    1    3    3    0    0  0.41103057175E+02  0.60990262272E+01  0.16363868924E+03  0.16883210609E+03  0.00000000000E+00 0. -1.
</event>
<event>
 7    1  0.6273950E-006  0.5493842E+02  0.7818608E-02  0.1531716E+00
          2   -1    0    0  502    0  0.00000000000E+00  0.00000000000E+00  0.75366044698E+02  0.75366044698E+02  0.00000000000E+00 0. -1.
          1   -1    0    0  501    0 -0.00000000000E+00 -0.00000000000E+00 -0.41632329278E+03  0.41632329278E+03  0.00000000000E+00 0. -1.
         25    2    1    2    0    0  0.77374828851E+02  0.13670893151E+01 -0.26642318951E+03  0.30428704434E+03  0.12498222422E+03 0.  0.
          2    1    1    2  501    0 -0.24023401542E+02  0.65010425730E+01 -0.11646259876E+03  0.11909208322E+03  0.00000000000E+00 0. -1.
          1    1    1    2  502    0 -0.53351427309E+02 -0.78681318881E+01  0.41928540193E+02  0.68310209911E+02  0.00000000000E+00 0. -1.
         22    1    3    3    0    0 -0.10602799144E+02  0.41670509903E+02 -0.43012273493E+02  0.60818635437E+02  0.00000000000E+00 0.  1.
         22    1    3    3    0    0  0.87977627995E+02 -0.40303420588E+02 -0.22341091602E+03  0.24346840891E+03  0.00000000000E+00 0.  1.
</event>
<event>
 7    1  0.6273950E-006  0.4631938E+02  0.7818608E-02  0.1537078E+00
          2   -1    0    0  502    0  0.00000000000E+00  0.00000000000E+00  0.20819375774E+04  0.20819375774E+04  0.00000000000E+00 0. -1.
          1   -1    0    0  501    0 -0.00000000000E+00 -0.00000000000E+00 -0.23540952020E+02  0.23540952020E+02  0.00000000000E+00 0. -1.
         25    2    1    2    0    0 -0.20284049898E+02 -0.31116400417E+02  0.30871439246E+03  0.33512497184E+03  0.12499799031E+03 0.  0.
          2    1    1    2  501    0  0.45645142421E+02  0.18116925766E+02  0.48799762896E+02  0.69232354319E+02  0.00000000000E+00 0. -1.
          1    1    1    2  502    0 -0.25361092523E+02  0.12999474651E+02  0.17008824700E+04  0.17011212032E+04  0.00000000000E+00 0. -1.
         22    1    3    3    0    0 -0.21390304092E+02 -0.27444272571E+02  0.32067873780E+03  0.32256098041E+03  0.00000000000E+00 0.  1.
         22    1    3    3    0    0  0.11062541938E+01 -0.36721278461E+01 -0.11964345339E+02  0.12563991430E+02  0.00000000000E+00 0.  1.
</event>
<event>
 7    1  0.6273950E-006  0.1215746E+03  0.7818608E-02  0.1323108E+00
          2   -1    0    0  502    0  0.00000000000E+00  0.00000000000E+00  0.19739636204E+04  0.19739636204E+04  0.00000000000E+00 0. -1.
          1   -1    0    0  501    0 -0.00000000000E+00 -0.00000000000E+00 -0.30867819909E+03  0.30867819909E+03  0.00000000000E+00 0. -1.
         25    2    1    2    0    0  0.49498110423E+02 -0.16104819958E+03 -0.15971200261E+02  0.21039689854E+03  0.12500076061E+03 0.  0.
          2    1    1    2  501    0 -0.37588966041E+02  0.40813410235E+02 -0.18956873528E+03  0.19752207526E+03  0.00000000000E+00 0. -1.
          1    1    1    2  502    0 -0.11909144383E+02  0.12023478935E+03  0.18708253569E+04  0.18747228457E+04  0.00000000000E+00 0. -1.
         22    1    3    3    0    0  0.61812496591E+02 -0.79560164691E+02  0.42500896983E+02  0.10934775162E+03  0.00000000000E+00 0. -1.
         22    1    3    3    0    0 -0.12314386168E+02 -0.81488034893E+02 -0.58472097244E+02  0.10104914692E+03  0.00000000000E+00 0. -1.
</event>
<event>
 7    1  0.6273950E-006  0.6794955E+02  0.7818608E-02  0.1464873E+00
          2   -1    0    0  502    0  0.00000000000E+00  0.00000000000E+00  0.35745762590E+04  0.35745762590E+04  0.00000000000E+00 0. -1.
          1   -1    0    0  501    0 -0.00000000000E+00 -0.00000000000E+00 -0.19702023539E+02  0.19702023539E+02  0.00000000000E+00 0. -1.
         25    2    1    2    0    0 -0.64614121418E+02  0.17307996114E+02  0.18323861671E+04  0.18378626321E+04  0.12500174938E+03 0.  0.
          2    1    1    2  501    0  0.50511213742E+02 -0.45914630000E+02  0.52479270366E+02  0.86102321571E+02  0.00000000000E+00 0. -1.
          1    1    1    2  502    0  0.14102907675E+02  0.28606633886E+02  0.16700087979E+04  0.16703133289E+04  0.00000000000E+00 0. -1.
         22    1    3    3    0    0  0.90676202562E+01  0.56621055515E+02  0.85079087533E+03  0.85272110283E+03  0.00000000000E+00 0. -1.
         22    1    3    3    0    0 -0.73681741674E+02 -0.39313059400E+02  0.98159529181E+03  0.98514152922E+03  0.00000000000E+00 0. -1.
</event>
<event>
 7    1  0.6273950E-006  0.4933064E+02  0.7818608E-02  0.1488449E+00
          2   -1    0    0  502    0  0.00000000000E+00  0.00000000000E+00  0.17082686028E+04  0.17082686028E+04  0.00000000000E+00 0. -1.
          1   -1    0    0  501    0 -0.00000000000E+00 -0.00000000000E+00 -0.73701582762E+02  0.73701582762E+02  0.00000000000E+00 0. -1.
         25    2    1    2    0    0 -0.62057133732E+02 -0.18350884625E+02  0.12748230768E+03  0.18990782029E+03  0.12500159449E+03 0.  0.
          2    1    1    2  501    0  0.31249964143E+02 -0.20113419920E+02 -0.33892572658E+02  0.50297280257E+02  0.00000000000E+00 0. -1.
          1    1    1    2  502    0  0.30807169589E+02  0.38464304545E+02  0.15409772850E+04  0.15417650850E+04  0.00000000000E+00 0. -1.
         22    1    3    3    0    0 -0.40371709723E+02 -0.70672757177E+02  0.93055385181E+02  0.12362774067E+03  0.00000000000E+00 0. -1.
         22    1    3    3    0    0 -0.21685424009E+02  0.52321872552E+02  0.34426922500E+02  0.66280079621E+02  0.00000000000E+00 0. -1.
</event>
<event>
 7    1  0.8514396E-006  0.5846962E+02  0.7818608E-02  0.1441139E+00
          2   -1    0    0  502    0  0.00000000000E+00  0.00000000000E+00  0.12572844052E+04  0.12572844052E+04  0.00000000000E+00 0. -1.
          1   -1    0    0  501    0 -0.00000000000E+00 -0.00000000000E+00 -0.13097080778E+04  0.13097080778E+04  0.00000000000E+00 0. -1.
         25    2    1    2    0    0 -0.30552535912E+02  0.50730562942E+00 -0.96088700290E+02  0.16060074932E+03  0.12500339016E+03 0.  0.
          2    1    1    2  501    0 -0.84957571955E+01  0.43289214726E+02 -0.11802484134E+04  0.11810725851E+04  0.00000000000E+00 0. -1.
          1    1    1    2  502    0  0.39048293107E+02 -0.43796520356E+02  0.12239134411E+04  0.12253191485E+04  0.00000000000E+00 0. -1.
         22    1    3    3    0    0 -0.27246853569E+02  0.21000565100E+02 -0.12236821105E+03  0.12711173761E+03  0.00000000000E+00 0.  1.
         22    1    3    3    0    0 -0.33056823426E+01 -0.20493259470E+02  0.26279510760E+02  0.33489011709E+02  0.00000000000E+00 0.  1.
</event>
<event>
 7    1  0.6273950E-006  0.1711993E+03  0.7818608E-02  0.1320802E+00
          2   -1    0    0  502    0  0.00000000000E+00  0.00000000000E+00  0.58854402722E+03  0.58854402722E+03  0.00000000000E+00 0. -1.
          1   -1    0    0  501    0 -0.00000000000E+00 -0.00000000000E+00 -0.10493561771E+04  0.10493561771E+04  0.00000000000E+00 0. -1.
         25    2    1    2    0    0  0.30456998793E+02 -0.19752535090E+03  0.20828101802E+03  0.31456332855E+03  0.12500084871E+03 0.  0.
          2    1    1    2  501    0 -0.13804625121E+02  0.37776652122E+02 -0.97606078516E+03  0.97688909270E+03  0.00000000000E+00 0. -1.
          1    1    1    2  502    0 -0.16652373672E+02  0.15974869878E+03  0.30696761729E+03  0.34644778304E+03  0.00000000000E+00 0. -1.
         22    1    3    3    0    0  0.18044712001E+02 -0.26312753401E+02  0.11469119558E+03  0.11904638998E+03  0.00000000000E+00 0. -1.
         22    1    3    3    0    0  0.12412286792E+02 -0.17121259750E+03  0.93589822436E+02  0.19551693857E+03  0.00000000000E+00 0. -1.
</event>
<event>
 7    1  0.6273950E-006  0.8934080E+02  0.7818608E-02  0.1321527E+00
          2   -1    0    0  502    0  0.00000000000E+00  0.00000000000E+00  0.84952559213E+03  0.84952559213E+03  0.00000000000E+00 0. -1.
          1   -1    0    0  501    0 -0.00000000000E+00 -0.00000000000E+00 -0.38986938804E+02  0.38986938804E+02  0.00000000000E+00 0. -1.
         25    2    1    2    0    0 -0.48559438998E+01  0.31838702412E+02  0.39908422971E+03  0.41944010197E+03  0.12499797428E+03 0.  0.
          2    1    1    2  501    0 -0.21132037705E+02 -0.10386900194E+03  0.91327459128E+02  0.13991439302E+03  0.00000000000E+00 0. -1.
          1    1    1    2  502    0  0.25987981605E+02  0.72030299532E+02  0.32012696449E+03  0.32915803595E+03  0.00000000000E+00 0. -1.
         22    1    3    3    0    0 -0.29071816395E+02  0.49851407163E+02  0.78455348849E+02  0.97393916996E+02  0.00000000000E+00 0.  1.
         22    1    3    3    0    0  0.24215872495E+02 -0.18012704751E+02  0.32062888086E+03  0.32204618498E+03  0.00000000000E+00 0.  1.
</event>
<event>
 7    1  0.6273950E-006  0.4379023E+02  0.7818608E-02  0.1487224E+00
          2   -1    0    0  502    0  0.00000000000E+00  0.00000000000E+00  0.20656306529E+03  0.20656306529E+03  0.00000000000E+00 0. -1.
          1   -1    0    0  501    0 -0.00000000000E+00 -0.00000000000E+00 -0.19252266944E+04  0.19252266944E+04  0.00000000000E+00 0. -1.
         25    2    1    2    0    0 -0.30151107413E+02 -0.25181065211E+02 -0.26645280973E+03  0.29692607059E+03  0.12499926504E+03 0.  0.
          2    1    1    2  501    0 -0.78651894384E+01  0.43558095851E+02 -0.16409054521E+04  0.16415023215E+04  0.00000000000E+00 0. -1.
          1    1    1    2  502    0  0.38016296851E+02 -0.18377030640E+02  0.18869463267E+03  0.19336136760E+03  0.00000000000E+00 0. -1.
         22    1    3    3    0    0  0.14341278492E+02 -0.63167941894E+02 -0.88987792557E+02  0.11006674510E+03  0.00000000000E+00 0. -1.
         22    1    3    3    0    0 -0.44492385905E+02  0.37986876683E+02 -0.17746501718E+03  0.18685932550E+03  0.00000000000E+00 0. -1.
</event>
<event>
 7    1  0.6273950E-006  0.1027236E+03  0.7818608E-02  0.1463885E+00
          2   -1    0    0  502    0  0.00000000000E+00  0.00000000000E+00  0.19441128732E+04  0.19441128732E+04  0.00000000000E+00 0. -1.
          1   -1    0    0  501    0 -0.00000000000E+00 -0.00000000000E+00 -0.60687493089E+02  0.60687493089E+02  0.00000000000E+00 0. -1.
         25    2    1    2    0    0 -0.10240284444E+02 -0.10350665990E+03  0.26438979180E+03  0.31039603288E+03  0.12500097260E+03 0.  0.
          2    1    1    2  501    0 -0.20538104265E+02  0.54472031376E+01 -0.32959675614E+02  0.39215124192E+02  0.00000000000E+00 0. -1.
          1    1    1    2  502    0  0.30778388709E+02  0.98059456763E+02  0.16519952639E+04  0.16551892092E+04  0.00000000000E+00 0. -1.
         22    1    3    3    0    0  0.14601470132E+02 -0.11755406373E+03  0.14297215813E+03  0.18566959586E+03  0.00000000000E+00 0. -1.
         22    1    3    3    0    0 -0.24841754576E+02  0.14047403825E+02  0.12141763367E+03  0.12472643702E+03  0.00000000000E+00 0. -1.
</event>
<event>
 7    1  0.6273950E-006  0.6815616E+02  0.7818608E-02  0.1425714E+00
          2   -1    0    0  502    0  0.00000000000E+00  0.00000000000E+00  0.58996501415E+03  0.58996501415E+03  0.00000000000E+00 0. -1.
          1   -1    0    0  501    0 -0.00000000000E+00 -0.00000000000E+00 -0.89332956268E+03  0.89332956268E+03  0.00000000000E+00 0. -1.
         25    2    1    2    0    0  0.45220371176E+02  0.51733048984E+02 -0.11762019528E+03  0.18487345732E+03  0.12498997783E+03 0.  0.
          2    1    1    2  501    0 -0.39251832977E+02  0.16335605169E+02 -0.73937167674E+03  0.74059302910E+03  0.00000000000E+00 0. -1.
          1    1    1    2  502    0 -0.59685381998E+01 -0.68068654153E+02  0.55362732350E+03  0.55782809041E+03  0.00000000000E+00 0. -1.
         22    1    3    3    0    0  0.86450370155E+02  0.32846186830E+02 -0.55142615122E+02  0.10767193920E+03  0.00000000000E+00 0.  1.
         22    1    3    3    0    0 -0.41229998979E+02  0.18886862153E+02 -0.62477580156E+02  0.77201518119E+02  0.00000000000E+00 0.  1.
</event>
<event>
 7    1  0.6273950E-006  0.6796865E+02  0.7818608E-02  0.1484186E+00
          2   -1    0    0  502    0  0.00000000000E+00  0.00000000000E+00  0.45423903768E+03  0.45423903768E+03  0.00000000000E+00 0. -1.
          1   -1    0    0  501    0 -0.00000000000E+00 -0.00000000000E+00 -0.17048414778E+03  0.17048414778E+03  0.00000000000E+00 0. -1.
         25    2    1    2    0    0  0.60726918165E+02 -0.43732996471E+01  0.18180053363E+03  0.22887413206E+03  0.12500019984E+03 0.  0.
          2    1    1    2  501    0  0.18704624226E+01 -0.27726786980E+02 -0.14058923102E+03  0.14330947361E+03  0.00000000000E+00 0. -1.
          1    1    1    2  502    0 -0.62597380588E+02  0.32100086627E+02  0.24254358730E+03  0.25253957979E+03  0.00000000000E+00 0. -1.
         22    1    3    3    0    0  0.94196044561E-01  0.55618424799E+01 -0.18522880271E+02  0.19340115258E+02  0.00000000000E+00 0. -1.
         22    1    3    3    0    0  0.60632722121E+02 -0.99351421270E+01  0.20032341390E+03  0.20953401680E+03  0.00000000000E+00 0. -1.
</event>
<event>
 7    1  0.6273950E-006  0.1250115E+03  0.7818608E-02  0.1383239E+00
          2   -1    0    0  502    0  0.00000000000E+00  0.00000000000E+00  0.81450224097E+03  0.81450224097E+03  0.00000000000E+00 0. -1.
          1   -1    0    0  501    0 -0.00000000000E+00 -0.00000000000E+00 -0.16660436444E+04  0.16660436444E+04  0.00000000000E+00 0. -1.
         25    2    1    2    0    0  0.11206835153E+03 -0.85718929364E+00 -0.62334096524E+02  0.17908421548E+03  0.12500226581E+03 0.  0.
          2    1    1    2  501    0  0.10032550276E+02  0.30783458767E+02 -0.15399377684E+04  0.15402780930E+04  0.00000000000E+00 0. -1.
          1    1    1    2  502    0 -0.12210090180E+03 -0.29926269473E+02  0.75073046149E+03  0.76118357683E+03  0.00000000000E+00 0. -1.
         22    1    3    3    0    0  0.10574771577E+03  0.29013528178E+02  0.20643237854E-01  0.10965566394E+03  0.00000000000E+00 0. -1.
         22    1    3    3    0    0  0.63206357568E+01 -0.29870717472E+02 -0.62354739761E+02  0.69428551543E+02  0.00000000000E+00 0. -1.
</event>
<event>
 7    1  0.6273950E-006  0.1483126E+03  0.7818608E-02  0.1273539E+00
          2   -1    0    0  502    0  0.00000000000E+00  0.00000000000E+00  0.43902575756E+04  0.43902575756E+04  0.00000000000E+00 0. -1.
          1   -1    0    0  501    0 -0.00000000000E+00 -0.00000000000E+00 -0.56494757617E+02  0.56494757617E+02  0.00000000000E+00 0. -1.
         25    2    1    2    0    0  0.43533857590E+02  0.13544483690E+03  0.97468284944E+03  0.99291101431E+03  0.12500049901E+03 0.  0.
          2    1    1    2  501    0  0.27204256954E+02 -0.14845994143E+03  0.74218997562E+02  0.16819300046E+03  0.00000000000E+00 0. -1.
          1    1    1    2  502    0 -0.70738114544E+02  0.13015104529E+02  0.32848609710E+04  0.32856483184E+04  0.00000000000E+00 0. -1.
         22    1    3    3    0    0 -0.36585327326E+02  0.89525911866E+02  0.52759034927E+03  0.53638134915E+03  0.00000000000E+00 0.  1.
         22    1    3    3    0    0  0.80119184916E+02  0.45918925034E+02  0.44709250016E+03  0.45652966516E+03  0.00000000000E+00 0.  1.
</event>
<event>
 7    1  0.6273950E-006  0.7308256E+02  0.7818608E-02  0.1394204E+00
          2   -1    0    0  502    0  0.00000000000E+00  0.00000000000E+00  0.19702094613E+03  0.19702094613E+03  0.00000000000E+00 0. -1.
          1   -1    0    0  501    0 -0.00000000000E+00 -0.00000000000E+00 -0.10392461761E+04  0.10392461761E+04  0.00000000000E+00 0. -1.
         25    2    1    2    0    0 -0.11440777547E+03 -0.64275403601E+01 -0.90870539433E+02  0.19238788541E+03  0.12500076461E+03 0.  0.
          2    1    1    2  501    0  0.67400774140E+02  0.25432403811E+02 -0.89172606548E+03  0.89463123541E+03  0.00000000000E+00 0. -1.
          1    1    1    2  502    0  0.47007001327E+02 -0.19004863451E+02  0.14037137497E+03  0.14924800139E+03  0.00000000000E+00 0. -1.
         22    1    3    3    0    0 -0.55560514435E+02  0.59101640305E+02 -0.50036519702E+02  0.95308068677E+02  0.00000000000E+00 0. -1.
         22    1    3    3    0    0 -0.58847261032E+02 -0.65529180665E+02 -0.40834019731E+02  0.97079816733E+02  0.00000000000E+00 0. -1.
</event>
<event>
 7    1  0.6273950E-006  0.5387359E+02  0.7818608E-02  0.1465189E+00
          2   -1    0    0  502    0  0.00000000000E+00  0.00000000000E+00  0.67772001470E+03  0.67772001470E+03  0.00000000000E+00 0. -1.
          1   -1    0    0  501    0 -0.00000000000E+00 -0.00000000000E+00 -0.13138500256E+04  0.13138500256E+04  0.00000000000E+00 0. -1.
         25    2    1    2    0    0 -0.26882794892E+02 -0.10671659537E+02  0.17939523072E+03  0.22055453682E+03  0.12500034371E+03 0.  0.
          2    1    1    2  501    0  0.20800797548E+01 -0.40081560757E+02 -0.12912876299E+04  0.12919112204E+04  0.00000000000E+00 0. -1.
          1    1    1    2  502    0  0.24802715138E+02  0.50753220294E+02  0.47576238824E+03  0.47910428313E+03  0.00000000000E+00 0. -1.
         22    1    3    3    0    0  0.43060101948E+02  0.96352517380E+01  0.11559617293E+03  0.12373150630E+03  0.00000000000E+00 0.  1.
         22    1    3    3    0    0 -0.69942896840E+02 -0.20306911275E+02  0.63799057796E+02  0.96823030523E+02  0.00000000000E+00 0.  1.
</event>
<event>
 7    1  0.6273950E-006  0.1734030E+03  0.7818608E-02  0.1304914E+00
          2   -1    0    0  502    0  0.00000000000E+00  0.00000000000E+00  0.14185278334E+04  0.14185278334E+04  0.00000000000E+00 0. -1.
          1   -1    0    0  501    0 -0.00000000000E+00 -0.00000000000E+00 -0.16235682418E+03  0.16235682418E+03  0.00000000000E+00 0. -1.
         25    2    1    2    0    0  0.99642655392E+02 -0.91931477366E+02  0.54455456972E+03  0.57493050609E+03  0.12500140848E+03 0.  0.
          2    1    1    2  501    0 -0.11417084904E+03  0.13540574896E+03 -0.92990695279E+02  0.20004241808E+03  0.00000000000E+00 0. -1.
          1    1    1    2  502    0  0.14528193645E+02 -0.43474271599E+02  0.80460713479E+03  0.80591173341E+03  0.00000000000E+00 0. -1.
         22    1    3    3    0    0  0.39960411327E+02 -0.11055400964E+03  0.29251376844E+03  0.31525121451E+03  0.00000000000E+00 0. -1.
         22    1    3    3    0    0  0.59682244065E+02  0.18622532278E+02  0.25204080129E+03  0.25967929158E+03  0.00000000000E+00 0. -1.
</event>
<event>
 7    1  0.6273950E-006  0.3670377E+02  0.7818608E-02  0.1536936E+00
          2   -1    0    0  502    0  0.00000000000E+00  0.00000000000E+00  0.12512009442E+04  0.12512009442E+04  0.00000000000E+00 0. -1.
          1   -1    0    0  501    0 -0.00000000000E+00 -0.00000000000E+00 -0.75010348919E+03  0.75010348919E+03  0.00000000000E+00 0. -1.
         25    2    1    2    0    0 -0.23526463725E+02 -0.19089522504E+02  0.25182651486E+02  0.13105372886E+03  0.12499203793E+03 0.  0.
          2    1    1    2  501    0 -0.83046766129E+01  0.35901341640E+02 -0.69640455250E+03  0.69737878856E+03  0.00000000000E+00 0. -1.
          1    1    1    2  502    0  0.31831140338E+02 -0.16811819136E+02  0.11723193560E+04  0.11728719160E+04  0.00000000000E+00 0. -1.
         22    1    3    3    0    0 -0.24509306838E+02  0.46427044936E+02  0.37323577091E+02  0.64414486182E+02  0.00000000000E+00 0. -1.
         22    1    3    3    0    0  0.98284311337E+00 -0.65516567440E+02 -0.12140925605E+02  0.66639242675E+02  0.00000000000E+00 0. -1.
</event>
<event>
 7    1  0.6273950E-006  0.2937883E+03  0.7818608E-02  0.1322805E+00
          2   -1    0    0  502    0  0.00000000000E+00  0.00000000000E+00  0.14444103749E+04  0.14444103749E+04  0.00000000000E+00 0. -1.
          1   -1    0    0  501    0 -0.00000000000E+00 -0.00000000000E+00 -0.18347563807E+04  0.18347563807E+04  0.00000000000E+00 0. -1.
         25    2    1    2    0    0  0.27902290574E+03  0.20486786619E+01 -0.29297151865E+03  0.42345622812E+03  0.12499954952E+03 0.  0.
          2    1    1    2  501    0 -0.29676454013E+03 -0.16721377394E+02 -0.14614856585E+04  0.14914050847E+04  0.00000000000E+00 0. -1.
          1    1    1    2  502    0  0.17741634384E+02  0.14672698732E+02  0.13641111713E+04  0.13643054428E+04  0.00000000000E+00 0. -1.
         22    1    3    3    0    0  0.13068425499E+02  0.33661908067E+02 -0.21106104136E+02  0.41825535640E+02  0.00000000000E+00 0. -1.
         22    1    3    3    0    0  0.26595448024E+03 -0.31613229405E+02 -0.27186541452E+03  0.38163069248E+03  0.00000000000E+00 0. -1.
</event>
<event>
 7    1  0.6273950E-006  0.7563610E+02  0.7818608E-02  0.1451506E+00
          2   -1    0    0  502    0  0.00000000000E+00  0.00000000000E+00  0.29545191362E+03  0.29545191362E+03  0.00000000000E+00 0. -1.
          1   -1    0    0  501    0 -0.00000000000E+00 -0.00000000000E+00 -0.23095558748E+03  0.23095558748E+03  0.00000000000E+00 0. -1.
         25    2    1    2    0    0 -0.72393058004E+02 -0.29806707606E+02  0.44190183296E+02  0.15397063097E+03  0.12499995294E+03 0.  0.
          2    1    1    2  501    0 -0.36460454214E+01  0.31371163201E+02 -0.16716678941E+03  0.17012401068E+03  0.00000000000E+00 0. -1.
          1    1    1    2  502    0  0.76039103425E+02 -0.15644555949E+01  0.18747293226E+03  0.20231285945E+03  0.00000000000E+00 0. -1.
         22    1    3    3    0    0  0.24817817830E+02  0.21535030306E+02  0.27351290046E+02  0.42752481557E+02  0.00000000000E+00 0. -1.
         22    1    3    3    0    0 -0.97210875834E+02 -0.51341737913E+02  0.16838893249E+02  0.11121814941E+03  0.00000000000E+00 0. -1.
</event>
<event>
 7    1  0.6273950E-006  0.6803165E+02  0.7818608E-02  0.1439138E+00
          2   -1    0    0  502    0  0.00000000000E+00  0.00000000000E+00  0.23293481952E+03  0.23293481952E+03  0.00000000000E+00 0. -1.
          1   -1    0    0  501    0 -0.00000000000E+00 -0.00000000000E+00 -0.19041022251E+03  0.19041022251E+03  0.00000000000E+00 0. -1.
         25    2    1    2    0    0 -0.41317532011E+02 -0.44071246791E+02  0.72766967792E+02  0.15674706005E+03  0.12500078394E+03 0.  0.
          2    1    1    2  501    0  0.27655386563E+02 -0.26764169806E+02 -0.13445349884E+03  0.13985308199E+03  0.00000000000E+00 0. -1.
          1    1    1    2  502    0  0.13662145448E+02  0.70835416598E+02  0.10421112806E+03  0.12674489999E+03  0.00000000000E+00 0. -1.
         22    1    3    3    0    0 -0.23186805302E+01  0.22719335923E+02  0.75979739228E+02  0.79337666196E+02  0.00000000000E+00 0.  1.
         22    1    3    3    0    0 -0.38998851481E+02 -0.66790582714E+02 -0.32127714366E+01  0.77409393851E+02  0.00000000000E+00 0.  1.
</event>
<event>
 7    1  0.6273950E-006  0.3443986E+02  0.7818608E-02  0.1583187E+00
          2   -1    0    0  502    0  0.00000000000E+00  0.00000000000E+00  0.64656166435E+03  0.64656166435E+03  0.00000000000E+00 0. -1.
          1   -1    0    0  501    0 -0.00000000000E+00 -0.00000000000E+00 -0.52032697453E+03  0.52032697453E+03  0.00000000000E+00 0. -1.
         25    2    1    2    0    0  0.40577658902E+02 -0.66291074969E+01  0.48906042765E+03  0.50645392723E+03  0.12499994814E+03 0.  0.
          2    1    1    2  501    0 -0.20885854608E+02  0.27390709914E+02 -0.50966786115E+03  0.51083049890E+03  0.00000000000E+00 0. -1.
          1    1    1    2  502    0 -0.19691804295E+02 -0.20761602418E+02  0.14684212332E+03  0.14960421275E+03  0.00000000000E+00 0. -1.
         22    1    3    3    0    0 -0.30935419711E+02  0.28673610247E+02  0.88584674662E+02  0.98114324653E+02  0.00000000000E+00 0.  1.
         22    1    3    3    0    0  0.71513078613E+02 -0.35302717744E+02  0.40047575299E+03  0.40833960257E+03  0.00000000000E+00 0.  1.
</event>
<event>
 7    1  0.6273950E-006  0.8334482E+02  0.7818608E-02  0.1340475E+00
          2   -1    0    0  502    0  0.00000000000E+00  0.00000000000E+00  0.11349821167E+04  0.11349821167E+04  0.00000000000E+00 0. -1.
          1   -1    0    0  501    0 -0.00000000000E+00 -0.00000000000E+00 -0.84916822724E+03  0.84916822724E+03  0.00000000000E+00 0. -1.
         25    2    1    2    0    0 -0.51246973543E+02  0.12703142581E+03 -0.55088607146E+03  0.58126148914E+03  0.12500487824E+03 0.  0.
          2    1    1    2  501    0  0.53923603193E+02 -0.43844904115E+02 -0.27725297851E+03  0.28583097224E+03  0.00000000000E+00 0. -1.
          1    1    1    2  502    0 -0.26766296494E+01 -0.83186521698E+02  0.11139529394E+04  0.11170578826E+04  0.00000000000E+00 0. -1.
         22    1    3    3    0    0 -0.89322393465E+01  0.88303846686E+02 -0.48856133325E+03  0.49655768103E+03  0.00000000000E+00 0. -1.
         22    1    3    3    0    0 -0.42314734197E+02  0.38727579127E+02 -0.62324738206E+02  0.84703808106E+02  0.00000000000E+00 0. -1.
</event>
<event>
 7    1  0.6273950E-006  0.2694577E+03  0.7818608E-02  0.1192055E+00
          2   -1    0    0  502    0  0.00000000000E+00  0.00000000000E+00  0.40480522056E+04  0.40480522056E+04  0.00000000000E+00 0. -1.
          1   -1    0    0  501    0 -0.00000000000E+00 -0.00000000000E+00 -0.29694195851E+03  0.29694195851E+03  0.00000000000E+00 0. -1.
         25    2    1    2    0    0 -0.17490562858E+03  0.30642667746E+03  0.17374598555E+03  0.41267579237E+03  0.12499741817E+03 0.  0.
          2    1    1    2  501    0  0.65892362206E+02 -0.63554010300E+02 -0.16061396029E+03  0.18487227986E+03  0.00000000000E+00 0. -1.
          1    1    1    2  502    0  0.10901326637E+03 -0.24287266716E+03  0.37379782218E+04  0.37474460919E+04  0.00000000000E+00 0. -1.
         22    1    3    3    0    0 -0.55657016514E+02  0.18658138612E+03  0.44135664927E+02  0.19964537073E+03  0.00000000000E+00 0. -1.
         22    1    3    3    0    0 -0.11924861206E+03  0.11984529133E+03  0.12961032062E+03  0.21303042164E+03  0.00000000000E+00 0. -1.
</event>
<event>
 7    1  0.6273950E-006  0.1254090E+03  0.7818608E-02  0.1275849E+00
          2   -1    0    0  502    0  0.00000000000E+00  0.00000000000E+00  0.21011720053E+03  0.21011720053E+03  0.00000000000E+00 0. -1.
          1   -1    0    0  501    0 -0.00000000000E+00 -0.00000000000E+00 -0.13323580370E+04  0.13323580370E+04  0.00000000000E+00 0. -1.
         25    2    1    2    0    0  0.13641060128E+03 -0.41117718810E+02 -0.30398474110E+03  0.35823168654E+03  0.12499879790E+03 0.  0.
          2    1    1    2  501    0 -0.77399041273E+02  0.99763593224E+02 -0.98756155100E+03  0.99560092564E+03  0.00000000000E+00 0. -1.
          1    1    1    2  502    0 -0.59011560003E+02 -0.58645874415E+02  0.16930545562E+03  0.18864262536E+03  0.00000000000E+00 0. -1.
         22    1    3    3    0    0  0.56419473392E+02 -0.17055994946E+02 -0.25429836663E+03  0.26103969663E+03  0.00000000000E+00 0. -1.
         22    1    3    3    0    0  0.79991127884E+02 -0.24061723863E+02 -0.49686374468E+02  0.97191989913E+02  0.00000000000E+00 0. -1.
</event>
<event>
 7    1  0.6273950E-006  0.1257950E+03  0.7818608E-02  0.1302002E+00
          2   -1    0    0  502    0  0.00000000000E+00  0.00000000000E+00  0.11416779049E+04  0.11416779049E+04  0.00000000000E+00 0. -1.
          1   -1    0    0  501    0 -0.00000000000E+00 -0.00000000000E+00 -0.43661392434E+03  0.43661392434E+03  0.00000000000E+00 0. -1.
         25    2    1    2    0    0 -0.53501185238E+02 -0.56716541882E+02  0.38974713616E+02  0.15240642121E+03  0.12501818260E+03 0.  0.
          2    1    1    2  501    0  0.75405053914E+01 -0.64455462052E+02 -0.37307207762E+03  0.37867418833E+03  0.00000000000E+00 0. -1.
          1    1    1    2  502    0  0.45960679846E+02  0.12117200393E+03  0.10391613446E+04  0.10472112197E+04  0.00000000000E+00 0. -1.
         22    1    3    3    0    0 -0.88450465137E+02 -0.56448641684E+02  0.72060659123E+01  0.10517538361E+03  0.00000000000E+00 0.  1.
         22    1    3    3    0    0  0.34949279900E+02 -0.26790019808E+00  0.31768647704E+02  0.47231037602E+02  0.00000000000E+00 0.  1.
</event>
<event>
 7    1  0.6273950E-006  0.7050802E+02  0.7818608E-02  0.1437620E+00
          2   -1    0    0  502    0  0.00000000000E+00  0.00000000000E+00  0.55400271314E+03  0.55400271314E+03  0.00000000000E+00 0. -1.
          1   -1    0    0  501    0 -0.00000000000E+00 -0.00000000000E+00 -0.30170988746E+04  0.30170988746E+04  0.00000000000E+00 0. -1.
         25    2    1    2    0    0  0.29479638854E+02 -0.25597937814E+02  0.25194104693E+03  0.28394218790E+03  0.12499828563E+03 0.  0.
          2    1    1    2  501    0 -0.66903747996E+02  0.22422935470E+02 -0.29994487686E+04  0.30002786229E+04  0.00000000000E+00 0. -1.
          1    1    1    2  502    0  0.37424109141E+02  0.31750023442E+01  0.28441156023E+03  0.28688077694E+03  0.00000000000E+00 0. -1.
         22    1    3    3    0    0  0.65464415574E+02  0.16690291057E+02  0.88583272443E+02  0.11140534852E+03  0.00000000000E+00 0. -1.
         22    1    3    3    0    0 -0.35984776719E+02 -0.42288228871E+02  0.16335777449E+03  0.17253683938E+03  0.00000000000E+00 0. -1.
</event>
<event>
 7    1  0.6273950E-006  0.1093801E+03  0.7818608E-02  0.1385116E+00
          2   -1    0    0  502    0  0.00000000000E+00  0.00000000000E+00  0.18318905118E+04  0.18318905118E+04  0.00000000000E+00 0. -1.
          1   -1    0    0  501    0 -0.00000000000E+00 -0.00000000000E+00 -0.96396733934E+03  0.96396733934E+03  0.00000000000E+00 0. -1.
         25    2    1    2    0    0  0.10228360427E+03 -0.35690712659E+02  0.23177158024E+03  0.28474365626E+03  0.12500048681E+03 0.  0.
          2    1    1    2  501    0 -0.10946720642E+03 -0.39689393835E-01 -0.93407358263E+03  0.94046612306E+03  0.00000000000E+00 0. -1.
          1    1    1    2  502    0  0.71836021465E+01  0.35730402053E+02  0.15702251748E+04  0.15706480718E+04  0.00000000000E+00 0. -1.
         22    1    3    3    0    0  0.85275963838E+02  0.22201814098E+02  0.71459097353E+02  0.11345180982E+03  0.00000000000E+00 0.  1.
         22    1    3    3    0    0  0.17007640434E+02 -0.57892526757E+02  0.16031248288E+03  0.17129184644E+03  0.00000000000E+00 0.  1.
</event>
<event>
 7    1  0.6273950E-006  0.1188457E+03  0.7818608E-02  0.1407307E+00
          2   -1    0    0  502    0  0.00000000000E+00  0.00000000000E+00  0.19887785254E+03  0.19887785254E+03  0.00000000000E+00 0. -1.
          1   -1    0    0  501    0 -0.00000000000E+00 -0.00000000000E+00 -0.76332217292E+03  0.76332217292E+03  0.00000000000E+00 0. -1.
         25    2    1    2    0    0  0.10526786772E+03  0.76077098811E+02  0.48840294223E+02  0.18675244841E+03  0.12498821428E+03 0.  0.
          2    1    1    2  501    0 -0.10827006359E+03 -0.48128047550E+02 -0.68669365211E+03  0.69684064712E+03  0.00000000000E+00 0. -1.
          1    1    1    2  502    0  0.30021958697E+01 -0.27949051261E+02  0.73409037504E+02  0.78606929934E+02  0.00000000000E+00 0. -1.
         22    1    3    3    0    0  0.12842079647E+03  0.83031588938E+02  0.53726966847E+02  0.16208865690E+03  0.00000000000E+00 0. -1.
         22    1    3    3    0    0 -0.23152928749E+02 -0.69544901261E+01 -0.48866726239E+01  0.24663791515E+02  0.00000000000E+00 0. -1.
</event>
<event>
 7    1  0.6273950E-006  0.2019560E+03  0.7818608E-02  0.1166698E+00
          2   -1    0    0  502    0  0.00000000000E+00  0.00000000000E+00  0.12912393598E+04  0.12912393598E+04  0.00000000000E+00 0. -1.
          1   -1    0    0  501    0 -0.00000000000E+00 -0.00000000000E+00 -0.14052696963E+04  0.14052696963E+04  0.00000000000E+00 0. -1.
         25    2    1    2    0    0  0.70576952637E+02  0.23511180701E+02 -0.28228791555E+02  0.14817348763E+03  0.12499854360E+03 0.  0.
          2    1    1    2  501    0  0.13732244421E+03 -0.86849076799E+02 -0.13023904986E+04  0.13124866577E+04  0.00000000000E+00 0. -1.
          1    1    1    2  502    0 -0.20789939685E+03  0.63337896098E+02  0.12165889536E+04  0.12358489108E+04  0.00000000000E+00 0. -1.
         22    1    3    3    0    0 -0.20706014631E+01  0.69759818035E+01  0.43884964014E+02  0.44484174479E+02  0.00000000000E+00 0. -1.
         22    1    3    3    0    0  0.72647554100E+02  0.16535198898E+02 -0.72113755570E+02  0.10368931315E+03  0.00000000000E+00 0. -1.
</event>
<event>
 7    1  0.6273950E-006  0.8000107E+02  0.7818608E-02  0.1387729E+00
          2   -1    0    0  502    0  0.00000000000E+00  0.00000000000E+00  0.20348253871E+03  0.20348253871E+03  0.00000000000E+00 0. -1.
          1   -1    0    0  501    0 -0.00000000000E+00 -0.00000000000E+00 -0.10263168134E+04  0.10263168134E+04  0.00000000000E+00 0. -1.
         25    2    1    2    0    0 -0.14654403237E+02  0.28845222097E+02  0.12866395130E+02  0.12976278633E+03  0.12500415281E+03 0.  0.
          2    1    1    2  501    0  0.36785771295E+02 -0.72325279639E+02 -0.96159847299E+03  0.96501593889E+03  0.00000000000E+00 0. -1.
          1    1    1    2  502    0 -0.22131368059E+02  0.43480057543E+02  0.12589780314E+03  0.13502062691E+03  0.00000000000E+00 0. -1.
         22    1    3    3    0    0 -0.28807724456E+02  0.37522538347E+02  0.61950741597E+02  0.77946906653E+02  0.00000000000E+00 0. -1.
         22    1    3    3    0    0  0.14153321219E+02 -0.86773162504E+01 -0.49084346467E+02  0.51815879679E+02  0.00000000000E+00 0. -1.
</event>
<event>
 7    1  0.6273950E-006  0.4296575E+02  0.7818608E-02  0.1546986E+00
          2   -1    0    0  502    0  0.00000000000E+00  0.00000000000E+00  0.38875196287E+03  0.38875196287E+03  0.00000000000E+00 0. -1.
          1   -1    0    0  501    0 -0.00000000000E+00 -0.00000000000E+00 -0.73659656248E+03  0.73659656248E+03  0.00000000000E+00 0. -1.
         25    2    1    2    0    0  0.41963191674E+02  0.50346461241E+02  0.32368476450E+00  0.14114142576E+03  0.12500048671E+03 0.  0.
          2    1    1    2  501    0 -0.15059422321E+02 -0.40043095615E+02 -0.66484631778E+03  0.66622133107E+03  0.00000000000E+00 0. -1.
          1    1    1    2  502    0 -0.26903769353E+02 -0.10303365626E+02  0.31667803340E+03  0.31798576853E+03  0.00000000000E+00 0. -1.
         22    1    3    3    0    0 -0.28363026379E+02 -0.18957690875E+02 -0.21092586233E+02  0.40109257070E+02  0.00000000000E+00 0. -1.
         22    1    3    3    0    0  0.70326218053E+02  0.69304152116E+02  0.21416270998E+02  0.10103216869E+03  0.00000000000E+00 0. -1.
</event>
<event>
 7    1  0.6273950E-006  0.8597837E+02  0.7818608E-02  0.1321476E+00
          2   -1    0    0  502    0  0.00000000000E+00  0.00000000000E+00  0.13026625185E+04  0.13026625185E+04  0.00000000000E+00 0. -1.
          1   -1    0    0  501    0 -0.00000000000E+00 -0.00000000000E+00 -0.40264685673E+02  0.40264685673E+02  0.00000000000E+00 0. -1.
         25    2    1    2    0    0  0.43619663300E+02  0.80591184214E+02  0.23070869066E+03  0.27793508631E+03  0.12499519295E+03 0.  0.
          2    1    1    2  501    0 -0.79605652550E+02  0.16590906881E+00  0.94150526285E+02  0.12329399435E+03  0.00000000000E+00 0. -1.
          1    1    1    2  502    0  0.35985989250E+02 -0.80757093283E+02  0.93753861590E+03  0.94169812352E+03  0.00000000000E+00 0. -1.
         22    1    3    3    0    0  0.59589689352E+02  0.91693429667E+02  0.10800705610E+03  0.15370146482E+03  0.00000000000E+00 0.  1.
         22    1    3    3    0    0 -0.15970026052E+02 -0.11102245453E+02  0.12270163456E+03  0.12423362149E+03  0.00000000000E+00 0.  1.
</event>
<event>
 7    1  0.6273950E-006  0.5137343E+02  0.7818608E-02  0.1471040E+00
          2   -1    0    0  502    0  0.00000000000E+00  0.00000000000E+00  0.32951155971E+03  0.32951155971E+03  0.00000000000E+00 0. -1.
          1   -1    0    0  501    0 -0.00000000000E+00 -0.00000000000E+00 -0.52469871581E+03  0.52469871581E+03  0.00000000000E+00 0. -1.
         25    2    1    2    0    0 -0.17014725440E+02  0.14245326729E+01 -0.28256443445E+02  0.12928700560E+03  0.12500069218E+03 0.  0.
          2    1    1    2  501    0  0.38849365267E+02 -0.35364725933E+02 -0.44290699543E+03  0.44601182005E+03  0.00000000000E+00 0. -1.
          1    1    1    2  502    0 -0.21834639827E+02  0.33940193260E+02  0.27597628278E+03  0.27891144987E+03  0.00000000000E+00 0. -1.
         22    1    3    3    0    0 -0.45653969912E+02  0.50700863895E+02 -0.75296418843E+01  0.68640790172E+02  0.00000000000E+00 0. -1.
         22    1    3    3    0    0  0.28639244472E+02 -0.49276331222E+02 -0.20726801560E+02  0.60646215427E+02  0.00000000000E+00 0. -1.
</event>
<event>
 7    1  0.6273950E-006  0.1517001E+03  0.7818608E-02  0.1297337E+00
          2   -1    0    0  502    0  0.00000000000E+00  0.00000000000E+00  0.34438794342E+03  0.34438794342E+03  0.00000000000E+00 0. -1.
          1   -1    0    0  501    0 -0.00000000000E+00 -0.00000000000E+00 -0.55946918126E+03  0.55946918126E+03  0.00000000000E+00 0. -1.
         25    2    1    2    0    0  0.37292111167E+02 -0.12935872683E+03 -0.15245205296E+03  0.23872623082E+03  0.12499681223E+03 0.  0.
          2    1    1    2  501    0  0.91818146533E+01  0.16092154987E+03 -0.34310760650E+03  0.37908162785E+03  0.00000000000E+00 0. -1.
          1    1    1    2  502    0 -0.46473925820E+02 -0.31562823033E+02  0.28047842163E+03  0.28604926600E+03  0.00000000000E+00 0. -1.
         22    1    3    3    0    0  0.75207030733E+02 -0.42189184227E+02 -0.53334785168E+02  0.10139341224E+03  0.00000000000E+00 0.  1.
         22    1    3    3    0    0 -0.37914919566E+02 -0.87169542607E+02 -0.99117267797E+02  0.13733281858E+03  0.00000000000E+00 0.  1.
</event>
<event>
 7    1  0.7760318E-006  0.1504934E+03  0.7818608E-02  0.1223307E+00
          2   -1    0    0  502    0  0.00000000000E+00  0.00000000000E+00  0.89991012322E+03  0.89991012322E+03  0.00000000000E+00 0. -1.
          1   -1    0    0  501    0 -0.00000000000E+00 -0.00000000000E+00 -0.90585998516E+03  0.90585998516E+03  0.00000000000E+00 0. -1.
         25    2    1    2    0    0 -0.21077156645E+02  0.39036296282E+02 -0.26804788873E+03  0.29907048740E+03  0.12500162727E+03 0.  0.
          2    1    1    2  501    0 -0.11041090565E+03  0.39459988515E+02 -0.61004690597E+03  0.62121243248E+03  0.00000000000E+00 0. -1.
          1    1    1    2  502    0  0.13148806229E+03 -0.78496284798E+02  0.87214493277E+03  0.88548718850E+03  0.00000000000E+00 0. -1.
         22    1    3    3    0    0  0.25551305518E+02  0.51961825536E+02 -0.23095160683E+03  0.23809986398E+03  0.00000000000E+00 0. -1.
         22    1    3    3    0    0 -0.46628462163E+02 -0.12925529254E+02 -0.37096281899E+02  0.60970623425E+02  0.00000000000E+00 0. -1.
</event>
<event>
 7    1  0.6273950E-006  0.2397174E+02  0.7818608E-02  0.1691774E+00
          2   -1    0    0  502    0  0.00000000000E+00  0.00000000000E+00  0.17614555358E+03  0.17614555358E+03  0.00000000000E+00 0. -1.
          1   -1    0    0  501    0 -0.00000000000E+00 -0.00000000000E+00 -0.19291058816E+03  0.19291058816E+03  0.00000000000E+00 0. -1.
         25    2    1    2    0    0  0.10056319581E+01  0.45864155995E+01  0.13056977025E+03  0.18081996730E+03  0.12500139667E+03 0.  0.
          2    1    1    2  501    0 -0.22812346162E+02 -0.77598547621E+01 -0.16067809811E+03  0.16247482788E+03  0.00000000000E+00 0. -1.
          1    1    1    2  502    0  0.21806714204E+02  0.31734391625E+01  0.13343293280E+02  0.25761346550E+02  0.00000000000E+00 0. -1.
         22    1    3    3    0    0 -0.61576743674E+02  0.72397018147E+01  0.57290788654E+02  0.84417670594E+02  0.00000000000E+00 0.  1.
         22    1    3    3    0    0  0.62582375632E+02 -0.26532862152E+01  0.73278981596E+02  0.96402296711E+02  0.00000000000E+00 0.  1.
</event>
<event>
 7    1  0.6273950E-006  0.6969270E+02  0.7818608E-02  0.1493404E+00
          2   -1    0    0  502    0  0.00000000000E+00  0.00000000000E+00  0.24667974906E+03  0.24667974906E+03  0.00000000000E+00 0. -1.
          1   -1    0    0  501    0 -0.00000000000E+00 -0.00000000000E+00 -0.10875260347E+03  0.10875260347E+03  0.00000000000E+00 0. -1.
         25    2    1    2    0    0  0.33934966409E+02 -0.36654708535E+02  0.55761990695E+02  0.14568966746E+03  0.12498371892E+03 0.  0.
          2    1    1    2  501    0  0.84863664931E+01 -0.23955123629E+02 -0.51240698091E+02  0.57196813767E+02  0.00000000000E+00 0. -1.
          1    1    1    2  502    0 -0.42421332902E+02  0.60609832164E+02  0.13340585299E+03  0.15254587130E+03  0.00000000000E+00 0. -1.
         22    1    3    3    0    0  0.26917770998E+02 -0.80140834813E+02  0.56416200229E+02  0.10163615227E+03  0.00000000000E+00 0.  1.
         22    1    3    3    0    0  0.70171954113E+01  0.43486126278E+02 -0.65420953447E+00  0.44053515186E+02  0.00000000000E+00 0.  1.
</event>
<event>
 7    1  0.6273950E-006  0.8828791E+02  0.7818608E-02  0.1397116E+00
          2   -1    0    0  502    0  0.00000000000E+00  0.00000000000E+00  0.29668067021E+04  0.29668067021E+04  0.00000000000E+00 0. -1.
          1   -1    0    0  501    0 -0.00000000000E+00 -0.00000000000E+00 -0.94455604471E+03  0.94455604471E+03  0.00000000000E+00 0. -1.
         25    2    1    2    0    0 -0.34985246258E+02 -0.10615589354E+03  0.14843046201E+04  0.14937462805E+04  0.12499881612E+03 0.  0.
          2    1    1    2  501    0  0.53996610117E+02  0.69820616229E+02 -0.93747737301E+03  0.94162326716E+03  0.00000000000E+00 0. -1.
          1    1    1    2  502    0 -0.19011363860E+02  0.36335277309E+02  0.14754234103E+04  0.14759931992E+04  0.00000000000E+00 0. -1.
         22    1    3    3    0    0 -0.60966390851E+02 -0.26412169824E+02  0.34375159935E+03  0.35011378948E+03  0.00000000000E+00 0. -1.
         22    1    3    3    0    0  0.25981144594E+02 -0.79743723715E+02  0.11405530207E+04  0.11436324910E+04  0.00000000000E+00 0. -1.
</event>
<event>
 7    1  0.6273950E-006  0.3753543E+02  0.7818608E-02  0.1592196E+00
          2   -1    0    0  502    0  0.00000000000E+00  0.00000000000E+00  0.12287607540E+03  0.12287607540E+03  0.00000000000E+00 0. -1.
          1   -1    0    0  501    0 -0.00000000000E+00 -0.00000000000E+00 -0.11225379414E+04  0.11225379414E+04  0.00000000000E+00 0. -1.
         25    2    1    2    0    0 -0.19288943008E+02 -0.54167438330E+02 -0.58341227123E+03  0.59941709016E+03  0.12499918024E+03 0.  0.
          2    1    1    2  501    0  0.21060333042E+02  0.29382544551E+02 -0.52915558140E+03  0.53038900901E+03  0.00000000000E+00 0. -1.
          1    1    1    2  502    0 -0.17713900342E+01  0.24784893779E+02  0.11290598667E+03  0.11560791758E+03  0.00000000000E+00 0. -1.
         22    1    3    3    0    0 -0.51277803063E+02 -0.57146368034E+02 -0.19339308893E+03  0.20807692643E+03  0.00000000000E+00 0.  1.
         22    1    3    3    0    0  0.31988860055E+02  0.29789297041E+01 -0.39001918230E+03  0.39134016373E+03  0.00000000000E+00 0.  1.
</event>
<event>
 7    1  0.6273950E-006  0.6471988E+02  0.7818608E-02  0.1393359E+00
          2   -1    0    0  502    0  0.00000000000E+00  0.00000000000E+00  0.89541033467E+03  0.89541033467E+03  0.00000000000E+00 0. -1.
          1   -1    0    0  501    0 -0.00000000000E+00 -0.00000000000E+00 -0.43349082913E+03  0.43349082913E+03  0.00000000000E+00 0. -1.
         25    2    1    2    0    0 -0.92585831272E+01  0.29608867322E+02 -0.15733176602E+02  0.12975139823E+03  0.12500194443E+03 0.  0.
          2    1    1    2  501    0  0.54926452455E+02  0.17486098633E+02 -0.35715088102E+03  0.36177262284E+03  0.00000000000E+00 0. -1.
          1    1    1    2  502    0 -0.45667869328E+02 -0.47094965954E+02  0.83480356316E+03  0.83737714273E+03  0.00000000000E+00 0. -1.
         22    1    3    3    0    0  0.23964739917E+02 -0.19076474808E+02 -0.52141030451E+02  0.60472371434E+02  0.00000000000E+00 0.  1.
         22    1    3    3    0    0 -0.33223323044E+02  0.48685342130E+02  0.36407853849E+02  0.69279026800E+02  0.00000000000E+00 0.  1.
</event>
<event>
 7    1  0.6273950E-006  0.1202242E+03  0.7818608E-02  0.1297462E+00
          2   -1    0    0  502    0  0.00000000000E+00  0.00000000000E+00  0.61652889190E+03  0.61652889190E+03  0.00000000000E+00 0. -1.
          1   -1    0    0  501    0 -0.00000000000E+00 -0.00000000000E+00 -0.48089954355E+03  0.48089954355E+03  0.00000000000E+00 0. -1.
         25    2    1    2    0    0  0.10969333764E+03 -0.14935168045E+03  0.41419049071E+02  0.22733405247E+03  0.12500672386E+03 0.  0.
          2    1    1    2  501    0 -0.48706911150E+02  0.51390955547E+02 -0.37770062466E+03  0.38428004811E+03  0.00000000000E+00 0. -1.
          1    1    1    2  502    0 -0.60986426487E+02  0.97960724903E+02  0.47191092394E+03  0.48581433487E+03  0.00000000000E+00 0. -1.
         22    1    3    3    0    0 -0.15477856056E+01  0.12012087521E+01 -0.27714778716E+02  0.27783943241E+02  0.00000000000E+00 0.  1.
         22    1    3    3    0    0  0.11124112324E+03 -0.15055288920E+03  0.69133827787E+02  0.19955010923E+03  0.00000000000E+00 0.  1.
</event>
<event>
 7    1  0.6273950E-006  0.7933302E+02  0.7818608E-02  0.1384013E+00
          2   -1    0    0  502    0  0.00000000000E+00  0.00000000000E+00  0.17562615082E+04  0.17562615082E+04  0.00000000000E+00 0. -1.
          1   -1    0    0  501    0 -0.00000000000E+00 -0.00000000000E+00 -0.15341437619E+03  0.15341437619E+03  0.00000000000E+00 0. -1.
         25    2    1    2    0    0 -0.93506418051E+02 -0.27084373155E+02  0.11235533110E+04  0.11346692075E+04  0.12500061748E+03 0.  0.
          2    1    1    2  501    0  0.42008981446E+02 -0.28384919708E+02 -0.14114168467E+03  0.14997144175E+03  0.00000000000E+00 0. -1.
          1    1    1    2  502    0  0.51497436605E+02  0.55469292863E+02  0.62043550570E+03  0.62503523514E+03  0.00000000000E+00 0. -1.
         22    1    3    3    0    0 -0.11055178237E+03 -0.30363152312E+01  0.10438102732E+04  0.10496527055E+04  0.00000000000E+00 0. -1.
         22    1    3    3    0    0  0.17045364319E+02 -0.24048057923E+02  0.79743037861E+02  0.85016502057E+02  0.00000000000E+00 0. -1.
</event>
<event>
 7    1  0.6273950E-006  0.9540708E+02  0.7818608E-02  0.1310199E+00
          2   -1    0    0  502    0  0.00000000000E+00  0.00000000000E+00  0.11458504792E+04  0.11458504792E+04  0.00000000000E+00 0. -1.
          1   -1    0    0  501    0 -0.00000000000E+00 -0.00000000000E+00 -0.22921209408E+04  0.22921209408E+04  0.00000000000E+00 0. -1.
         25    2    1    2    0    0  0.96796456641E+02  0.13481478543E+03  0.40063283776E+03  0.45130847702E+03  0.12501236079E+03 0.  0.
          2    1    1    2  501    0 -0.31275566368E+02 -0.89976497196E+02 -0.22635892858E+04  0.22655927229E+04  0.00000000000E+00 0. -1.
          1    1    1    2  502    0 -0.65520890273E+02 -0.44838288229E+02  0.71668598640E+03  0.72107022006E+03  0.00000000000E+00 0. -1.
         22    1    3    3    0    0 -0.15812722834E+02 -0.94129370694E+01  0.12620259985E+02  0.22314043780E+02  0.00000000000E+00 0.  1.
         22    1    3    3    0    0  0.11260917948E+03  0.14422772249E+03  0.38801257777E+03  0.42899443324E+03  0.00000000000E+00 0.  1.
</event>
<event>
 7    1  0.6273950E-006  0.5425216E+02  0.7818608E-02  0.1454497E+00
          2   -1    0    0  502    0  0.00000000000E+00  0.00000000000E+00  0.67646960113E+03  0.67646960113E+03  0.00000000000E+00 0. -1.
          1   -1    0    0  501    0 -0.00000000000E+00 -0.00000000000E+00 -0.15205254123E+03  0.15205254123E+03  0.00000000000E+00 0. -1.
         25    2    1    2    0    0  0.41802846012E+02  0.75862400130E+02  0.31532840897E+03  0.35009413857E+03  0.12502527212E+03 0.  0.
          2    1    1    2  501    0 -0.25200258043E+01 -0.43001161474E+02 -0.12924804046E+03  0.13623694940E+03  0.00000000000E+00 0. -1.
          1    1    1    2  502    0 -0.39282820207E+02 -0.32861238656E+02  0.33833669138E+03  0.34219105439E+03  0.00000000000E+00 0. -1.
         22    1    3    3    0    0  0.28537468862E+02  0.86537434112E+02  0.10478479008E+03  0.13886312276E+03  0.00000000000E+00 0. -1.
         22    1    3    3    0    0  0.13265377150E+02 -0.10675033982E+02  0.21054361890E+03  0.21123101581E+03  0.00000000000E+00 0. -1.
</event>
<event>
 7    1  0.6273950E-006  0.1427708E+03  0.7818608E-02  0.1376207E+00
          2   -1    0    0  502    0  0.00000000000E+00  0.00000000000E+00  0.77057436675E+03  0.77057436675E+03  0.00000000000E+00 0. -1.
          1   -1    0    0  501    0 -0.00000000000E+00 -0.00000000000E+00 -0.85745863372E+02  0.85745863372E+02  0.00000000000E+00 0. -1.
         25    2    1    2    0    0  0.11045222813E+03 -0.11103300421E+03  0.32582246932E+03  0.38251079105E+03  0.12500480404E+03 0.  0.
          2    1    1    2  501    0  0.88097232842E+00  0.30010661810E+02 -0.40971447240E+02  0.50794442840E+02  0.00000000000E+00 0. -1.
          1    1    1    2  502    0 -0.11133320046E+03  0.81022342399E+02  0.39997748130E+03  0.42301499623E+03  0.00000000000E+00 0. -1.
         22    1    3    3    0    0  0.78738322561E+02 -0.83924691052E+02  0.32039905133E+03  0.34043887748E+03  0.00000000000E+00 0.  1.
         22    1    3    3    0    0  0.31713905565E+02 -0.27108313157E+02  0.54234179883E+01  0.42071913566E+02  0.00000000000E+00 0.  1.
</event>
<event>
 7    1  0.6273950E-006  0.1079638E+03  0.7818608E-02  0.1268013E+00
          2   -1    0    0  502    0  0.00000000000E+00  0.00000000000E+00  0.50651621785E+03  0.50651621785E+03  0.00000000000E+00 0. -1.
          1   -1    0    0  501    0 -0.00000000000E+00 -0.00000000000E+00 -0.33847650613E+03  0.33847650613E+03  0.00000000000E+00 0. -1.
         25    2    1    2    0    0 -0.53719049302E+02  0.49835866454E+01  0.11921214124E+03  0.18095763331E+03  0.12499423203E+03 0.  0.
          2    1    1    2  501    0 -0.37808119480E+02  0.97123022713E+02 -0.28482996674E+03  0.30329926705E+03  0.00000000000E+00 0. -1.
          1    1    1    2  502    0  0.91527168782E+02 -0.10210660936E+03  0.33365753722E+03  0.36073582362E+03  0.00000000000E+00 0. -1.
         22    1    3    3    0    0 -0.75954142339E+02 -0.28260544506E+02  0.36089766327E+02  0.88713929841E+02  0.00000000000E+00 0. -1.
         22    1    3    3    0    0  0.22235093038E+02  0.33244131151E+02  0.83122374917E+02  0.92243703472E+02  0.00000000000E+00 0. -1.
</event>
<event>
 7    1  0.6273950E-006  0.1254483E+03  0.7818608E-02  0.1247587E+00
          2   -1    0    0  502    0  0.00000000000E+00  0.00000000000E+00  0.34222242921E+03  0.34222242921E+03  0.00000000000E+00 0. -1.
          1   -1    0    0  501    0 -0.00000000000E+00 -0.00000000000E+00 -0.11689932119E+04  0.11689932119E+04  0.00000000000E+00 0. -1.
         25    2    1    2    0    0  0.20014849354E+03 -0.33432716903E+02 -0.92371285363E+02  0.25560601231E+03  0.12499925257E+03 0.  0.
          2    1    1    2  501    0 -0.98140398336E+02  0.73828639227E+02 -0.97944983082E+03  0.98711913002E+03  0.00000000000E+00 0. -1.
          1    1    1    2  502    0 -0.10200809521E+03 -0.40395922324E+02  0.24505033345E+03  0.26849049882E+03  0.00000000000E+00 0. -1.
         22    1    3    3    0    0  0.21591864622E+03 -0.25937648266E+02 -0.96089804174E+02  0.23775380933E+03  0.00000000000E+00 0.  1.
         22    1    3    3    0    0 -0.15770152675E+02 -0.74950686375E+01  0.37185188108E+01  0.17852202985E+02  0.00000000000E+00 0.  1.
</event>
<event>
 7    1  0.6273950E-006  0.1070874E+03  0.7818608E-02  0.1423769E+00
          2   -1    0    0  502    0  0.00000000000E+00  0.00000000000E+00  0.22002111363E+03  0.22002111363E+03  0.00000000000E+00 0. -1.
          1   -1    0    0  501    0 -0.00000000000E+00 -0.00000000000E+00 -0.54476772047E+03  0.54476772047E+03  0.00000000000E+00 0. -1.
         25    2    1    2    0    0 -0.13164133266E+03  0.59124712738E+01 -0.13949428289E+02  0.18216496228E+03  0.12500035661E+03 0.  0.
          2    1    1    2  501    0  0.10526331827E+03  0.17345014020E+01 -0.43903350352E+03  0.45147955866E+03  0.00000000000E+00 0. -1.
          1    1    1    2  502    0  0.26378014390E+02 -0.76469726759E+01  0.12823632496E+03  0.13114431316E+03  0.00000000000E+00 0. -1.
         22    1    3    3    0    0 -0.11807287095E+03  0.43258014706E+02 -0.43051758162E+02  0.13291317682E+03  0.00000000000E+00 0. -1.
         22    1    3    3    0    0 -0.13568461707E+02 -0.37345543432E+02  0.29102329872E+02  0.49251785463E+02  0.00000000000E+00 0. -1.
</event>
<event>
 7    1  0.6273950E-006  0.1741909E+03  0.7818608E-02  0.1225789E+00
          2   -1    0    0  502    0  0.00000000000E+00  0.00000000000E+00  0.14078339356E+04  0.14078339356E+04  0.00000000000E+00 0. -1.
          1   -1    0    0  501    0 -0.00000000000E+00 -0.00000000000E+00 -0.17736542553E+04  0.17736542553E+04  0.00000000000E+00 0. -1.
         25    2    1    2    0    0 -0.17385284906E+03  0.11253741676E+02  0.14688869782E+03  0.25990914091E+03  0.12500004862E+03 0.  0.
          2    1    1    2  501    0  0.31218349763E+02  0.93646579898E+02 -0.17092053288E+04  0.17120534814E+04  0.00000000000E+00 0. -1.
          1    1    1    2  502    0  0.14263449929E+03 -0.10490032157E+03  0.11964963113E+04  0.12095255685E+04  0.00000000000E+00 0. -1.
         22    1    3    3    0    0 -0.62823792867E+02  0.27778271576E+02 -0.74200325589E+01  0.69090652082E+02  0.00000000000E+00 0. -1.
         22    1    3    3    0    0 -0.11102905619E+03 -0.16524529900E+02  0.15430873038E+03  0.19081848883E+03  0.00000000000E+00 0. -1.
</event>
<event>
 7    1  0.6273950E-006  0.1102203E+03  0.7818608E-02  0.1339210E+00
          2   -1    0    0  502    0  0.00000000000E+00  0.00000000000E+00  0.72851235768E+03  0.72851235768E+03  0.00000000000E+00 0. -1.
          1   -1    0    0  501    0 -0.00000000000E+00 -0.00000000000E+00 -0.88794774894E+02  0.88794774894E+02  0.00000000000E+00 0. -1.
         25    2    1    2    0    0 -0.10299669675E+03  0.75089602986E+02  0.15720656318E+03  0.23790023308E+03  0.12504338997E+03 0.  0.
          2    1    1    2  501    0  0.53116321847E+02 -0.93390951916E+02  0.14527684632E+02  0.10841709813E+03  0.00000000000E+00 0. -1.
          1    1    1    2  502    0  0.49880374903E+02  0.18301348929E+02  0.46798333498E+03  0.47098980137E+03  0.00000000000E+00 0. -1.
         22    1    3    3    0    0 -0.30808814017E+01 -0.21200410911E+02 -0.73486043302E+01  0.22648426846E+02  0.00000000000E+00 0.  1.
         22    1    3    3    0    0 -0.99915815348E+02  0.96290013898E+02  0.16455516751E+03  0.21525180623E+03  0.00000000000E+00 0.  1.
</event>
<event>
 7    1  0.6273950E-006  0.6272742E+02  0.7818608E-02  0.1488897E+00
          2   -1    0    0  502    0  0.00000000000E+00  0.00000000000E+00  0.91603599762E+02  0.91603599762E+02  0.00000000000E+00 0. -1.
          1   -1    0    0  501    0 -0.00000000000E+00 -0.00000000000E+00 -0.10680764448E+04  0.10680764448E+04  0.00000000000E+00 0. -1.
         25    2    1    2    0    0 -0.35938481049E+02  0.52433214401E+02 -0.73637744368E+03  0.74960992414E+03  0.12498992923E+03 0.  0.
          2    1    1    2  501    0  0.91365330784E+01 -0.63857264087E+02 -0.31926135895E+03  0.32571312797E+03  0.00000000000E+00 0. -1.
          1    1    1    2  502    0  0.26801947971E+02  0.11424049685E+02  0.79165957619E+02  0.84356992431E+02  0.00000000000E+00 0. -1.
         22    1    3    3    0    0 -0.93406947749E+01  0.68912205000E+01 -0.63699226804E+03  0.63709801996E+03  0.00000000000E+00 0.  1.
         22    1    3    3    0    0 -0.26597786274E+02  0.45541993901E+02 -0.99385175640E+02  0.11251190417E+03  0.00000000000E+00 0.  1.
</event>
<event>
 7    1  0.6273950E-006  0.4529533E+02  0.7818608E-02  0.1589844E+00
          2   -1    0    0  502    0  0.00000000000E+00  0.00000000000E+00  0.90462345333E+03  0.90462345333E+03  0.00000000000E+00 0. -1.
          1   -1    0    0  501    0 -0.00000000000E+00 -0.00000000000E+00 -0.10109376735E+04  0.10109376735E+04  0.00000000000E+00 0. -1.
         25    2    1    2    0    0 -0.26825678961E+02  0.13285105068E+01  0.15398828343E+01  0.12791965528E+03  0.12505872611E+03 0.  0.
          2    1    1    2  501    0 -0.16338195382E+02  0.13014578821E+02 -0.94701672976E+03  0.94724706510E+03  0.00000000000E+00 0. -1.
          1    1    1    2  502    0  0.43163874343E+02 -0.14343089328E+02  0.83916262676E+03  0.84039440646E+03  0.00000000000E+00 0. -1.
         22    1    3    3    0    0 -0.16864898066E+02  0.15187626113E+02  0.61512474801E+02  0.65565793901E+02  0.00000000000E+00 0. -1.
         22    1    3    3    0    0 -0.99607808953E+01 -0.13859115606E+02 -0.59972591966E+02  0.62353861377E+02  0.00000000000E+00 0. -1.
</event>
<event>
 7    1  0.6273950E-006  0.8362565E+02  0.7818608E-02  0.1375836E+00
          2   -1    0    0  502    0  0.00000000000E+00  0.00000000000E+00  0.23683892233E+04  0.23683892233E+04  0.00000000000E+00 0. -1.
          1   -1    0    0  501    0 -0.00000000000E+00 -0.00000000000E+00 -0.28069402923E+03  0.28069402923E+03  0.00000000000E+00 0. -1.
         25    2    1    2    0    0  0.61768072336E+02  0.10089900470E+03  0.43010016256E+03  0.46325532974E+03  0.12499378702E+03 0.  0.
          2    1    1    2  501    0 -0.66752179071E+02 -0.49726708738E+02 -0.25720451420E+03  0.27033823462E+03  0.00000000000E+00 0. -1.
          1    1    1    2  502    0  0.49841067345E+01 -0.51172295964E+02  0.19147995457E+04  0.19154896882E+04  0.00000000000E+00 0. -1.
         22    1    3    3    0    0  0.23190289330E+02  0.37642468140E+02  0.35505529146E+03  0.35779743559E+03  0.00000000000E+00 0.  1.
         22    1    3    3    0    0  0.38577783006E+02  0.63256536562E+02  0.75044871102E+02  0.10545789415E+03  0.00000000000E+00 0.  1.
</event>
<event>
 7    1  0.6273950E-006  0.8245793E+02  0.7818608E-02  0.1377456E+00
          2   -1    0    0  502    0  0.00000000000E+00  0.00000000000E+00  0.13751627019E+04  0.13751627019E+04  0.00000000000E+00 0. -1.
          1   -1    0    0  501    0 -0.00000000000E+00 -0.00000000000E+00 -0.13842720695E+03  0.13842720695E+03  0.00000000000E+00 0. -1.
         25    2    1    2    0    0 -0.51054521919E+02 -0.11066250648E+03  0.33340129884E+02  0.17773155844E+03  0.12499675219E+03 0.  0.
          2    1    1    2  501    0  0.45541466807E+02  0.59503755301E+02 -0.44336633842E+02  0.87065832530E+02  0.00000000000E+00 0. -1.
          1    1    1    2  502    0  0.55130551124E+01  0.51158751178E+02  0.12477319989E+04  0.12487925179E+04  0.00000000000E+00 0. -1.
         22    1    3    3    0    0  0.33316543095E+02 -0.25770200445E+02 -0.20082060486E+02  0.46662452016E+02  0.00000000000E+00 0.  1.
         22    1    3    3    0    0 -0.84371065014E+02 -0.84892306034E+02  0.53422190370E+02  0.13106910643E+03  0.00000000000E+00 0.  1.
</event>
<event>
 7    1  0.6273950E-006  0.6666768E+02  0.7818608E-02  0.1401965E+00
          2   -1    0    0  502    0  0.00000000000E+00  0.00000000000E+00  0.22744437433E+04  0.22744437433E+04  0.00000000000E+00 0. -1.
          1   -1    0    0  501    0 -0.00000000000E+00 -0.00000000000E+00 -0.37431338525E+03  0.37431338525E+03  0.00000000000E+00 0. -1.
         25    2    1    2    0    0  0.34256481412E+02  0.82960213598E+01  0.55649991654E+03  0.57145349795E+03  0.12499845085E+03 0.  0.
          2    1    1    2  501    0  0.23618513622E+01  0.52206792258E+02 -0.36423979358E+03  0.36796977420E+03  0.00000000000E+00 0. -1.
          1    1    1    2  502    0 -0.36618332775E+02 -0.60502813618E+02  0.17078702351E+04  0.17093338564E+04  0.00000000000E+00 0. -1.
         22    1    3    3    0    0 -0.44761714557E+02  0.19436807631E+02  0.17372263654E+03  0.18044654341E+03  0.00000000000E+00 0. -1.
         22    1    3    3    0    0  0.79018195970E+02 -0.11140786271E+02  0.38277728000E+03  0.39100695454E+03  0.00000000000E+00 0. -1.
</event>
<event>
 7    1  0.6273950E-006  0.6128493E+02  0.7818608E-02  0.1423041E+00
          2   -1    0    0  502    0  0.00000000000E+00  0.00000000000E+00  0.78535803936E+02  0.78535803936E+02  0.00000000000E+00 0. -1.
          1   -1    0    0  501    0 -0.00000000000E+00 -0.00000000000E+00 -0.49527740120E+03  0.49527740120E+03  0.00000000000E+00 0. -1.
         25    2    1    2    0    0 -0.25429943850E+02 -0.44083669023E+01 -0.19731153856E+03  0.23499636033E+03  0.12500132150E+03 0.  0.
          2    1    1    2  501    0 -0.15755005717E+02 -0.45613678588E+02 -0.25862538595E+03  0.26308918286E+03  0.00000000000E+00 0. -1.
          1    1    1    2  502    0  0.41184949567E+02  0.50022045491E+02  0.39195327244E+02  0.75727661945E+02  0.00000000000E+00 0. -1.
         22    1    3    3    0    0 -0.70188302564E+02  0.76461920835E+01 -0.69635532903E+02  0.99166372894E+02  0.00000000000E+00 0. -1.
         22    1    3    3    0    0  0.44758358714E+02 -0.12054558986E+02 -0.12767600566E+03  0.13582998744E+03  0.00000000000E+00 0. -1.
</event>
<event>
 7    1  0.6273950E-006  0.8430537E+02  0.7818608E-02  0.1356764E+00
          2   -1    0    0  502    0  0.00000000000E+00  0.00000000000E+00  0.44815470742E+03  0.44815470742E+03  0.00000000000E+00 0. -1.
          1   -1    0    0  501    0 -0.00000000000E+00 -0.00000000000E+00 -0.17174684046E+04  0.17174684046E+04  0.00000000000E+00 0. -1.
         25    2    1    2    0    0  0.79816298585E+02 -0.10123048340E+03 -0.45930312569E+03  0.49315554009E+03  0.12499909267E+03 0.  0.
          2    1    1    2  501    0 -0.69925288532E+01  0.59364722062E+02 -0.12364195064E+04  0.12378635876E+04  0.00000000000E+00 0. -1.
          1    1    1    2  502    0 -0.72823769732E+02  0.41865761334E+02  0.42640893492E+03  0.43460398433E+03  0.00000000000E+00 0. -1.
         22    1    3    3    0    0 -0.28701608727E+02 -0.41756884907E+02 -0.19240986231E+03  0.19896978387E+03  0.00000000000E+00 0.  1.
         22    1    3    3    0    0  0.10851790731E+03 -0.59473598490E+02 -0.26689326338E+03  0.29418575622E+03  0.00000000000E+00 0.  1.
</event>
<event>
 7    1  0.6273950E-006  0.7378070E+02  0.7818608E-02  0.1349264E+00
          2   -1    0    0  502    0  0.00000000000E+00  0.00000000000E+00  0.82361765145E+03  0.82361765145E+03  0.00000000000E+00 0. -1.
          1   -1    0    0  501    0 -0.00000000000E+00 -0.00000000000E+00 -0.40174276995E+03  0.40174276995E+03  0.00000000000E+00 0. -1.
         25    2    1    2    0    0  0.43727030257E+02  0.29627557983E+02  0.13693181893E+03  0.19278310309E+03  0.12500062574E+03 0.  0.
          2    1    1    2  501    0  0.14270617855E+02 -0.73618050541E+02 -0.36801341996E+03  0.37557575157E+03  0.00000000000E+00 0. -1.
          1    1    1    2  502    0 -0.57997648112E+02  0.43990492558E+02  0.65295648253E+03  0.65700156674E+03  0.00000000000E+00 0. -1.
         22    1    3    3    0    0 -0.43084230078E+02  0.89334469422E+01  0.63269306593E+02  0.77065313290E+02  0.00000000000E+00 0.  1.
         22    1    3    3    0    0  0.86811260336E+02  0.20694111041E+02  0.73662512340E+02  0.11571778980E+03  0.00000000000E+00 0.  1.
</event>
<event>
 7    1  0.6273950E-006  0.4546695E+02  0.7818608E-02  0.1497757E+00
          2   -1    0    0  502    0  0.00000000000E+00  0.00000000000E+00  0.64890444242E+03  0.64890444242E+03  0.00000000000E+00 0. -1.
          1   -1    0    0  501    0 -0.00000000000E+00 -0.00000000000E+00 -0.30946295407E+02  0.30946295407E+02  0.00000000000E+00 0. -1.
         25    2    1    2    0    0 -0.46629141038E+02 -0.25662508235E+02  0.29478599532E+03  0.32458683909E+03  0.12499996780E+03 0.  0.
          2    1    1    2  501    0  0.33023610720E+02 -0.18392838663E+02  0.10529257596E+02  0.39239274262E+02  0.00000000000E+00 0. -1.
          1    1    1    2  502    0  0.13605530318E+02  0.44055346898E+02  0.31264289410E+03  0.31602462448E+03  0.00000000000E+00 0. -1.
         22    1    3    3    0    0  0.35707214619E+02  0.11770457416E+02  0.14333727227E+03  0.14818610753E+03  0.00000000000E+00 0. -1.
         22    1    3    3    0    0 -0.82336355657E+02 -0.37432965651E+02  0.15144872305E+03  0.17640073156E+03  0.00000000000E+00 0. -1.
</event>
<event>
 7    1  0.6273950E-006  0.7360260E+02  0.7818608E-02  0.1359101E+00
          2   -1    0    0  502    0  0.00000000000E+00  0.00000000000E+00  0.22550378625E+04  0.22550378625E+04  0.00000000000E+00 0. -1.
          1   -1    0    0  501    0 -0.00000000000E+00 -0.00000000000E+00 -0.15035678901E+03  0.15035678901E+03  0.00000000000E+00 0. -1.
         25    2    1    2    0    0 -0.81234613941E+01 -0.87809925741E+01  0.54371490869E+00  0.12557186979E+03  0.12499960960E+03 0.  0.
          2    1    1    2  501    0  0.50677249803E+02  0.68835285850E+02 -0.66275951425E+02  0.10816183228E+03  0.00000000000E+00 0. -1.
          1    1    1    2  502    0 -0.42553788409E+02 -0.60054293276E+02  0.21704133100E+04  0.21716609494E+04  0.00000000000E+00 0. -1.
         22    1    3    3    0    0  0.31430994243E+01 -0.24668882800E+02 -0.58410252707E+02  0.63483781187E+02  0.00000000000E+00 0. -1.
         22    1    3    3    0    0 -0.11266560818E+02  0.15887890226E+02  0.58953967615E+02  0.62088088601E+02  0.00000000000E+00 0. -1.
</event>
<event>
 7    1  0.6273950E-006  0.1123686E+03  0.7818608E-02  0.1265767E+00
          2   -1    0    0  502    0  0.00000000000E+00  0.00000000000E+00  0.63351638367E+03  0.63351638367E+03  0.00000000000E+00 0. -1.
          1   -1    0    0  501    0 -0.00000000000E+00 -0.00000000000E+00 -0.41678065554E+03  0.41678065554E+03  0.00000000000E+00 0. -1.
         25    2    1    2    0    0  0.62638929691E+02  0.21473358774E+02 -0.21286838585E+03  0.25558218303E+03  0.12499824774E+03 0.  0.
          2    1    1    2  501    0 -0.16733544615E+03 -0.62281959995E+02 -0.13195805614E+03  0.22202054558E+03  0.00000000000E+00 0. -1.
          1    1    1    2  502    0  0.10469651646E+03  0.40808601221E+02  0.56156217012E+03  0.57269431060E+03  0.00000000000E+00 0. -1.
         22    1    3    3    0    0 -0.35474498960E+01 -0.61996209479E+01 -0.17370093909E+03  0.17384773781E+03  0.00000000000E+00 0.  1.
         22    1    3    3    0    0  0.66186379587E+02  0.27672979722E+02 -0.39167446757E+02  0.81734445217E+02  0.00000000000E+00 0.  1.
</event>
<event>
 7    1  0.6273950E-006  0.1108581E+03  0.7818608E-02  0.1325129E+00
          2   -1    0    0  502    0  0.00000000000E+00  0.00000000000E+00  0.86694729320E+03  0.86694729320E+03  0.00000000000E+00 0. -1.
          1   -1    0    0  501    0 -0.00000000000E+00 -0.00000000000E+00 -0.11588827805E+03  0.11588827805E+03  0.00000000000E+00 0. -1.
         25    2    1    2    0    0  0.66109884900E+02 -0.15393197256E+03  0.67508923165E+02  0.21965522024E+03  0.12500156804E+03 0.  0.
          2    1    1    2  501    0 -0.23819590497E+02  0.54815848178E+02 -0.10613211838E+02  0.60702474154E+02  0.00000000000E+00 0. -1.
          1    1    1    2  502    0 -0.42290294402E+02  0.99116124383E+02  0.69416330382E+03  0.70247787687E+03  0.00000000000E+00 0. -1.
         22    1    3    3    0    0  0.16922007076E+02  0.20983035218E+02  0.44301308583E+01  0.27317908958E+02  0.00000000000E+00 0.  1.
         22    1    3    3    0    0  0.49187877824E+02 -0.17491500778E+03  0.63078792307E+02  0.19233731128E+03  0.00000000000E+00 0.  1.
</event>
<event>
 7    1  0.6273950E-006  0.8036459E+02  0.7818608E-02  0.1342950E+00
          2   -1    0    0  502    0  0.00000000000E+00  0.00000000000E+00  0.17597614905E+04  0.17597614905E+04  0.00000000000E+00 0. -1.
          1   -1    0    0  501    0 -0.00000000000E+00 -0.00000000000E+00 -0.12353841239E+03  0.12353841239E+03  0.00000000000E+00 0. -1.
         25    2    1    2    0    0 -0.12553929714E+03 -0.94737153062E+01  0.33509310231E+03  0.37915990871E+03  0.12499993098E+03 0.  0.
          2    1    1    2  501    0  0.70875149653E+02 -0.35127842721E+02 -0.85059290355E+02  0.11615651100E+03  0.00000000000E+00 0. -1.
          1    1    1    2  502    0  0.54664147483E+02  0.44601558027E+02  0.13861892661E+04  0.13879834832E+04  0.00000000000E+00 0. -1.
         22    1    3    3    0    0 -0.12188255191E+03  0.22304676505E+02  0.16642473876E+03  0.20748505663E+03  0.00000000000E+00 0. -1.
         22    1    3    3    0    0 -0.36567452303E+01 -0.31778391811E+02  0.16866836355E+03  0.17167485208E+03  0.00000000000E+00 0. -1.
</event>
<event>
 7    1  0.6273950E-006  0.9659231E+02  0.7818608E-02  0.1467909E+00
          2   -1    0    0  502    0  0.00000000000E+00  0.00000000000E+00  0.17684302138E+03  0.17684302138E+03  0.00000000000E+00 0. -1.
          1   -1    0    0  501    0 -0.00000000000E+00 -0.00000000000E+00 -0.49699451132E+03  0.49699451132E+03  0.00000000000E+00 0. -1.
         25    2    1    2    0    0  0.78303193074E+02 -0.42912656678E+02 -0.17292494984E+03  0.23130298650E+03  0.12500058855E+03 0.  0.
          2    1    1    2  501    0 -0.51837557759E+01 -0.21330436047E+02 -0.27836112436E+03  0.27922531113E+03  0.00000000000E+00 0. -1.
          1    1    1    2  502    0 -0.73119437298E+02  0.64243092724E+02  0.13113458425E+03  0.16330923507E+03  0.00000000000E+00 0. -1.
         22    1    3    3    0    0 -0.29737056677E+02  0.10930193623E+01 -0.68699411591E+02  0.74867191640E+02  0.00000000000E+00 0.  1.
         22    1    3    3    0    0  0.10804024975E+03 -0.44005676040E+02 -0.10422553825E+03  0.15643579486E+03  0.00000000000E+00 0.  1.
</event>
<event>
 7    1  0.6273950E-006  0.4091353E+02  0.7818608E-02  0.1597689E+00
          2   -1    0    0  502    0  0.00000000000E+00  0.00000000000E+00  0.42542294907E+02  0.42542294907E+02  0.00000000000E+00 0. -1.
          1   -1    0    0  501    0 -0.00000000000E+00 -0.00000000000E+00 -0.58738982660E+03  0.58738982660E+03  0.00000000000E+00 0. -1.
         25    2    1    2    0    0  0.36694992839E+02 -0.19916226871E+02 -0.29928551795E+03  0.32701637047E+03  0.12499882682E+03 0.  0.
          2    1    1    2  501    0 -0.21189777595E+02  0.35594912163E+02 -0.26816074622E+03  0.27134146432E+03  0.00000000000E+00 0. -1.
          1    1    1    2  502    0 -0.15505215244E+02 -0.15678685292E+02  0.22598732479E+02  0.31574286720E+02  0.00000000000E+00 0. -1.
         22    1    3    3    0    0 -0.26467294397E+02 -0.31976704531E+02 -0.22486085723E+03  0.22866008051E+03  0.00000000000E+00 0.  1.
         22    1    3    3    0    0  0.63162287236E+02  0.12060477660E+02 -0.74424660719E+02  0.98356289954E+02  0.00000000000E+00 0.  1.
</event>
<event>
 7    1  0.6273950E-006  0.1683413E+03  0.7818608E-02  0.1284581E+00
          2   -1    0    0  502    0  0.00000000000E+00  0.00000000000E+00  0.13305639105E+04  0.13305639105E+04  0.00000000000E+00 0. -1.
          1   -1    0    0  501    0 -0.00000000000E+00 -0.00000000000E+00 -0.98901004028E+03  0.98901004028E+03  0.00000000000E+00 0. -1.
         25    2    1    2    0    0  0.76958075392E+02 -0.10440673563E+03 -0.24720388123E+02  0.18182119420E+03  0.12499814902E+03 0.  0.
          2    1    1    2  501    0 -0.15457747330E+02 -0.54904530022E+02 -0.87898748468E+03  0.88083622064E+03  0.00000000000E+00 0. -1.
          1    1    1    2  502    0 -0.61500328062E+02  0.15931126565E+03  0.12452617431E+04  0.12569165360E+04  0.00000000000E+00 0. -1.
         22    1    3    3    0    0  0.98625393854E+02 -0.46064123442E+02 -0.42873761992E+02  0.11699158623E+03  0.00000000000E+00 0.  1.
         22    1    3    3    0    0 -0.21667318463E+02 -0.58342612187E+02  0.18153373870E+02  0.64829607966E+02  0.00000000000E+00 0.  1.
</event>
<event>
 7    1  0.6273950E-006  0.2634424E+02  0.7818608E-02  0.1666128E+00
          2   -1    0    0  502    0  0.00000000000E+00  0.00000000000E+00  0.18145329410E+04  0.18145329410E+04  0.00000000000E+00 0. -1.
          1   -1    0    0  501    0 -0.00000000000E+00 -0.00000000000E+00 -0.17239516731E+03  0.17239516731E+03  0.00000000000E+00 0. -1.
         25    2    1    2    0    0  0.42340557740E+02 -0.52034512057E+01  0.32975121024E+03  0.35522098312E+03  0.12500514973E+03 0.  0.
          2    1    1    2  501    0 -0.20848738534E+02 -0.98504017424E+01 -0.15871012279E+03  0.16037644275E+03  0.00000000000E+00 0. -1.
          1    1    1    2  502    0 -0.21491819206E+02  0.15053852948E+02  0.14710966862E+04  0.14713306824E+04  0.00000000000E+00 0. -1.
         22    1    3    3    0    0  0.20875377397E+02 -0.28198378668E+02  0.13789454034E+02  0.37697201269E+02  0.00000000000E+00 0. -1.
         22    1    3    3    0    0  0.21465180342E+02  0.22994927462E+02  0.31596175620E+03  0.31752378185E+03  0.00000000000E+00 0. -1.
</event>
<event>
 7    1  0.6273950E-006  0.4158589E+02  0.7818608E-02  0.1603178E+00
          2   -1    0    0  502    0  0.00000000000E+00  0.00000000000E+00  0.26667829897E+02  0.26667829897E+02  0.00000000000E+00 0. -1.
          1   -1    0    0  501    0 -0.00000000000E+00 -0.00000000000E+00 -0.48463084751E+03  0.48463084751E+03  0.00000000000E+00 0. -1.
         25    2    1    2    0    0  0.29360116749E+02 -0.19070668808E+02 -0.18486894931E+03  0.22588679319E+03  0.12499043184E+03 0.  0.
          2    1    1    2  501    0 -0.57377928413E+01 -0.20190332399E+02 -0.18431311197E+03  0.18550443400E+03  0.00000000000E+00 0. -1.
          1    1    1    2  502    0 -0.23622323908E+02  0.39261001207E+02 -0.88780956337E+02  0.99907450226E+02  0.00000000000E+00 0. -1.
         22    1    3    3    0    0  0.77620247644E+02 -0.19330166477E+02 -0.13163065973E+03  0.15402983075E+03  0.00000000000E+00 0.  1.
         22    1    3    3    0    0 -0.48260130894E+02  0.25949766878E+00 -0.53238289578E+02  0.71856962434E+02  0.00000000000E+00 0.  1.
</event>
<event>
 7    1  0.6557981E-006  0.1131777E+03  0.7818608E-02  0.1277756E+00
          2   -1    0    0  502    0  0.00000000000E+00  0.00000000000E+00  0.30146962941E+04  0.30146962941E+04  0.00000000000E+00 0. -1.
          1   -1    0    0  501    0 -0.00000000000E+00 -0.00000000000E+00 -0.11556691550E+04  0.11556691550E+04  0.00000000000E+00 0. -1.
         25    2    1    2    0    0  0.11902334552E+03  0.26837006707E+02 -0.11067371469E+03  0.20678703504E+03  0.12500170011E+03 0.  0.
          2    1    1    2  501    0 -0.97305199933E+02  0.61040261821E+02 -0.99293651054E+03  0.99955846726E+03  0.00000000000E+00 0. -1.
          1    1    1    2  502    0 -0.21718145590E+02 -0.87877268529E+02  0.29626373643E+04  0.29640199468E+04  0.00000000000E+00 0. -1.
         22    1    3    3    0    0  0.31884573190E+02 -0.30427289007E+02 -0.90389181955E+02  0.10056167331E+03  0.00000000000E+00 0. -1.
         22    1    3    3    0    0  0.87138772333E+02  0.57264295714E+02 -0.20284532734E+02  0.10622536173E+03  0.00000000000E+00 0. -1.
</event>
<event>
 7    1  0.6273950E-006  0.6733184E+02  0.7818608E-02  0.1425177E+00
          2   -1    0    0  502    0  0.00000000000E+00  0.00000000000E+00  0.26173708431E+04  0.26173708431E+04  0.00000000000E+00 0. -1.
          1   -1    0    0  501    0 -0.00000000000E+00 -0.00000000000E+00 -0.11510035206E+03  0.11510035206E+03  0.00000000000E+00 0. -1.
         25    2    1    2    0    0 -0.82384880874E+02 -0.15566262275E+02  0.61363309059E+03  0.63182285123E+03  0.12499987340E+03 0.  0.
          2    1    1    2  501    0  0.32203204197E+02 -0.28814498662E+02 -0.10101435404E+03  0.10986911038E+03  0.00000000000E+00 0. -1.
          1    1    1    2  502    0  0.50181676677E+02  0.44380760936E+02  0.19896517545E+04  0.19907792336E+04  0.00000000000E+00 0. -1.
         22    1    3    3    0    0 -0.10650318566E+02 -0.49766923808E+02  0.41139249717E+03  0.41452860302E+03  0.00000000000E+00 0. -1.
         22    1    3    3    0    0 -0.71734562308E+02  0.34200661533E+02  0.20224059342E+03  0.21729424821E+03  0.00000000000E+00 0. -1.
</event>
<event>
 7    1  0.6273950E-006  0.1700082E+03  0.7818608E-02  0.1297396E+00
          2   -1    0    0  502    0  0.00000000000E+00  0.00000000000E+00  0.61693360748E+03  0.61693360748E+03  0.00000000000E+00 0. -1.
          1   -1    0    0  501    0 -0.00000000000E+00 -0.00000000000E+00 -0.14270760355E+03  0.14270760355E+03  0.00000000000E+00 0. -1.
         25    2    1    2    0    0 -0.11130382024E+03 -0.15946065936E+03  0.13255887759E+03  0.26648143797E+03  0.12499703387E+03 0.  0.
          2    1    1    2  501    0  0.62570624313E+02  0.14783090697E+03  0.13393892460E+02  0.16108524587E+03  0.00000000000E+00 0. -1.
          1    1    1    2  502    0  0.48733195925E+02  0.11629752389E+02  0.32827323389E+03  0.33207452719E+03  0.00000000000E+00 0. -1.
         22    1    3    3    0    0  0.36890916772E+01 -0.95552645765E+02  0.31806223480E+02  0.10077476550E+03  0.00000000000E+00 0.  1.
         22    1    3    3    0    0 -0.11499291191E+03 -0.63908013590E+02  0.10075265411E+03  0.16570667247E+03  0.00000000000E+00 0.  1.
</event>
<event>
 7    1  0.6273950E-006  0.9705766E+02  0.7818608E-02  0.1332597E+00
          2   -1    0    0  502    0  0.00000000000E+00  0.00000000000E+00  0.89444939017E+03  0.89444939017E+03  0.00000000000E+00 0. -1.
          1   -1    0    0  501    0 -0.00000000000E+00 -0.00000000000E+00 -0.44593647694E+02  0.44593647694E+02  0.00000000000E+00 0. -1.
         25    2    1    2    0    0 -0.83346194469E+02  0.66443575866E+02  0.59533581753E+03  0.61758448943E+03  0.12499811616E+03 0.  0.
          2    1    1    2  501    0  0.57385870982E+02  0.28149128861E+02  0.19557690229E+02  0.66843211257E+02  0.00000000000E+00 0. -1.
          1    1    1    2  502    0  0.25960323487E+02 -0.94592704728E+02  0.23496223472E+03  0.25461533718E+03  0.00000000000E+00 0. -1.
         22    1    3    3    0    0  0.92414468750E+01  0.20902985815E+02  0.35875179279E+03  0.35947905083E+03  0.00000000000E+00 0. -1.
         22    1    3    3    0    0 -0.92587641344E+02  0.45540590052E+02  0.23658402474E+03  0.25810543860E+03  0.00000000000E+00 0. -1.
</event>
<event>
 7    1  0.6273950E-006  0.1109756E+03  0.7818608E-02  0.1365359E+00
          2   -1    0    0  502    0  0.00000000000E+00  0.00000000000E+00  0.16235980684E+03  0.16235980684E+03  0.00000000000E+00 0. -1.
          1   -1    0    0  501    0 -0.00000000000E+00 -0.00000000000E+00 -0.24136843224E+04  0.24136843224E+04  0.00000000000E+00 0. -1.
         25    2    1    2    0    0  0.75656431903E+02  0.10225152056E+03 -0.48588657840E+02  0.18484225580E+03  0.12500613071E+03 0.  0.
          2    1    1    2  501    0 -0.42247692885E+02  0.45026389387E+00 -0.22657630725E+04  0.22661569608E+04  0.00000000000E+00 0. -1.
          1    1    1    2  502    0 -0.33408739018E+02 -0.10270178445E+03  0.63027214784E+02  0.12504491264E+03  0.00000000000E+00 0. -1.
         22    1    3    3    0    0 -0.35578011378E+01  0.71200133957E+02 -0.66953247638E+02  0.97800073588E+02  0.00000000000E+00 0.  1.
         22    1    3    3    0    0  0.79214233040E+02  0.31051386603E+02  0.18364589799E+02  0.87042182214E+02  0.00000000000E+00 0.  1.
</event>
<event>
 7    1  0.6273950E-006  0.7927489E+02  0.7818608E-02  0.1460766E+00
          2   -1    0    0  502    0  0.00000000000E+00  0.00000000000E+00  0.28370187738E+03  0.28370187738E+03  0.00000000000E+00 0. -1.
          1   -1    0    0  501    0 -0.00000000000E+00 -0.00000000000E+00 -0.12938901097E+03  0.12938901097E+03  0.00000000000E+00 0. -1.
         25    2    1    2    0    0 -0.50800652882E+02 -0.22856915365E+02  0.44244653559E+01  0.13692262329E+03  0.12500033585E+03 0.  0.
          2    1    1    2  501    0 -0.28162082147E+02 -0.97571785709E-02 -0.51472472623E+02  0.58672978482E+02  0.00000000000E+00 0. -1.
          1    1    1    2  502    0  0.78962735029E+02  0.22866672544E+02  0.20136087368E+03  0.21749528658E+03  0.00000000000E+00 0. -1.
         22    1    3    3    0    0 -0.21518965920E+02 -0.39369182185E+02  0.58210983551E+02  0.73495013478E+02  0.00000000000E+00 0. -1.
         22    1    3    3    0    0 -0.29281686962E+02  0.16512266820E+02 -0.53786518195E+02  0.63427609811E+02  0.00000000000E+00 0. -1.
</event>
<event>
 7    1  0.6273950E-006  0.6769295E+02  0.7818608E-02  0.1390286E+00
          2   -1    0    0  502    0  0.00000000000E+00  0.00000000000E+00  0.33032276412E+04  0.33032276412E+04  0.00000000000E+00 0. -1.
          1   -1    0    0  501    0 -0.00000000000E+00 -0.00000000000E+00 -0.10049490219E+03  0.10049490219E+03  0.00000000000E+00 0. -1.
         25    2    1    2    0    0 -0.21846038956E+02  0.26718103587E+02  0.64734860280E+03  0.66020968276E+03  0.12500202074E+03 0.  0.
          2    1    1    2  501    0 -0.18741370010E+02 -0.66002324258E+02 -0.81210001193E+02  0.10631373407E+03  0.00000000000E+00 0. -1.
          1    1    1    2  502    0  0.40587408966E+02  0.39284220671E+02  0.26365941374E+04  0.26371991266E+04  0.00000000000E+00 0. -1.
         22    1    3    3    0    0 -0.13933159838E+02  0.76997378962E+02  0.36243511305E+03  0.37078557211E+03  0.00000000000E+00 0. -1.
         22    1    3    3    0    0 -0.79128791177E+01 -0.50279275375E+02  0.28491348975E+03  0.28942411065E+03  0.00000000000E+00 0. -1.
</event>
<event>
 7    1  0.6273950E-006  0.1090109E+03  0.7818608E-02  0.1341272E+00
          2   -1    0    0  502    0  0.00000000000E+00  0.00000000000E+00  0.15604947801E+04  0.15604947801E+04  0.00000000000E+00 0. -1.
          1   -1    0    0  501    0 -0.00000000000E+00 -0.00000000000E+00 -0.23287997530E+03  0.23287997530E+03  0.00000000000E+00 0. -1.
         25    2    1    2    0    0 -0.13450276818E+03 -0.71823266543E+01  0.49858226681E+03  0.53136669311E+03  0.12499482114E+03 0.  0.
          2    1    1    2  501    0  0.98474395176E+02  0.45739787287E+02 -0.20215619794E+03  0.22946996103E+03  0.00000000000E+00 0. -1.
          1    1    1    2  502    0  0.36028373006E+02 -0.38557460633E+02  0.10311887360E+04  0.10325381013E+04  0.00000000000E+00 0. -1.
         22    1    3    3    0    0 -0.48982465606E+01 -0.26823082625E+01 -0.72635020542E+01  0.91622081986E+01  0.00000000000E+00 0.  1.
         22    1    3    3    0    0 -0.12960452162E+03 -0.45000183917E+01  0.50584576886E+03  0.52220448492E+03  0.00000000000E+00 0.  1.
</event>
<event>
 7    1  0.6273950E-006  0.3023983E+02  0.7818608E-02  0.1626769E+00
          2   -1    0    0  502    0  0.00000000000E+00  0.00000000000E+00  0.15785948249E+03  0.15785948249E+03  0.00000000000E+00 0. -1.
          1   -1    0    0  501    0 -0.00000000000E+00 -0.00000000000E+00 -0.11882884529E+04  0.11882884529E+04  0.00000000000E+00 0. -1.
         25    2    1    2    0    0  0.22748743862E+02 -0.16049606795E+01 -0.53504187880E+02  0.13786752361E+03  0.12499869879E+03 0.  0.
          2    1    1    2  501    0 -0.29638716797E+01  0.24937848844E+02 -0.10904329235E+04  0.10907220735E+04  0.00000000000E+00 0. -1.
          1    1    1    2  502    0 -0.19784872183E+02 -0.23332888165E+02  0.11350814099E+03  0.11755833832E+03  0.00000000000E+00 0. -1.
         22    1    3    3    0    0  0.27847067051E+02  0.59008846272E+02 -0.36235750002E+02  0.74636001098E+02  0.00000000000E+00 0.  1.
         22    1    3    3    0    0 -0.50983231886E+01 -0.60613806951E+02 -0.17268437878E+02  0.63231522512E+02  0.00000000000E+00 0.  1.
</event>
<event>
 7    1  0.6273950E-006  0.1241098E+03  0.7818608E-02  0.1249575E+00
          2   -1    0    0  502    0  0.00000000000E+00  0.00000000000E+00  0.21743371075E+04  0.21743371075E+04  0.00000000000E+00 0. -1.
          1   -1    0    0  501    0 -0.00000000000E+00 -0.00000000000E+00 -0.15507836037E+03  0.15507836037E+03  0.00000000000E+00 0. -1.
         25    2    1    2    0    0 -0.76678476506E+02 -0.89981609497E+02 -0.68049051334E+02  0.18502910461E+03  0.12501526850E+03 0.  0.
          2    1    1    2  501    0  0.10391899524E+03 -0.31928753560E+02  0.84511398526E+02  0.13769814580E+03  0.00000000000E+00 0. -1.
          1    1    1    2  502    0 -0.27240518735E+02  0.12191036306E+03  0.20027963999E+04  0.20066882175E+04  0.00000000000E+00 0. -1.
         22    1    3    3    0    0 -0.41681042489E+00  0.25667211720E+02 -0.33593204303E+02  0.42278633655E+02  0.00000000000E+00 0. -1.
         22    1    3    3    0    0 -0.76261666081E+02 -0.11564882122E+03 -0.34455847031E+02  0.14275047095E+03  0.00000000000E+00 0. -1.
</event>
<event>
 7    1  0.6273950E-006  0.1270964E+03  0.7818608E-02  0.1249502E+00
          2   -1    0    0  502    0  0.00000000000E+00  0.00000000000E+00  0.10272428983E+04  0.10272428983E+04  0.00000000000E+00 0. -1.
          1   -1    0    0  501    0 -0.00000000000E+00 -0.00000000000E+00 -0.16999673623E+03  0.16999673623E+03  0.00000000000E+00 0. -1.
         25    2    1    2    0    0 -0.16269563911E+03 -0.14829576408E+03  0.36852159841E+03  0.44709476884E+03  0.12499623676E+03 0.  0.
          2    1    1    2  501    0  0.82201964511E+02  0.67298963370E+02 -0.10272099244E+03  0.14777657368E+03  0.00000000000E+00 0. -1.
          1    1    1    2  502    0  0.80493674595E+02  0.80996800714E+02  0.59144555614E+03  0.60236829204E+03  0.00000000000E+00 0. -1.
         22    1    3    3    0    0 -0.54350141234E+01 -0.50896216167E+02  0.25067132561E+02  0.56994081565E+02  0.00000000000E+00 0.  1.
         22    1    3    3    0    0 -0.15726062498E+03 -0.97399547917E+02  0.34345446585E+03  0.39010068728E+03  0.00000000000E+00 0.  1.
</event>
<event>
 7    1  0.6273950E-006  0.6872717E+02  0.7818608E-02  0.1519670E+00
          2   -1    0    0  502    0  0.00000000000E+00  0.00000000000E+00  0.11800687766E+04  0.11800687766E+04  0.00000000000E+00 0. -1.
          1   -1    0    0  501    0 -0.00000000000E+00 -0.00000000000E+00 -0.17286038717E+03  0.17286038717E+03  0.00000000000E+00 0. -1.
         25    2    1    2    0    0 -0.10972253039E+02  0.64863133912E+02  0.47522521525E+03  0.49577558207E+03  0.12500722414E+03 0.  0.
          2    1    1    2  501    0  0.21157726400E+02  0.40912881463E+01 -0.16011281158E+03  0.16155649308E+03  0.00000000000E+00 0. -1.
          1    1    1    2  502    0 -0.10185473361E+02 -0.68954422058E+02  0.69209598577E+03  0.69559708863E+03  0.00000000000E+00 0. -1.
         22    1    3    3    0    0  0.32767141739E+02  0.79758195796E+02  0.21800398763E+03  0.23443718561E+03  0.00000000000E+00 0.  1.
         22    1    3    3    0    0 -0.43739394777E+02 -0.14895061884E+02  0.25722122762E+03  0.26133839646E+03  0.00000000000E+00 0.  1.
</event>
<event>
 7    1  0.6273950E-006  0.1554523E+03  0.7818608E-02  0.1296205E+00
          2   -1    0    0  502    0  0.00000000000E+00  0.00000000000E+00  0.19098649025E+04  0.19098649025E+04  0.00000000000E+00 0. -1.
          1   -1    0    0  501    0 -0.00000000000E+00 -0.00000000000E+00 -0.80547144969E+03  0.80547144969E+03  0.00000000000E+00 0. -1.
         25    2    1    2    0    0  0.11017865856E+02  0.19161073448E+03  0.86997023833E+03  0.89961634763E+03  0.12500116163E+03 0.  0.
          2    1    1    2  501    0 -0.45604928740E+02 -0.14833292798E+03 -0.78227219203E+03  0.79751630044E+03  0.00000000000E+00 0. -1.
          1    1    1    2  502    0  0.34587062884E+02 -0.43277806501E+02  0.10166954066E+04  0.10182037042E+04  0.00000000000E+00 0. -1.
         22    1    3    3    0    0 -0.18719018114E+02 -0.12051360753E+02  0.63238813127E+02  0.67043153423E+02  0.00000000000E+00 0. -1.
         22    1    3    3    0    0  0.29736883970E+02  0.20366209523E+03  0.80673142520E+03  0.83257319421E+03  0.00000000000E+00 0. -1.
</event>
<event>
 7    1  0.6273950E-006  0.1936726E+03  0.7818608E-02  0.1196117E+00
          2   -1    0    0  502    0  0.00000000000E+00  0.00000000000E+00  0.55872234171E+03  0.55872234171E+03  0.00000000000E+00 0. -1.
          1   -1    0    0  501    0 -0.00000000000E+00 -0.00000000000E+00 -0.19335455951E+04  0.19335455951E+04  0.00000000000E+00 0. -1.
         25    2    1    2    0    0  0.18303697399E+03 -0.20494372100E+03 -0.62127953164E+03  0.69073728512E+03  0.12500111198E+03 0.  0.
          2    1    1    2  501    0 -0.66878495815E+02  0.16823784202E+03 -0.12639184136E+04  0.12768188834E+04  0.00000000000E+00 0. -1.
          1    1    1    2  502    0 -0.11615847818E+03  0.36705878983E+02  0.51037469191E+03  0.52471176826E+03  0.00000000000E+00 0. -1.
         22    1    3    3    0    0  0.41359343038E+02 -0.11964784877E+03 -0.18500666699E+03  0.22417330305E+03  0.00000000000E+00 0.  1.
         22    1    3    3    0    0  0.14167763096E+03 -0.85295872234E+02 -0.43627286465E+03  0.46656398207E+03  0.00000000000E+00 0.  1.
</event>
<event>
 7    1  0.6273950E-006  0.1019715E+03  0.7818608E-02  0.1332215E+00
          2   -1    0    0  502    0  0.00000000000E+00  0.00000000000E+00  0.49591718446E+03  0.49591718446E+03  0.00000000000E+00 0. -1.
          1   -1    0    0  501    0 -0.00000000000E+00 -0.00000000000E+00 -0.10945627371E+04  0.10945627371E+04  0.00000000000E+00 0. -1.
         25    2    1    2    0    0  0.63107118008E+02  0.35116964946E+01  0.15810886397E+02  0.14097683298E+03  0.12501857043E+03 0.  0.
          2    1    1    2  501    0 -0.90003751715E+02  0.51284962755E+02 -0.10271294407E+04  0.10323399202E+04  0.00000000000E+00 0. -1.
          1    1    1    2  502    0  0.26896633707E+02 -0.54796659250E+02  0.41267300169E+03  0.41716316843E+03  0.00000000000E+00 0. -1.
         22    1    3    3    0    0  0.14391581500E+02  0.59802254667E+02 -0.97287650019E+01  0.62274201318E+02  0.00000000000E+00 0. -1.
         22    1    3    3    0    0  0.48715536508E+02 -0.56290558172E+02  0.25539651399E+02  0.78702631660E+02  0.00000000000E+00 0. -1.
</event>
<event>
 7    1  0.6273950E-006  0.1590777E+03  0.7818608E-02  0.1398934E+00
          2   -1    0    0  502    0  0.00000000000E+00  0.00000000000E+00  0.55813797634E+03  0.55813797634E+03  0.00000000000E+00 0. -1.
          1   -1    0    0  501    0 -0.00000000000E+00 -0.00000000000E+00 -0.56675453850E+03  0.56675453850E+03  0.00000000000E+00 0. -1.
         25    2    1    2    0    0 -0.16765215403E+03 -0.20423789567E+02  0.38026199716E+03  0.43445216930E+03  0.12500049999E+03 0.  0.
          2    1    1    2  501    0  0.15883079877E+03 -0.20244308610E+00 -0.52704851555E+03  0.55046108069E+03  0.00000000000E+00 0. -1.
          1    1    1    2  502    0  0.88213552605E+01  0.20626232653E+02  0.13816995622E+03  0.13997926484E+03  0.00000000000E+00 0. -1.
         22    1    3    3    0    0 -0.83717611452E+01  0.94505801097E+01 -0.71509777215E+01  0.14509870139E+02  0.00000000000E+00 0. -1.
         22    1    3    3    0    0 -0.15928039288E+03 -0.29874369677E+02  0.38741297488E+03  0.41994229916E+03  0.00000000000E+00 0. -1.
</event>
<event>
 7    1  0.6273950E-006  0.6708638E+02  0.7818608E-02  0.1378089E+00
          2   -1    0    0  502    0  0.00000000000E+00  0.00000000000E+00  0.29483204516E+02  0.29483204516E+02  0.00000000000E+00 0. -1.
          1   -1    0    0  501    0 -0.00000000000E+00 -0.00000000000E+00 -0.13564266376E+04  0.13564266376E+04  0.00000000000E+00 0. -1.
         25    2    1    2    0    0  0.12412039467E+03 -0.55628637538E+01 -0.41236990678E+03  0.44845605121E+03  0.12500828782E+03 0.  0.
          2    1    1    2  501    0 -0.61783228723E+02  0.14090619832E+02 -0.82805735118E+03  0.83047859079E+03  0.00000000000E+00 0. -1.
          1    1    1    2  502    0 -0.62337165951E+02 -0.85277560782E+01 -0.86516175155E+02  0.10697520014E+03  0.00000000000E+00 0. -1.
         22    1    3    3    0    0  0.14860551583E+02 -0.25551044335E+02 -0.10261335060E+02  0.31288765670E+02  0.00000000000E+00 0.  1.
         22    1    3    3    0    0  0.10925984309E+03  0.19988180581E+02 -0.40210857172E+03  0.41716728554E+03  0.00000000000E+00 0.  1.
</event>
<event>
 7    1  0.6273950E-006  0.9688333E+02  0.7818608E-02  0.1455086E+00
          2   -1    0    0  502    0  0.00000000000E+00  0.00000000000E+00  0.11975760175E+04  0.11975760175E+04  0.00000000000E+00 0. -1.
          1   -1    0    0  501    0 -0.00000000000E+00 -0.00000000000E+00 -0.34117868472E+02  0.34117868472E+02  0.00000000000E+00 0. -1.
         25    2    1    2    0    0 -0.10333433597E+03  0.40476965557E+02  0.52799448784E+03  0.55382277867E+03  0.12500048499E+03 0.  0.
          2    1    1    2  501    0  0.11923126627E+02 -0.20848586275E+02 -0.97484693488E+01  0.25920207423E+02  0.00000000000E+00 0. -1.
          1    1    1    2  502    0  0.91411209343E+02 -0.19628379283E+02  0.64521213056E+03  0.65195089991E+03  0.00000000000E+00 0. -1.
         22    1    3    3    0    0 -0.11954678984E+03  0.63110409666E+02  0.38241994859E+03  0.40560988135E+03  0.00000000000E+00 0. -1.
         22    1    3    3    0    0  0.16212453870E+02 -0.22633444109E+02  0.14557453925E+03  0.14821289731E+03  0.00000000000E+00 0. -1.
</event>
<event>
 7    1  0.6273950E-006  0.8901324E+02  0.7818608E-02  0.1334960E+00
          2   -1    0    0  502    0  0.00000000000E+00  0.00000000000E+00  0.37118513757E+03  0.37118513757E+03  0.00000000000E+00 0. -1.
          1   -1    0    0  501    0 -0.00000000000E+00 -0.00000000000E+00 -0.46057525726E+03  0.46057525726E+03  0.00000000000E+00 0. -1.
         25    2    1    2    0    0 -0.14185005352E+03  0.32914811468E+02  0.59119170244E+02  0.20080831036E+03  0.12499631483E+03 0.  0.
          2    1    1    2  501    0  0.67986748856E+02  0.62008691139E+01 -0.37935102186E+03  0.38544499814E+03  0.00000000000E+00 0. -1.
          1    1    1    2  502    0  0.73863304660E+02 -0.39115680582E+02  0.23084173193E+03  0.24550708634E+03  0.00000000000E+00 0. -1.
         22    1    3    3    0    0 -0.89772806694E+02  0.13643137862E+02 -0.30149681647E+02  0.95678081794E+02  0.00000000000E+00 0.  1.
         22    1    3    3    0    0 -0.52077246822E+02  0.19271673606E+02  0.89268851891E+02  0.10513022856E+03  0.00000000000E+00 0.  1.
</event>
<event>
 7    1  0.6273950E-006  0.9598428E+02  0.7818608E-02  0.1437122E+00
          2   -1    0    0  502    0  0.00000000000E+00  0.00000000000E+00  0.46574130896E+03  0.46574130896E+03  0.00000000000E+00 0. -1.
          1   -1    0    0  501    0 -0.00000000000E+00 -0.00000000000E+00 -0.86484090876E+03  0.86484090876E+03  0.00000000000E+00 0. -1.
         25    2    1    2    0    0 -0.60014215808E+01  0.90849207256E+02 -0.15575936672E+03  0.21948717240E+03  0.12499617196E+03 0.  0.
          2    1    1    2  501    0  0.27536188772E+02  0.29416990277E+01 -0.67159288724E+03  0.67216359726E+03  0.00000000000E+00 0. -1.
          1    1    1    2  502    0 -0.21534767191E+02 -0.93790906284E+02  0.42825265417E+03  0.43893144807E+03  0.00000000000E+00 0. -1.
         22    1    3    3    0    0 -0.50350346031E+01  0.38676947720E+02  0.14346180746E+02  0.41558040864E+02  0.00000000000E+00 0. -1.
         22    1    3    3    0    0 -0.96638697772E+00  0.52172259536E+02 -0.17010554747E+03  0.17792913153E+03  0.00000000000E+00 0. -1.
</event>
<event>
 7    1  0.6273950E-006  0.6499508E+02  0.7818608E-02  0.1382549E+00
          2   -1    0    0  502    0  0.00000000000E+00  0.00000000000E+00  0.98164236186E+01  0.98164236186E+01  0.00000000000E+00 0. -1.
          1   -1    0    0  501    0 -0.00000000000E+00 -0.00000000000E+00 -0.21804616687E+04  0.21804616687E+04  0.00000000000E+00 0. -1.
         25    2    1    2    0    0  0.56718162609E+02 -0.12649543256E+01 -0.10608306640E+04  0.10696754952E+04  0.12500166909E+03 0.  0.
          2    1    1    2  501    0 -0.19419677272E+02  0.62026093872E+02 -0.80243458295E+03  0.80506249454E+03  0.00000000000E+00 0. -1.
          1    1    1    2  502    0 -0.37298485337E+02 -0.60761139546E+02 -0.30737999811E+03  0.31554010256E+03  0.00000000000E+00 0. -1.
         22    1    3    3    0    0 -0.24967489640E+02 -0.66503159056E+01 -0.66331637913E+03  0.66381941901E+03  0.00000000000E+00 0. -1.
         22    1    3    3    0    0  0.81685652248E+02  0.53853615799E+01 -0.39751428488E+03  0.40585607620E+03  0.00000000000E+00 0. -1.
</event>
<event>
 7    1  0.6273950E-006  0.6463255E+02  0.7818608E-02  0.1461258E+00
          2   -1    0    0  502    0  0.00000000000E+00  0.00000000000E+00  0.12639778594E+03  0.12639778594E+03  0.00000000000E+00 0. -1.
          1   -1    0    0  501    0 -0.00000000000E+00 -0.00000000000E+00 -0.68634978336E+03  0.68634978336E+03  0.00000000000E+00 0. -1.
         25    2    1    2    0    0  0.61336068152E+02  0.53374203763E+02 -0.35751779127E+03  0.38736867345E+03  0.12499839683E+03 0.  0.
          2    1    1    2  501    0 -0.59267436766E+02 -0.19017292224E+02 -0.30806070393E+03  0.31428599041E+03  0.00000000000E+00 0. -1.
          1    1    1    2  502    0 -0.20686313859E+01 -0.34356911539E+02  0.10562649778E+03  0.11109290544E+03  0.00000000000E+00 0. -1.
         22    1    3    3    0    0  0.14825349301E+02  0.82556532203E+02 -0.28056894577E+03  0.29283836040E+03  0.00000000000E+00 0. -1.
         22    1    3    3    0    0  0.46510718851E+02 -0.29182328440E+02 -0.76948845497E+02  0.94530313046E+02  0.00000000000E+00 0. -1.
</event>
<event>
 7    1  0.6273950E-006  0.6355522E+02  0.7818608E-02  0.1392858E+00
          2   -1    0    0  502    0  0.00000000000E+00  0.00000000000E+00  0.20129974022E+04  0.20129974022E+04  0.00000000000E+00 0. -1.
          1   -1    0    0  501    0 -0.00000000000E+00 -0.00000000000E+00 -0.10383609231E+03  0.10383609231E+03  0.00000000000E+00 0. -1.
         25    2    1    2    0    0 -0.43703816887E+02 -0.28421215266E+02  0.45859393102E+03  0.47817766812E+03  0.12501079808E+03 0.  0.
          2    1    1    2  501    0 -0.30067471952E+01  0.64358096137E+02 -0.82376426166E+02  0.10457954224E+03  0.00000000000E+00 0. -1.
          1    1    1    2  502    0  0.46710564082E+02 -0.35936880871E+02  0.15329438051E+04  0.15340762842E+04  0.00000000000E+00 0. -1.
         22    1    3    3    0    0  0.20193100269E+02 -0.54754422288E+02  0.29274599961E+03  0.29850632882E+03  0.00000000000E+00 0.  1.
         22    1    3    3    0    0 -0.63896917156E+02  0.26333207022E+02  0.16584793141E+03  0.17967133930E+03  0.00000000000E+00 0.  1.
</event>
<event>
 7    1  0.6273950E-006  0.5264116E+02  0.7818608E-02  0.1528848E+00
          2   -1    0    0  502    0  0.00000000000E+00  0.00000000000E+00  0.24824329696E+03  0.24824329696E+03  0.00000000000E+00 0. -1.
          1   -1    0    0  501    0 -0.00000000000E+00 -0.00000000000E+00 -0.84844741521E+03  0.84844741521E+03  0.00000000000E+00 0. -1.
         25    2    1    2    0    0 -0.32042773201E+02 -0.85982728052E+01 -0.15498584380E+03  0.20185063288E+03  0.12498958600E+03 0.  0.
          2    1    1    2  501    0  0.42303973145E+02  0.32997848078E+02 -0.66817102727E+03  0.67032156895E+03  0.00000000000E+00 0. -1.
          1    1    1    2  502    0 -0.10261199944E+02 -0.24399575273E+02  0.22295275281E+03  0.22451851033E+03  0.00000000000E+00 0. -1.
         22    1    3    3    0    0 -0.24033347723E+02  0.30554911418E+02  0.29030986149E+01  0.38982462673E+02  0.00000000000E+00 0.  1.
         22    1    3    3    0    0 -0.80094254779E+01 -0.39153184223E+02 -0.15788894241E+03  0.16286817021E+03  0.00000000000E+00 0.  1.
</event>
<event>
 7    1  0.6273950E-006  0.1492903E+03  0.7818608E-02  0.1417473E+00
          2   -1    0    0  502    0  0.00000000000E+00  0.00000000000E+00  0.88112592180E+03  0.88112592180E+03  0.00000000000E+00 0. -1.
          1   -1    0    0  501    0 -0.00000000000E+00 -0.00000000000E+00 -0.22443011152E+04  0.22443011152E+04  0.00000000000E+00 0. -1.
         25    2    1    2    0    0 -0.12610117333E+02 -0.13004644677E+03 -0.25473828439E+03  0.31239024461E+03  0.12499991206E+03 0.  0.
          2    1    1    2  501    0  0.11866734190E+02  0.15070963951E+03 -0.19576968486E+04  0.19635251885E+04  0.00000000000E+00 0. -1.
          1    1    1    2  502    0  0.74338314293E+00 -0.20663192739E+02  0.84925993960E+03  0.84951160390E+03  0.00000000000E+00 0. -1.
         22    1    3    3    0    0 -0.14286398372E+02 -0.25759123250E+02 -0.18405026822E+03  0.18639242163E+03  0.00000000000E+00 0.  1.
         22    1    3    3    0    0  0.16762810394E+01 -0.10428732352E+03 -0.70688016173E+02  0.12599782298E+03  0.00000000000E+00 0.  1.
</event>
<event>
 7    1  0.6273950E-006  0.1190983E+03  0.7818608E-02  0.1307979E+00
          2   -1    0    0  502    0  0.00000000000E+00  0.00000000000E+00  0.11529483477E+04  0.11529483477E+04  0.00000000000E+00 0. -1.
          1   -1    0    0  501    0 -0.00000000000E+00 -0.00000000000E+00 -0.36129346245E+03  0.36129346245E+03  0.00000000000E+00 0. -1.
         25    2    1    2    0    0  0.59801382635E+02 -0.39902368098E+02 -0.13142068263E+03  0.19510286534E+03  0.12500131159E+03 0.  0.
          2    1    1    2  501    0  0.59554346213E+02  0.25787143808E+02 -0.18938963445E+03  0.20020022621E+03  0.00000000000E+00 0. -1.
          1    1    1    2  502    0 -0.11935572885E+03  0.14115224291E+02  0.11124652023E+04  0.11189387186E+04  0.00000000000E+00 0. -1.
         22    1    3    3    0    0  0.50325440990E+02  0.35637951800E+02 -0.88009657952E+02  0.10746354504E+03  0.00000000000E+00 0.  1.
         22    1    3    3    0    0  0.94759416441E+01 -0.75540319898E+02 -0.43411024673E+02  0.87639320305E+02  0.00000000000E+00 0.  1.
</event>
<event>
 7    1  0.6273950E-006  0.7296277E+02  0.7818608E-02  0.1402924E+00
          2   -1    0    0  502    0  0.00000000000E+00  0.00000000000E+00  0.75481903733E+03  0.75481903733E+03  0.00000000000E+00 0. -1.
          1   -1    0    0  501    0 -0.00000000000E+00 -0.00000000000E+00 -0.10974978727E+03  0.10974978727E+03  0.00000000000E+00 0. -1.
         25    2    1    2    0    0  0.50944026862E+02  0.23994444929E+02  0.18446416256E+02  0.13833375343E+03  0.12499971922E+03 0.  0.
          2    1    1    2  501    0 -0.19750002041E+02  0.43079848316E+02 -0.35988609378E+02  0.59507276165E+02  0.00000000000E+00 0. -1.
          1    1    1    2  502    0 -0.31194024821E+02 -0.67074293245E+02  0.66261144318E+03  0.66672779501E+03  0.00000000000E+00 0. -1.
         22    1    3    3    0    0  0.61093357575E+02  0.67563156389E+02  0.21166938694E+02  0.93515868893E+02  0.00000000000E+00 0.  1.
         22    1    3    3    0    0 -0.10149330713E+02 -0.43568711461E+02 -0.27205224381E+01  0.44817884540E+02  0.00000000000E+00 0.  1.
</event>
<event>
 7    1  0.6273950E-006  0.6052714E+02  0.7818608E-02  0.1498097E+00
          2   -1    0    0  502    0  0.00000000000E+00  0.00000000000E+00  0.14254458390E+04  0.14254458390E+04  0.00000000000E+00 0. -1.
          1   -1    0    0  501    0 -0.00000000000E+00 -0.00000000000E+00 -0.48214745636E+02  0.48214745636E+02  0.00000000000E+00 0. -1.
         25    2    1    2    0    0  0.33568865549E+02  0.19764885767E+02  0.18381619847E+03  0.22567742376E+03  0.12499754131E+03 0.  0.
          2    1    1    2  501    0  0.52342898213E+01  0.27840625073E+02 -0.18938019091E+02  0.34075603611E+02  0.00000000000E+00 0. -1.
          1    1    1    2  502    0 -0.38803155371E+02 -0.47605510840E+02  0.12123529140E+04  0.12139075572E+04  0.00000000000E+00 0. -1.
         22    1    3    3    0    0 -0.83693403127E+01  0.47669454999E+01 -0.17239399321E+02  0.19747569866E+02  0.00000000000E+00 0.  1.
         22    1    3    3    0    0  0.41938205862E+02  0.14997940267E+02  0.20105559779E+03  0.20592985390E+03  0.00000000000E+00 0.  1.
</event>
<event>
 7    1  0.6273950E-006  0.6523967E+02  0.7818608E-02  0.1416737E+00
          2   -1    0    0  502    0  0.00000000000E+00  0.00000000000E+00  0.13472382493E+03  0.13472382493E+03  0.00000000000E+00 0. -1.
          1   -1    0    0  501    0 -0.00000000000E+00 -0.00000000000E+00 -0.26376549216E+04  0.26376549216E+04  0.00000000000E+00 0. -1.
         25    2    1    2    0    0 -0.54913427018E+01 -0.34596006027E+02 -0.58440941985E+03  0.59865371177E+03  0.12499943254E+03 0.  0.
          2    1    1    2  501    0  0.52097629264E+02  0.44196614610E+02 -0.20410955646E+04  0.20422386265E+04  0.00000000000E+00 0. -1.
          1    1    1    2  502    0 -0.46606286562E+02 -0.96006085830E+01  0.12257388770E+03  0.13148640834E+03  0.00000000000E+00 0. -1.
         22    1    3    3    0    0  0.43059165300E+02  0.14042883030E+02 -0.38664850910E+03  0.38929213178E+03  0.00000000000E+00 0.  1.
         22    1    3    3    0    0 -0.48550508002E+02 -0.48638889057E+02 -0.19776091075E+03  0.20936157999E+03  0.00000000000E+00 0.  1.
</event>
<event>
 7    1  0.6273950E-006  0.6403443E+02  0.7818608E-02  0.1455236E+00
          2   -1    0    0  502    0  0.00000000000E+00  0.00000000000E+00  0.35550085269E+03  0.35550085269E+03  0.00000000000E+00 0. -1.
          1   -1    0    0  501    0 -0.00000000000E+00 -0.00000000000E+00 -0.86364540840E+03  0.86364540840E+03  0.00000000000E+00 0. -1.
         25    2    1    2    0    0  0.46576983891E+02 -0.47813407667E+02 -0.22881891618E+01  0.14171906662E+03  0.12499408247E+03 0.  0.
          2    1    1    2  501    0  0.15984773245E+02  0.32588778210E+02 -0.78759183222E+03  0.78842782525E+03  0.00000000000E+00 0. -1.
          1    1    1    2  502    0 -0.62561757136E+02  0.15224629458E+02  0.28173546567E+03  0.28899936922E+03  0.00000000000E+00 0. -1.
         22    1    3    3    0    0  0.61214411768E+02 -0.83183895077E+02 -0.44764828006E+01  0.10337699699E+03  0.00000000000E+00 0.  1.
         22    1    3    3    0    0 -0.14637427877E+02  0.35370487410E+02  0.21882936387E+01  0.38342069630E+02  0.00000000000E+00 0.  1.
</event>
<event>
 7    1  0.6273950E-006  0.3127867E+02  0.7818608E-02  0.1592241E+00
          2   -1    0    0  502    0  0.00000000000E+00  0.00000000000E+00  0.10112255584E+04  0.10112255584E+04  0.00000000000E+00 0. -1.
          1   -1    0    0  501    0 -0.00000000000E+00 -0.00000000000E+00 -0.81307171804E+02  0.81307171804E+02  0.00000000000E+00 0. -1.
         25    2    1    2    0    0  0.14121444391E+02 -0.26044914790E+02  0.10426323511E+03  0.16545285455E+03  0.12500428835E+03 0.  0.
          2    1    1    2  501    0  0.15640955889E+02  0.27737732406E+02 -0.45433245541E+02  0.55481538375E+02  0.00000000000E+00 0. -1.
          1    1    1    2  502    0 -0.29762400280E+02 -0.16928176160E+01  0.87108839704E+03  0.87159833728E+03  0.00000000000E+00 0. -1.
         22    1    3    3    0    0 -0.51965776166E+02 -0.22916233074E+01  0.70281795398E+02  0.87436972697E+02  0.00000000000E+00 0. -1.
         22    1    3    3    0    0  0.66087220557E+02 -0.23753291482E+02  0.33981439708E+02  0.78015881857E+02  0.00000000000E+00 0. -1.
</event>
<event>
 7    1  0.6273950E-006  0.4790849E+02  0.7818608E-02  0.1552627E+00
          2   -1    0    0  502    0  0.00000000000E+00  0.00000000000E+00  0.33826536075E+04  0.33826536075E+04  0.00000000000E+00 0. -1.
          1   -1    0    0  501    0 -0.00000000000E+00 -0.00000000000E+00 -0.51652760900E+03  0.51652760900E+03  0.00000000000E+00 0. -1.
         25    2    1    2    0    0 -0.58349942941E+02 -0.12404665752E+02 -0.27657985467E+03  0.30932053393E+03  0.12499674049E+03 0.  0.
          2    1    1    2  501    0  0.19458127606E+02 -0.15564531462E+02 -0.22271217202E+03  0.22410172899E+03  0.00000000000E+00 0. -1.
          1    1    1    2  502    0  0.38891815335E+02  0.27969197214E+02  0.33654180252E+04  0.33657589535E+04  0.00000000000E+00 0. -1.
         22    1    3    3    0    0 -0.59063955818E+02 -0.23726832568E+01 -0.28805742465E+03  0.29405996055E+03  0.00000000000E+00 0. -1.
         22    1    3    3    0    0  0.71401287683E+00 -0.10031982495E+02  0.11477569986E+02  0.15260573382E+02  0.00000000000E+00 0. -1.
</event>
<event>
 7    1  0.8607415E-006  0.7885777E+02  0.7818608E-02  0.1417375E+00
          2   -1    0    0  502    0  0.00000000000E+00  0.00000000000E+00  0.91234161652E+03  0.91234161652E+03  0.00000000000E+00 0. -1.
          1   -1    0    0  501    0 -0.00000000000E+00 -0.00000000000E+00 -0.12077724878E+04  0.12077724878E+04  0.00000000000E+00 0. -1.
         25    2    1    2    0    0  0.45461388977E+02 -0.97062108307E+01 -0.38238528641E+03  0.40497512779E+03  0.12500159378E+03 0.  0.
          2    1    1    2  501    0 -0.84623111114E+02  0.10677280377E+02 -0.81143016535E+03  0.81590072220E+03  0.00000000000E+00 0. -1.
          1    1    1    2  502    0  0.39161722136E+02 -0.97106954682E+00  0.89838458052E+03  0.89923825429E+03  0.00000000000E+00 0. -1.
         22    1    3    3    0    0 -0.42733530104E+02 -0.12483478084E+02 -0.14703705185E+03  0.15362905466E+03  0.00000000000E+00 0.  1.
         22    1    3    3    0    0  0.88194919081E+02  0.27772672531E+01 -0.23534823457E+03  0.25134607313E+03  0.00000000000E+00 0.  1.
</event>
<event>
 7    1  0.6273950E-006  0.1049943E+03  0.7818608E-02  0.1324235E+00
          2   -1    0    0  502    0  0.00000000000E+00  0.00000000000E+00  0.25636519812E+03  0.25636519812E+03  0.00000000000E+00 0. -1.
          1   -1    0    0  501    0 -0.00000000000E+00 -0.00000000000E+00 -0.18808746463E+04  0.18808746463E+04  0.00000000000E+00 0. -1.
         25    2    1    2    0    0 -0.62431602476E+02 -0.18776955957E+02  0.15883268812E+03  0.21237512434E+03  0.12500036625E+03 0.  0.
          2    1    1    2  501    0  0.10034080480E+03 -0.32299884642E+02 -0.18379872146E+04  0.18410074852E+04  0.00000000000E+00 0. -1.
          1    1    1    2  502    0 -0.37909202323E+02  0.51076840600E+02  0.54645078257E+02  0.83857234894E+02  0.00000000000E+00 0. -1.
         22    1    3    3    0    0 -0.24426049317E+02  0.37783221261E+02  0.13144961899E+03  0.13893597816E+03  0.00000000000E+00 0.  1.
         22    1    3    3    0    0 -0.38005553159E+02 -0.56560177218E+02  0.27383069131E+02  0.73439146188E+02  0.00000000000E+00 0.  1.
</event>
<event>
 7    1  0.6273950E-006  0.2397049E+02  0.7818608E-02  0.1695669E+00
          2   -1    0    0  502    0  0.00000000000E+00  0.00000000000E+00  0.14344477503E+03  0.14344477503E+03  0.00000000000E+00 0. -1.
          1   -1    0    0  501    0 -0.00000000000E+00 -0.00000000000E+00 -0.80277619257E+03  0.80277619257E+03  0.00000000000E+00 0. -1.
         25    2    1    2    0    0 -0.43607656899E+02  0.11323790750E+02 -0.33319753237E+03  0.35871341490E+03  0.12499944991E+03 0.  0.
          2    1    1    2  501    0  0.22742809003E+02 -0.58022802430E+01 -0.45562546003E+03  0.45622961505E+03  0.00000000000E+00 0. -1.
          1    1    1    2  502    0  0.20864847896E+02 -0.55215105067E+01  0.12949157485E+03  0.13127793765E+03  0.00000000000E+00 0. -1.
         22    1    3    3    0    0  0.20120634847E+02  0.51111456956E+02 -0.17809115413E+03  0.18636974046E+03  0.00000000000E+00 0.  1.
         22    1    3    3    0    0 -0.63728291746E+02 -0.39787666207E+02 -0.15510637823E+03  0.17234367444E+03  0.00000000000E+00 0.  1.
</event>
<event>
 7    1  0.6273950E-006  0.1173951E+03  0.7818608E-02  0.1339684E+00
          2   -1    0    0  502    0  0.00000000000E+00  0.00000000000E+00  0.23616585090E+04  0.23616585090E+04  0.00000000000E+00 0. -1.
          1   -1    0    0  501    0 -0.00000000000E+00 -0.00000000000E+00 -0.15176261746E+04  0.15176261746E+04  0.00000000000E+00 0. -1.
         25    2    1    2    0    0  0.10609565152E+03  0.12075601260E+03  0.61233055622E+03  0.64530021099E+03  0.12500140149E+03 0.  0.
          2    1    1    2  501    0 -0.24247206532E+02 -0.43361254194E+02 -0.14988986901E+04  0.14997217770E+04  0.00000000000E+00 0. -1.
          1    1    1    2  502    0 -0.81848444984E+02 -0.77394758407E+02  0.17306004683E+04  0.17342626956E+04  0.00000000000E+00 0. -1.
         22    1    3    3    0    0  0.13154901508E+03  0.92802303105E+02  0.54261809378E+03  0.56599629551E+03  0.00000000000E+00 0.  1.
         22    1    3    3    0    0 -0.25453363566E+02  0.27953709495E+02  0.69712462435E+02  0.79303915478E+02  0.00000000000E+00 0.  1.
</event>
<event>
 7    1  0.6273950E-006  0.2387510E+02  0.7818608E-02  0.1681987E+00
          2   -1    0    0  502    0  0.00000000000E+00  0.00000000000E+00  0.17852528339E+03  0.17852528339E+03  0.00000000000E+00 0. -1.
          1   -1    0    0  501    0 -0.00000000000E+00 -0.00000000000E+00 -0.52094514762E+03  0.52094514762E+03  0.00000000000E+00 0. -1.
         25    2    1    2    0    0 -0.35958249619E+02 -0.13836819562E+02 -0.55356673933E+02  0.14203003596E+03  0.12499486579E+03 0.  0.
          2    1    1    2  501    0  0.12843729675E+02  0.19470744103E+02 -0.42087963222E+03  0.42152548688E+03  0.00000000000E+00 0. -1.
          1    1    1    2  502    0  0.23114519944E+02 -0.56339245413E+01  0.13381644192E+03  0.13591490818E+03  0.00000000000E+00 0. -1.
         22    1    3    3    0    0 -0.14038758245E+02 -0.61944646029E+01  0.40548843910E+02  0.43355125040E+02  0.00000000000E+00 0.  1.
         22    1    3    3    0    0 -0.21919491374E+02 -0.76423549592E+01 -0.95905517843E+02  0.98674910916E+02  0.00000000000E+00 0.  1.
</event>
<event>
 7    1  0.6273950E-006  0.8568900E+02  0.7818608E-02  0.1379527E+00
          2   -1    0    0  502    0  0.00000000000E+00  0.00000000000E+00  0.33323492434E+04  0.33323492434E+04  0.00000000000E+00 0. -1.
          1   -1    0    0  501    0 -0.00000000000E+00 -0.00000000000E+00 -0.74093242065E+03  0.74093242065E+03  0.00000000000E+00 0. -1.
         25    2    1    2    0    0  0.18645915980E+02  0.97179910895E+02  0.16985631271E+03  0.23295372893E+03  0.12499867035E+03 0.  0.
          2    1    1    2  501    0 -0.45984917143E+02 -0.15983152821E+02 -0.70796149522E+03  0.70963339303E+03  0.00000000000E+00 0. -1.
          1    1    1    2  502    0  0.27339001162E+02 -0.81196758074E+02  0.31295220053E+04  0.31306945421E+04  0.00000000000E+00 0. -1.
         22    1    3    3    0    0 -0.34143983265E+02  0.65908330218E+02  0.29687801548E+02  0.79944262746E+02  0.00000000000E+00 0. -1.
         22    1    3    3    0    0  0.52789899246E+02  0.31271580677E+02  0.14016851116E+03  0.15300946618E+03  0.00000000000E+00 0. -1.
</event>
<event>
 7    1  0.6273950E-006  0.1354226E+03  0.7818608E-02  0.1389053E+00
          2   -1    0    0  502    0  0.00000000000E+00  0.00000000000E+00  0.43546947160E+03  0.43546947160E+03  0.00000000000E+00 0. -1.
          1   -1    0    0  501    0 -0.00000000000E+00 -0.00000000000E+00 -0.25628776570E+04  0.25628776570E+04  0.00000000000E+00 0. -1.
         25    2    1    2    0    0  0.71215264642E+02 -0.96273357095E+02 -0.17555823888E+03  0.24654881308E+03  0.12500179513E+03 0.  0.
          2    1    1    2  501    0 -0.99568312615E+02  0.93226752207E+02 -0.23493351784E+04  0.23532914942E+04  0.00000000000E+00 0. -1.
          1    1    1    2  502    0  0.28353047973E+02  0.30466048876E+01  0.39748523185E+03  0.39850682136E+03  0.00000000000E+00 0. -1.
         22    1    3    3    0    0  0.48057116664E+02 -0.94626924524E+02 -0.47278680610E+02  0.11618526132E+03  0.00000000000E+00 0.  1.
         22    1    3    3    0    0  0.23158147978E+02 -0.16464325707E+01 -0.12827955827E+03  0.13036355176E+03  0.00000000000E+00 0.  1.
</event>
<event>
 7    1  0.6273950E-006  0.1380407E+03  0.7818608E-02  0.1370956E+00
          2   -1    0    0  502    0  0.00000000000E+00  0.00000000000E+00  0.14982417425E+04  0.14982417425E+04  0.00000000000E+00 0. -1.
          1   -1    0    0  501    0 -0.00000000000E+00 -0.00000000000E+00 -0.41472182885E+03  0.41472182885E+03  0.00000000000E+00 0. -1.
         25    2    1    2    0    0 -0.63534522490E+02  0.98833375429E+02  0.17133198579E+03  0.24245571536E+03  0.12500181163E+03 0.  0.
          2    1    1    2  501    0  0.97949042766E+01  0.30909744942E+02 -0.37463967238E+03  0.37604020610E+03  0.00000000000E+00 0. -1.
          1    1    1    2  502    0  0.53739618213E+02 -0.12974312037E+03  0.12868276003E+04  0.12944676499E+04  0.00000000000E+00 0. -1.
         22    1    3    3    0    0 -0.25791625860E+02  0.10631881347E+03  0.17214669313E+03  0.20396907123E+03  0.00000000000E+00 0. -1.
         22    1    3    3    0    0 -0.37742896630E+02 -0.74854380418E+01 -0.81470733960E+00  0.38486644134E+02  0.00000000000E+00 0. -1.
</event>
<event>
 7    1  0.6273950E-006  0.1005072E+03  0.7818608E-02  0.1350890E+00
          2   -1    0    0  502    0  0.00000000000E+00  0.00000000000E+00  0.29901609433E+04  0.29901609433E+04  0.00000000000E+00 0. -1.
          1   -1    0    0  501    0 -0.00000000000E+00 -0.00000000000E+00 -0.65192788904E+02  0.65192788904E+02  0.00000000000E+00 0. -1.
         25    2    1    2    0    0 -0.13395976338E+02 -0.68340979701E+02  0.13695453119E+04  0.13770000442E+04  0.12499927380E+03 0.  0.
          2    1    1    2  501    0  0.12817060687E+02 -0.51118011354E+02 -0.47522681928E+02  0.70962901766E+02  0.00000000000E+00 0. -1.
          1    1    1    2  502    0  0.57891565141E+00  0.11945899106E+03  0.16029455244E+04  0.16073907863E+04  0.00000000000E+00 0. -1.
         22    1    3    3    0    0  0.31521402262E+02 -0.86154273704E+02  0.10224461044E+04  0.10265535515E+04  0.00000000000E+00 0.  1.
         22    1    3    3    0    0 -0.44917378600E+02  0.17813294002E+02  0.34709920754E+03  0.35044649266E+03  0.00000000000E+00 0.  1.
</event>
<event>
 7    1  0.6273950E-006  0.6139096E+02  0.7818608E-02  0.1424024E+00
          2   -1    0    0  502    0  0.00000000000E+00  0.00000000000E+00  0.22407040778E+03  0.22407040778E+03  0.00000000000E+00 0. -1.
          1   -1    0    0  501    0 -0.00000000000E+00 -0.00000000000E+00 -0.29562075889E+04  0.29562075889E+04  0.00000000000E+00 0. -1.
         25    2    1    2    0    0 -0.18465926677E+02 -0.63458049355E+01 -0.91495613924E+02  0.15613250824E+03  0.12499861228E+03 0.  0.
          2    1    1    2  501    0  0.58744804002E+02 -0.19417220430E+02 -0.28290694584E+04  0.28297459216E+04  0.00000000000E+00 0. -1.
          1    1    1    2  502    0 -0.40278877325E+02  0.25763025366E+02  0.18842789115E+03  0.19439956687E+03  0.00000000000E+00 0. -1.
         22    1    3    3    0    0  0.25056599646E+02 -0.53963077475E+02 -0.28517916750E+02  0.65978166784E+02  0.00000000000E+00 0. -1.
         22    1    3    3    0    0 -0.43522526324E+02  0.47617272539E+02 -0.62977697174E+02  0.90154341454E+02  0.00000000000E+00 0. -1.
</event>
<event>
 7    1  0.6273950E-006  0.1174750E+03  0.7818608E-02  0.1369100E+00
          2   -1    0    0  502    0  0.00000000000E+00  0.00000000000E+00  0.54502292933E+03  0.54502292933E+03  0.00000000000E+00 0. -1.
          1   -1    0    0  501    0 -0.00000000000E+00 -0.00000000000E+00 -0.92594726162E+03  0.92594726162E+03  0.00000000000E+00 0. -1.
         25    2    1    2    0    0  0.12360794634E+03 -0.68266045860E+02  0.16171447743E+03  0.24842663680E+03  0.12500017697E+03 0.  0.
          2    1    1    2  501    0 -0.86435423411E+02  0.78998359971E+02 -0.87758869400E+03  0.88536644342E+03  0.00000000000E+00 0. -1.
          1    1    1    2  502    0 -0.37172522933E+02 -0.10732314111E+02  0.33494988427E+03  0.33717711073E+03  0.00000000000E+00 0. -1.
         22    1    3    3    0    0  0.81830677117E+02 -0.19105294364E+02  0.11334803541E+02  0.84792392120E+02  0.00000000000E+00 0.  1.
         22    1    3    3    0    0  0.41777269227E+02 -0.49160751495E+02  0.15037967389E+03  0.16363424468E+03  0.00000000000E+00 0.  1.
</event>
<event>
 7    1  0.6273950E-006  0.7725616E+02  0.7818608E-02  0.1362927E+00
          2   -1    0    0  502    0  0.00000000000E+00  0.00000000000E+00  0.13339915571E+03  0.13339915571E+03  0.00000000000E+00 0. -1.
          1   -1    0    0  501    0 -0.00000000000E+00 -0.00000000000E+00 -0.59148804287E+03  0.59148804287E+03  0.00000000000E+00 0. -1.
         25    2    1    2    0    0  0.60462466760E+02 -0.28642441202E+01 -0.13814726720E+03  0.19589297247E+03  0.12500190176E+03 0.  0.
          2    1    1    2  501    0 -0.10964358405E+02 -0.60958079909E+02 -0.40615963763E+03  0.41085490858E+03  0.00000000000E+00 0. -1.
          1    1    1    2  502    0 -0.49498108356E+02  0.63822324029E+02  0.86218017675E+02  0.11813931753E+03  0.00000000000E+00 0. -1.
         22    1    3    3    0    0 -0.11083204647E+02  0.10107410754E+02 -0.12002222104E+03  0.12095590403E+03  0.00000000000E+00 0. -1.
         22    1    3    3    0    0  0.71545671407E+02 -0.12971654874E+02 -0.18125046170E+02  0.74937068437E+02  0.00000000000E+00 0. -1.
</event>
<event>
 7    1  0.6273950E-006  0.4297958E+02  0.7818608E-02  0.1556620E+00
          2   -1    0    0  502    0  0.00000000000E+00  0.00000000000E+00  0.16817933624E+03  0.16817933624E+03  0.00000000000E+00 0. -1.
          1   -1    0    0  501    0 -0.00000000000E+00 -0.00000000000E+00 -0.12433043169E+04  0.12433043169E+04  0.00000000000E+00 0. -1.
         25    2    1    2    0    0  0.63926185391E+02 -0.20119470854E+02 -0.63660890314E+02  0.15546242215E+03  0.12499802182E+03 0.  0.
          2    1    1    2  501    0 -0.36894283590E+02  0.21660414321E+02 -0.11318347158E+04  0.11326430089E+04  0.00000000000E+00 0. -1.
          1    1    1    2  502    0 -0.27031901801E+02 -0.15409434667E+01  0.12037062544E+03  0.12337822211E+03  0.00000000000E+00 0. -1.
         22    1    3    3    0    0  0.48399096810E+02  0.20838852513E+02 -0.90042785625E+02  0.10432848887E+03  0.00000000000E+00 0.  1.
         22    1    3    3    0    0  0.15527088581E+02 -0.40958323367E+02  0.26381895311E+02  0.51133933283E+02  0.00000000000E+00 0.  1.
</event>
<event>
 7    1  0.6273950E-006  0.1578198E+03  0.7818608E-02  0.1236607E+00
          2   -1    0    0  502    0  0.00000000000E+00  0.00000000000E+00  0.13646070014E+04  0.13646070014E+04  0.00000000000E+00 0. -1.
          1   -1    0    0  501    0 -0.00000000000E+00 -0.00000000000E+00 -0.16356165416E+04  0.16356165416E+04  0.00000000000E+00 0. -1.
         25    2    1    2    0    0  0.83214805632E+02  0.45360392671E+02  0.29980288278E+03  0.33836223836E+03  0.12499986689E+03 0.  0.
          2    1    1    2  501    0  0.51945278106E+02  0.82463819524E+02 -0.16065733339E+04  0.16095267847E+04  0.00000000000E+00 0. -1.
          1    1    1    2  502    0 -0.13516008374E+03 -0.12782421219E+03  0.10357609109E+04  0.10523345200E+04  0.00000000000E+00 0. -1.
         22    1    3    3    0    0  0.40050570468E+02  0.12068454520E+02  0.93804696572E+01  0.42868274986E+02  0.00000000000E+00 0. -1.
         22    1    3    3    0    0  0.43164235164E+02  0.33291938151E+02  0.29042241313E+03  0.29549396337E+03  0.00000000000E+00 0. -1.
</event>
<event>
 7    1  0.6273950E-006  0.4481828E+02  0.7818608E-02  0.1488702E+00
          2   -1    0    0  502    0  0.00000000000E+00  0.00000000000E+00  0.99200675555E+03  0.99200675555E+03  0.00000000000E+00 0. -1.
          1   -1    0    0  501    0 -0.00000000000E+00 -0.00000000000E+00 -0.17084299074E+03  0.17084299074E+03  0.00000000000E+00 0. -1.
         25    2    1    2    0    0  0.29774332050E+02  0.12936984735E+02  0.16202421491E+03  0.20719931621E+03  0.12500333594E+03 0.  0.
          2    1    1    2  501    0 -0.24815842060E+02  0.32426857042E+02 -0.14478446374E+03  0.15043227052E+03  0.00000000000E+00 0. -1.
          1    1    1    2  502    0 -0.49584899905E+01 -0.45363841777E+02  0.80392401364E+03  0.80521815955E+03  0.00000000000E+00 0. -1.
         22    1    3    3    0    0  0.70445609749E+00  0.10943775658E+02  0.17497103026E+03  0.17531435741E+03  0.00000000000E+00 0. -1.
         22    1    3    3    0    0  0.29069875953E+02  0.19932090769E+01 -0.12946815344E+02  0.31884958803E+02  0.00000000000E+00 0. -1.
</event>
<event>
 7    1  0.6273950E-006  0.4859621E+02  0.7818608E-02  0.1496217E+00
          2   -1    0    0  502    0  0.00000000000E+00  0.00000000000E+00  0.18317376556E+04  0.18317376556E+04  0.00000000000E+00 0. -1.
          1   -1    0    0  501    0 -0.00000000000E+00 -0.00000000000E+00 -0.40657097290E+02  0.40657097290E+02  0.00000000000E+00 0. -1.
         25    2    1    2    0    0 -0.15062228772E+00 -0.38219242864E+02  0.71919014192E+03  0.73097214142E+03  0.12500031229E+03 0.  0.
          2    1    1    2  501    0 -0.35356224145E+02  0.34108479420E+02 -0.16970277821E+02  0.51975391133E+02  0.00000000000E+00 0. -1.
          1    1    1    2  502    0  0.35506846433E+02  0.41107634436E+01  0.10888606942E+04  0.10894472203E+04  0.00000000000E+00 0. -1.
         22    1    3    3    0    0  0.42928684884E+02  0.27885753255E+02  0.31843546935E+03  0.32252385239E+03  0.00000000000E+00 0. -1.
         22    1    3    3    0    0 -0.43079307172E+02 -0.66104996118E+02  0.40075467257E+03  0.40844828902E+03  0.00000000000E+00 0. -1.
</event>
<event>
 7    1  0.6273950E-006  0.1256289E+03  0.7818608E-02  0.1298330E+00
          2   -1    0    0  502    0  0.00000000000E+00  0.00000000000E+00  0.44181129765E+03  0.44181129765E+03  0.00000000000E+00 0. -1.
          1   -1    0    0  501    0 -0.00000000000E+00 -0.00000000000E+00 -0.10152156938E+04  0.10152156938E+04  0.00000000000E+00 0. -1.
         25    2    1    2    0    0 -0.61783546477E+02 -0.22625857542E+02 -0.57997925595E+02  0.15270084891E+03  0.12499861535E+03 0.  0.
          2    1    1    2  501    0  0.12881927036E+03  0.27564997901E+02 -0.90218404209E+03  0.91175121570E+03  0.00000000000E+00 0. -1.
          1    1    1    2  502    0 -0.67035723882E+02 -0.49391403591E+01  0.38677757151E+03  0.39257492687E+03  0.00000000000E+00 0. -1.
         22    1    3    3    0    0  0.81431752657E+01 -0.50109265095E+02 -0.58642748896E+02  0.77564307190E+02  0.00000000000E+00 0. -1.
         22    1    3    3    0    0 -0.69926721743E+02  0.27483407552E+02  0.64482330139E+00  0.75136541719E+02  0.00000000000E+00 0. -1.
</event>
<event>
 7    1  0.6273950E-006  0.4312935E+02  0.7818608E-02  0.1565062E+00
          2   -1    0    0  502    0  0.00000000000E+00  0.00000000000E+00  0.12343743099E+04  0.12343743099E+04  0.00000000000E+00 0. -1.
          1   -1    0    0  501    0 -0.00000000000E+00 -0.00000000000E+00 -0.55197279997E+02  0.55197279997E+02  0.00000000000E+00 0. -1.
         25    2    1    2    0    0 -0.83972732149E+01  0.66663447076E+02  0.27268958516E+03  0.30740627060E+03  0.12499790388E+03 0.  0.
          2    1    1    2  501    0  0.93859736865E+01 -0.41105111730E+02 -0.25863504987E+02  0.49463598762E+02  0.00000000000E+00 0. -1.
          1    1    1    2  502    0 -0.98870047159E+00 -0.25558335347E+02  0.93235094975E+03  0.93270172056E+03  0.00000000000E+00 0. -1.
         22    1    3    3    0    0 -0.20835544049E+02  0.10118389267E+03  0.22168749314E+03  0.24457645972E+03  0.00000000000E+00 0. -1.
         22    1    3    3    0    0  0.12438270834E+02 -0.34520445592E+02  0.51002092021E+02  0.62829810884E+02  0.00000000000E+00 0. -1.
</event>
<event>
 7    1  0.6273950E-006  0.7580404E+02  0.7818608E-02  0.1457635E+00
          2   -1    0    0  502    0  0.00000000000E+00  0.00000000000E+00  0.31311025861E+04  0.31311025861E+04  0.00000000000E+00 0. -1.
          1   -1    0    0  501    0 -0.00000000000E+00 -0.00000000000E+00 -0.21641313986E+03  0.21641313986E+03  0.00000000000E+00 0. -1.
         25    2    1    2    0    0  0.52736221933E+02 -0.56918720884E+02  0.32643153471E+03  0.35805448560E+03  0.12499847165E+03 0.  0.
          2    1    1    2  501    0 -0.26499070511E+02 -0.14338784735E+02 -0.19895030215E+03  0.20121884656E+03  0.00000000000E+00 0. -1.
          1    1    1    2  502    0 -0.26237151422E+02  0.71257505619E+02  0.27872082137E+04  0.27882423938E+04  0.00000000000E+00 0. -1.
         22    1    3    3    0    0  0.63883941935E+02 -0.88345137936E+02  0.28317723962E+03  0.30343923687E+03  0.00000000000E+00 0.  1.
         22    1    3    3    0    0 -0.11147720002E+02  0.31426417052E+02  0.43254295083E+02  0.54615248723E+02  0.00000000000E+00 0.  1.
</event>
<event>
 7    1  0.6273950E-006  0.5000297E+02  0.7818608E-02  0.1529149E+00
          2   -1    0    0  502    0  0.00000000000E+00  0.00000000000E+00  0.68797144046E+02  0.68797144046E+02  0.00000000000E+00 0. -1.
          1   -1    0    0  501    0 -0.00000000000E+00 -0.00000000000E+00 -0.64576365260E+03  0.64576365260E+03  0.00000000000E+00 0. -1.
         25    2    1    2    0    0 -0.14261755632E+01  0.29161958178E+02 -0.27182865063E+03  0.30060631323E+03  0.12498354480E+03 0.  0.
          2    1    1    2  501    0  0.21395062112E+02  0.17767480811E+02 -0.34691430425E+03  0.34802724973E+03  0.00000000000E+00 0. -1.
          1    1    1    2  502    0 -0.19968886549E+02 -0.46929438989E+02  0.41776446330E+02  0.65927233688E+02  0.00000000000E+00 0. -1.
         22    1    3    3    0    0 -0.87402591164E+00  0.73627058160E+02 -0.10701961003E+03  0.12990344316E+03  0.00000000000E+00 0.  1.
         22    1    3    3    0    0 -0.55214965161E+00 -0.44465099982E+02 -0.16480904061E+03  0.17070287007E+03  0.00000000000E+00 0.  1.
</event>
<event>
 7    1  0.6273950E-006  0.8082099E+02  0.7818608E-02  0.1383956E+00
          2   -1    0    0  502    0  0.00000000000E+00  0.00000000000E+00  0.10228331141E+03  0.10228331141E+03  0.00000000000E+00 0. -1.
          1   -1    0    0  501    0 -0.00000000000E+00 -0.00000000000E+00 -0.48002793166E+03  0.48002793166E+03  0.00000000000E+00 0. -1.
         25    2    1    2    0    0 -0.26093858979E+02 -0.26338104050E+02 -0.15588324049E+03  0.20322108382E+03  0.12499855616E+03 0.  0.
          2    1    1    2  501    0 -0.33198898619E+02 -0.37105599829E+02 -0.27354282368E+03  0.27803717161E+03  0.00000000000E+00 0. -1.
          1    1    1    2  502    0  0.59292757598E+02  0.63443703879E+02  0.51681443916E+02  0.10105298764E+03  0.00000000000E+00 0. -1.
         22    1    3    3    0    0  0.18809135386E+02  0.81872660928E+01 -0.14386276069E+03  0.14531795764E+03  0.00000000000E+00 0. -1.
         22    1    3    3    0    0 -0.44902994365E+02 -0.34525370142E+02 -0.12020479798E+02  0.57903126176E+02  0.00000000000E+00 0. -1.
</event>
<event>
 7    1  0.6273950E-006  0.1898184E+03  0.7818608E-02  0.1180917E+00
          2   -1    0    0  502    0  0.00000000000E+00  0.00000000000E+00  0.15836015185E+04  0.15836015185E+04  0.00000000000E+00 0. -1.
          1   -1    0    0  501    0 -0.00000000000E+00 -0.00000000000E+00 -0.34903969656E+03  0.34903969656E+03  0.00000000000E+00 0. -1.
         25    2    1    2    0    0  0.20774332289E+03  0.20572892516E+03  0.20940948385E+03  0.38073438837E+03  0.12499865481E+03 0.  0.
          2    1    1    2  501    0 -0.14315949086E+03 -0.33748844913E+02 -0.23565330700E+03  0.27778787853E+03  0.00000000000E+00 0. -1.
          1    1    1    2  502    0 -0.64583832036E+02 -0.17198008025E+03  0.12608056451E+04  0.12741189481E+04  0.00000000000E+00 0. -1.
         22    1    3    3    0    0  0.11170052369E+03  0.95509526938E+02  0.31216100062E+02  0.15024487223E+03  0.00000000000E+00 0.  1.
         22    1    3    3    0    0  0.96042799207E+02  0.11021939823E+03  0.17819338379E+03  0.23048951614E+03  0.00000000000E+00 0.  1.
</event>
<event>
 7    1  0.6273950E-006  0.5196015E+02  0.7818608E-02  0.1449100E+00
          2   -1    0    0  502    0  0.00000000000E+00  0.00000000000E+00  0.28064577472E+04  0.28064577472E+04  0.00000000000E+00 0. -1.
          1   -1    0    0  501    0 -0.00000000000E+00 -0.00000000000E+00 -0.40931280185E+03  0.40931280185E+03  0.00000000000E+00 0. -1.
         25    2    1    2    0    0  0.38675731833E+02 -0.49588338098E+02  0.19644041409E+04  0.19693815157E+04  0.12500043907E+03 0.  0.
          2    1    1    2  501    0  0.14273099651E+02  0.44564907888E+02 -0.40463197956E+03  0.40732884906E+03  0.00000000000E+00 0. -1.
          1    1    1    2  502    0 -0.52948831484E+02  0.50234302102E+01  0.83737278395E+03  0.83906018432E+03  0.00000000000E+00 0. -1.
         22    1    3    3    0    0  0.72575303131E+02  0.58504175642E+01  0.86520037392E+03  0.86825865330E+03  0.00000000000E+00 0.  1.
         22    1    3    3    0    0 -0.33899571298E+02 -0.55438755662E+02  0.10992037670E+04  0.11011228624E+04  0.00000000000E+00 0.  1.
</event>
<event>
 7    1  0.6273950E-006  0.3789209E+02  0.7818608E-02  0.1601226E+00
          2   -1    0    0  502    0  0.00000000000E+00  0.00000000000E+00  0.84682103924E+03  0.84682103924E+03  0.00000000000E+00 0. -1.
          1   -1    0    0  501    0 -0.00000000000E+00 -0.00000000000E+00 -0.89256356615E+02  0.89256356615E+02  0.00000000000E+00 0. -1.
         25    2    1    2    0    0  0.36896567064E+02 -0.13735199971E+02  0.29708120668E+03  0.32469844452E+03  0.12498729588E+03 0.  0.
          2    1    1    2  501    0 -0.36751642137E+02 -0.95717196190E+01 -0.70396652370E+02  0.79987434520E+02  0.00000000000E+00 0. -1.
          1    1    1    2  502    0 -0.14492492753E+00  0.23306919590E+02  0.53088012831E+03  0.53139151681E+03  0.00000000000E+00 0. -1.
         22    1    3    3    0    0  0.38338561759E+01 -0.42498360250E+02  0.26963393109E+03  0.27298949774E+03  0.00000000000E+00 0.  1.
         22    1    3    3    0    0  0.33062710888E+02  0.28763160279E+02  0.27447275590E+02  0.51708946787E+02  0.00000000000E+00 0.  1.
</event>
<event>
 7    1  0.6273950E-006  0.7982531E+02  0.7818608E-02  0.1426327E+00
          2   -1    0    0  502    0  0.00000000000E+00  0.00000000000E+00  0.49985931372E+03  0.49985931372E+03  0.00000000000E+00 0. -1.
          1   -1    0    0  501    0 -0.00000000000E+00 -0.00000000000E+00 -0.43975106142E+03  0.43975106142E+03  0.00000000000E+00 0. -1.
         25    2    1    2    0    0 -0.72112403071E+02  0.82620088424E+02  0.93901552568E+02  0.19096710115E+03  0.12499861783E+03 0.  0.
          2    1    1    2  501    0  0.63085455846E+02 -0.47635016271E+02 -0.38629219921E+03  0.39429751798E+03  0.00000000000E+00 0. -1.
          1    1    1    2  502    0  0.90269472258E+01 -0.34985072153E+02  0.35249889894E+03  0.35434575601E+03  0.00000000000E+00 0. -1.
         22    1    3    3    0    0 -0.10222305479E+03  0.45386630379E+02  0.39796132240E+02  0.11871491603E+03  0.00000000000E+00 0.  1.
         22    1    3    3    0    0  0.30110651718E+02  0.37233458045E+02  0.54105420328E+02  0.72252185114E+02  0.00000000000E+00 0.  1.
</event>
<event>
 7    1  0.6273950E-006  0.8250095E+02  0.7818608E-02  0.1497405E+00
          2   -1    0    0  502    0  0.00000000000E+00  0.00000000000E+00  0.12249374553E+04  0.12249374553E+04  0.00000000000E+00 0. -1.
          1   -1    0    0  501    0 -0.00000000000E+00 -0.00000000000E+00 -0.17353244267E+02  0.17353244267E+02  0.00000000000E+00 0. -1.
         25    2    1    2    0    0  0.21165814627E+02 -0.76616271187E+02  0.46822898879E+03  0.49110061094E+03  0.12499351745E+03 0.  0.
          2    1    1    2  501    0 -0.41941843744E+02  0.74508816238E+02  0.31729142922E+03  0.32861000138E+03  0.00000000000E+00 0. -1.
          1    1    1    2  502    0  0.20776029118E+02  0.21074549492E+01  0.42206379306E+03  0.42258008728E+03  0.00000000000E+00 0. -1.
         22    1    3    3    0    0  0.61800221123E+02 -0.72245462710E+02  0.22196865032E+03  0.24147206037E+03  0.00000000000E+00 0. -1.
         22    1    3    3    0    0 -0.40634406497E+02 -0.43708084768E+01  0.24626033847E+03  0.24962855058E+03  0.00000000000E+00 0. -1.
</event>
<event>
 7    1  0.6273950E-006  0.2036608E+03  0.7818608E-02  0.1293091E+00
          2   -1    0    0  502    0  0.00000000000E+00  0.00000000000E+00  0.13038433912E+04  0.13038433912E+04  0.00000000000E+00 0. -1.
          1   -1    0    0  501    0 -0.00000000000E+00 -0.00000000000E+00 -0.10317223318E+04  0.10317223318E+04  0.00000000000E+00 0. -1.
         25    2    1    2    0    0  0.43341453450E+02 -0.17061646880E+03 -0.69111759644E+02  0.22669303139E+03  0.12499933660E+03 0.  0.
          2    1    1    2  501    0 -0.81445884521E+02  0.19165971589E+03 -0.87115704233E+03  0.89570166417E+03  0.00000000000E+00 0. -1.
          1    1    1    2  502    0  0.38104431071E+02 -0.21043247097E+02  0.12123898614E+04  0.12131710275E+04  0.00000000000E+00 0. -1.
         22    1    3    3    0    0 -0.51846044810E+01 -0.26222474584E+02  0.33625788903E+02  0.42955697833E+02  0.00000000000E+00 0.  1.
         22    1    3    3    0    0  0.48526057931E+02 -0.14439399421E+03 -0.10273754855E+03  0.18373733356E+03  0.00000000000E+00 0.  1.
</event>
<event>
 7    1  0.6273950E-006  0.8678028E+02  0.7818608E-02  0.1358355E+00
          2   -1    0    0  502    0  0.00000000000E+00  0.00000000000E+00  0.29113981288E+03  0.29113981288E+03  0.00000000000E+00 0. -1.
          1   -1    0    0  501    0 -0.00000000000E+00 -0.00000000000E+00 -0.17154253109E+04  0.17154253109E+04  0.00000000000E+00 0. -1.
         25    2    1    2    0    0 -0.10287978131E+03  0.86272047715E+00  0.58703768866E+02  0.17220921817E+03  0.12499955463E+03 0.  0.
          2    1    1    2  501    0  0.71687961106E+02 -0.48924346868E+02 -0.16528319820E+04  0.16551091553E+04  0.00000000000E+00 0. -1.
          1    1    1    2  502    0  0.31191820202E+02  0.48061626391E+02  0.16984271513E+03  0.17924675021E+03  0.00000000000E+00 0. -1.
         22    1    3    3    0    0 -0.60059966264E+02 -0.51136941317E+02  0.68081941176E+02  0.10419854620E+03  0.00000000000E+00 0. -1.
         22    1    3    3    0    0 -0.42819815044E+02  0.51999661794E+02 -0.93781723104E+01  0.68010671979E+02  0.00000000000E+00 0. -1.
</event>
<event>
 7    1  0.6273950E-006  0.1457917E+03  0.7818608E-02  0.1215823E+00
          2   -1    0    0  502    0  0.00000000000E+00  0.00000000000E+00  0.19520280615E+04  0.19520280615E+04  0.00000000000E+00 0. -1.
          1   -1    0    0  501    0 -0.00000000000E+00 -0.00000000000E+00 -0.66886642035E+02  0.66886642035E+02  0.00000000000E+00 0. -1.
         25    2    1    2    0    0 -0.10041956524E+03 -0.76972263706E+02  0.12527724550E+04  0.12653357798E+04  0.12500797268E+03 0.  0.
          2    1    1    2  501    0  0.95914828895E+02 -0.10979783255E+03  0.71436694913E+02  0.16235276349E+03  0.00000000000E+00 0. -1.
          1    1    1    2  502    0  0.45047363412E+01  0.18677009625E+03  0.56093226962E+03  0.59122616029E+03  0.00000000000E+00 0. -1.
         22    1    3    3    0    0  0.83505341269E+01  0.17272142917E+02  0.40344528686E+03  0.40390117334E+03  0.00000000000E+00 0. -1.
         22    1    3    3    0    0 -0.10877009936E+03 -0.94244406623E+02  0.84932716810E+03  0.86143460643E+03  0.00000000000E+00 0. -1.
</event>
<event>
 7    1  0.6273950E-006  0.1288479E+03  0.7818608E-02  0.1327730E+00
          2   -1    0    0  502    0  0.00000000000E+00  0.00000000000E+00  0.63011486562E+03  0.63011486562E+03  0.00000000000E+00 0. -1.
          1   -1    0    0  501    0 -0.00000000000E+00 -0.00000000000E+00 -0.24304791463E+03  0.24304791463E+03  0.00000000000E+00 0. -1.
         25    2    1    2    0    0  0.12498779850E+02 -0.85939153939E+02  0.82433877526E+02  0.17309903446E+03  0.12500469547E+03 0.  0.
          2    1    1    2  501    0 -0.11741312564E+02  0.13618675510E+03 -0.17261162957E+03  0.22018052900E+03  0.00000000000E+00 0. -1.
          1    1    1    2  502    0 -0.75746728576E+00 -0.50247601160E+02  0.47724470304E+03  0.47988321679E+03  0.00000000000E+00 0. -1.
         22    1    3    3    0    0 -0.20567382436E+02 -0.94633690127E+02  0.15687362825E+02  0.98105279571E+02  0.00000000000E+00 0. -1.
         22    1    3    3    0    0  0.33066162286E+02  0.86945361873E+01  0.66746514701E+02  0.74993754891E+02  0.00000000000E+00 0. -1.
</event>
<event>
 7    1  0.6273950E-006  0.7205694E+02  0.7818608E-02  0.1364221E+00
          2   -1    0    0  502    0  0.00000000000E+00  0.00000000000E+00  0.25106616268E+04  0.25106616268E+04  0.00000000000E+00 0. -1.
          1   -1    0    0  501    0 -0.00000000000E+00 -0.00000000000E+00 -0.12252822202E+03  0.12252822202E+03  0.00000000000E+00 0. -1.
         25    2    1    2    0    0 -0.69257452982E+02  0.11793058649E+03  0.84401145039E+02  0.20359820629E+03  0.12499783317E+03 0.  0.
          2    1    1    2  501    0  0.37657089342E+02 -0.53826075576E+02 -0.45093431159E+02  0.79678857443E+02  0.00000000000E+00 0. -1.
          1    1    1    2  502    0  0.31600363640E+02 -0.64104510914E+02  0.23488256909E+04  0.23499127851E+04  0.00000000000E+00 0. -1.
         22    1    3    3    0    0 -0.53504116966E+02  0.10530379959E+03  0.11635461455E+03  0.16580101649E+03  0.00000000000E+00 0.  1.
         22    1    3    3    0    0 -0.15753336017E+02  0.12626786898E+02 -0.31953469513E+02  0.37797189802E+02  0.00000000000E+00 0.  1.
</event>
<event>
 7    1  0.6273950E-006  0.9390841E+02  0.7818608E-02  0.1406052E+00
          2   -1    0    0  502    0  0.00000000000E+00  0.00000000000E+00  0.13725481514E+03  0.13725481514E+03  0.00000000000E+00 0. -1.
          1   -1    0    0  501    0 -0.00000000000E+00 -0.00000000000E+00 -0.27294113134E+03  0.27294113134E+03  0.00000000000E+00 0. -1.
         25    2    1    2    0    0  0.78316653566E+02  0.55637299911E+02 -0.32310445611E+02  0.16092331044E+03  0.12499335815E+03 0.  0.
          2    1    1    2  501    0 -0.26731579535E+02  0.24002310746E+02 -0.14226106980E+03  0.14672729891E+03  0.00000000000E+00 0. -1.
          1    1    1    2  502    0 -0.51585074032E+02 -0.79639610657E+02  0.38885199213E+02  0.10254533713E+03  0.00000000000E+00 0. -1.
         22    1    3    3    0    0 -0.31771307784E+02  0.13307478749E+01  0.59371339978E+01  0.32348669962E+02  0.00000000000E+00 0.  1.
         22    1    3    3    0    0  0.11008796135E+03  0.54306552036E+02 -0.38247579609E+02  0.12857464048E+03  0.00000000000E+00 0.  1.
</event>
<event>
 7    1  0.6273950E-006  0.2150582E+03  0.7818608E-02  0.1144774E+00
          2   -1    0    0  502    0  0.00000000000E+00  0.00000000000E+00  0.27451645586E+04  0.27451645586E+04  0.00000000000E+00 0. -1.
          1   -1    0    0  501    0 -0.00000000000E+00 -0.00000000000E+00 -0.18931376730E+03  0.18931376730E+03  0.00000000000E+00 0. -1.
         25    2    1    2    0    0  0.11251585320E+03  0.46928333692E+00  0.31178269565E+03  0.35424942092E+03  0.12499666183E+03 0.  0.
          2    1    1    2  501    0 -0.93828489404E+02 -0.21471406161E+03 -0.78960847965E+02  0.24726651449E+03  0.00000000000E+00 0. -1.
          1    1    1    2  502    0 -0.18687363793E+02  0.21424477828E+03  0.23230289437E+04  0.23329623905E+04  0.00000000000E+00 0. -1.
         22    1    3    3    0    0  0.71570076276E+01 -0.40810620384E+02  0.31691397624E+02  0.52163916434E+02  0.00000000000E+00 0.  1.
         22    1    3    3    0    0  0.10535884557E+03  0.41279903721E+02  0.28009129803E+03  0.30208550449E+03  0.00000000000E+00 0.  1.
</event>
<event>
 7    1  0.6273950E-006  0.1178871E+03  0.7818608E-02  0.1442450E+00
          2   -1    0    0  502    0  0.00000000000E+00  0.00000000000E+00  0.43051615604E+03  0.43051615604E+03  0.00000000000E+00 0. -1.
          1   -1    0    0  501    0 -0.00000000000E+00 -0.00000000000E+00 -0.17894358694E+04  0.17894358694E+04  0.00000000000E+00 0. -1.
         25    2    1    2    0    0  0.81616212505E+01  0.13864992701E+03 -0.43881826725E+03  0.47694501418E+03  0.12499864225E+03 0.  0.
          2    1    1    2  501    0  0.19313049926E+01 -0.21581111547E+02 -0.13230745556E+04  0.13232519616E+04  0.00000000000E+00 0. -1.
          1    1    1    2  502    0 -0.10092926243E+02 -0.11706881547E+03  0.40297310948E+03  0.41975504962E+03  0.00000000000E+00 0. -1.
         22    1    3    3    0    0  0.44483432850E+02  0.15038855284E+02 -0.56296523322E+02  0.73309218414E+02  0.00000000000E+00 0. -1.
         22    1    3    3    0    0 -0.36321811599E+02  0.12361107173E+03 -0.38252174392E+03  0.40363579577E+03  0.00000000000E+00 0. -1.
</event>
<event>
 7    1  0.6273950E-006  0.6394521E+02  0.7818608E-02  0.1416548E+00
          2   -1    0    0  502    0  0.00000000000E+00  0.00000000000E+00  0.37031595032E+03  0.37031595032E+03  0.00000000000E+00 0. -1.
          1   -1    0    0  501    0 -0.00000000000E+00 -0.00000000000E+00 -0.10782834289E+04  0.10782834289E+04  0.00000000000E+00 0. -1.
         25    2    1    2    0    0 -0.22251071108E+02  0.31232479291E+02 -0.95231884428E+02  0.16174544585E+03  0.12498759744E+03 0.  0.
          2    1    1    2  501    0  0.64774609920E+02 -0.76623643894E+01 -0.94691373922E+03  0.94915756935E+03  0.00000000000E+00 0. -1.
          1    1    1    2  502    0 -0.42523538812E+02 -0.23570114901E+02  0.33417814504E+03  0.33769636405E+03  0.00000000000E+00 0. -1.
         22    1    3    3    0    0 -0.16844060952E+02 -0.46636170083E+02 -0.54571187508E+02  0.73733772828E+02  0.00000000000E+00 0. -1.
         22    1    3    3    0    0 -0.54070101563E+01  0.77868649374E+02 -0.40660696920E+02  0.88011673022E+02  0.00000000000E+00 0. -1.
</event>
<event>
 7    1  0.6273950E-006  0.1645575E+03  0.7818608E-02  0.1407654E+00
          2   -1    0    0  502    0  0.00000000000E+00  0.00000000000E+00  0.27698904676E+04  0.27698904676E+04  0.00000000000E+00 0. -1.
          1   -1    0    0  501    0 -0.00000000000E+00 -0.00000000000E+00 -0.51681728816E+03  0.51681728816E+03  0.00000000000E+00 0. -1.
         25    2    1    2    0    0 -0.15138652600E+03  0.32883121233E+02  0.12778654248E+03  0.23654676697E+03  0.12500317039E+03 0.  0.
          2    1    1    2  501    0 -0.12783931096E+02 -0.15699694258E+02 -0.45958172482E+03  0.46002746774E+03  0.00000000000E+00 0. -1.
          1    1    1    2  502    0  0.16417045709E+03 -0.17183426975E+02  0.25848683618E+04  0.25901335210E+04  0.00000000000E+00 0. -1.
         22    1    3    3    0    0 -0.10138877144E+03 -0.22712136855E+02  0.20705571131E+02  0.10594453648E+03  0.00000000000E+00 0.  1.
         22    1    3    3    0    0 -0.49997754558E+02  0.55595258087E+02  0.10708097135E+03  0.13060223048E+03  0.00000000000E+00 0.  1.
</event>
<event>
 7    1  0.6273950E-006  0.7578074E+02  0.7818608E-02  0.1357055E+00
          2   -1    0    0  502    0  0.00000000000E+00  0.00000000000E+00  0.34319546730E+03  0.34319546730E+03  0.00000000000E+00 0. -1.
          1   -1    0    0  501    0 -0.00000000000E+00 -0.00000000000E+00 -0.67838033347E+03  0.67838033347E+03  0.00000000000E+00 0. -1.
         25    2    1    2    0    0 -0.11614708154E+02 -0.14481740840E+02 -0.24569675790E+02  0.12873670277E+03  0.12499938963E+03 0.  0.
          2    1    1    2  501    0  0.92870683951E+01 -0.65682354094E+02 -0.59432322627E+03  0.59801381135E+03  0.00000000000E+00 0. -1.
          1    1    1    2  502    0  0.23276397589E+01  0.80164094934E+02  0.28370803589E+03  0.29482528666E+03  0.00000000000E+00 0. -1.
         22    1    3    3    0    0  0.34244985069E+02 -0.25145767270E+02  0.33409180469E+02  0.54048144775E+02  0.00000000000E+00 0. -1.
         22    1    3    3    0    0 -0.45859693223E+02  0.10664026429E+02 -0.57978856259E+02  0.74688557994E+02  0.00000000000E+00 0. -1.
</event>
<event>
 7    1  0.6273950E-006  0.5405970E+02  0.7818608E-02  0.1495501E+00
          2   -1    0    0  502    0  0.00000000000E+00  0.00000000000E+00  0.43384585209E+03  0.43384585209E+03  0.00000000000E+00 0. -1.
          1   -1    0    0  501    0 -0.00000000000E+00 -0.00000000000E+00 -0.67157016957E+03  0.67157016957E+03  0.00000000000E+00 0. -1.
         25    2    1    2    0    0 -0.12742095512E+02 -0.31368285148E+02 -0.85932754064E+02  0.15542396921E+03  0.12500336664E+03 0.  0.
          2    1    1    2  501    0  0.23650059939E+02 -0.21985888025E+02 -0.54855709200E+03  0.54950667674E+03  0.00000000000E+00 0. -1.
          1    1    1    2  502    0 -0.10907964427E+02  0.53354173173E+02  0.39676552858E+03  0.40048537571E+03  0.00000000000E+00 0. -1.
         22    1    3    3    0    0  0.33538229416E+01  0.44127917291E+02 -0.66200337887E+01  0.44747581612E+02  0.00000000000E+00 0.  1.
         22    1    3    3    0    0 -0.16095918454E+02 -0.75496202439E+02 -0.79312720275E+02  0.11067638759E+03  0.00000000000E+00 0.  1.
</event>
<event>
 7    1  0.6273950E-006  0.1279595E+03  0.7818608E-02  0.1338018E+00
          2   -1    0    0  502    0  0.00000000000E+00  0.00000000000E+00  0.95164134588E+02  0.95164134588E+02  0.00000000000E+00 0. -1.
          1   -1    0    0  501    0 -0.00000000000E+00 -0.00000000000E+00 -0.49879289647E+03  0.49879289647E+03  0.00000000000E+00 0. -1.
         25    2    1    2    0    0 -0.15485207209E+03 -0.54867641476E+02 -0.16458258960E+03  0.26401005420E+03  0.12499703039E+03 0.  0.
          2    1    1    2  501    0  0.10983858011E+03  0.44278989809E+02 -0.25489574911E+03  0.28106402391E+03  0.00000000000E+00 0. -1.
          1    1    1    2  502    0  0.45013491979E+02  0.10588651667E+02  0.15849576828E+02  0.48882952958E+02  0.00000000000E+00 0. -1.
         22    1    3    3    0    0 -0.12205624919E+03 -0.94949390591E+02 -0.12395873889E+03  0.19818901000E+03  0.00000000000E+00 0.  1.
         22    1    3    3    0    0 -0.32795822903E+02  0.40081749115E+02 -0.40623850714E+02  0.65821044194E+02  0.00000000000E+00 0.  1.
</event>
<event>
 7    1  0.6273950E-006  0.6226793E+02  0.7818608E-02  0.1462293E+00
          2   -1    0    0  502    0  0.00000000000E+00  0.00000000000E+00  0.24612541901E+04  0.24612541901E+04  0.00000000000E+00 0. -1.
          1   -1    0    0  501    0 -0.00000000000E+00 -0.00000000000E+00 -0.72115022469E+03  0.72115022469E+03  0.00000000000E+00 0. -1.
         25    2    1    2    0    0 -0.28844408688E+02 -0.29164801015E+02 -0.13287555055E+02  0.13222666746E+03  0.12499898775E+03 0.  0.
          2    1    1    2  501    0  0.61226487672E+02  0.14716225816E+02 -0.64673296770E+03  0.64979133697E+03  0.00000000000E+00 0. -1.
          1    1    1    2  502    0 -0.32382078984E+02  0.14448575199E+02  0.24001244881E+04  0.24003864103E+04  0.00000000000E+00 0. -1.
         22    1    3    3    0    0 -0.99087448621E+01  0.32928204757E+02  0.36701568347E+02  0.50293687600E+02  0.00000000000E+00 0.  1.
         22    1    3    3    0    0 -0.18935663826E+02 -0.62093005772E+02 -0.49989123402E+02  0.81932979861E+02  0.00000000000E+00 0.  1.
</event>
<event>
 7    1  0.6273950E-006  0.4264260E+02  0.7818608E-02  0.1606952E+00
          2   -1    0    0  502    0  0.00000000000E+00  0.00000000000E+00  0.94974171058E+03  0.94974171058E+03  0.00000000000E+00 0. -1.
          1   -1    0    0  501    0 -0.00000000000E+00 -0.00000000000E+00 -0.18389516933E+04  0.18389516933E+04  0.00000000000E+00 0. -1.
         25    2    1    2    0    0 -0.13048908876E+02  0.37642741217E+02 -0.94015581903E+03  0.94926562807E+03  0.12500007435E+03 0.  0.
          2    1    1    2  501    0  0.19497540296E+02  0.45132519635E+01 -0.89364783365E+03  0.89387190028E+03  0.00000000000E+00 0. -1.
          1    1    1    2  502    0 -0.64486314200E+01 -0.42155993181E+02  0.94459366991E+03  0.94555587558E+03  0.00000000000E+00 0. -1.
         22    1    3    3    0    0 -0.52902380442E+02  0.63956164413E+02 -0.63328714753E+03  0.63870311103E+03  0.00000000000E+00 0.  1.
         22    1    3    3    0    0  0.39853471566E+02 -0.26313423196E+02 -0.30686867151E+03  0.31056251704E+03  0.00000000000E+00 0.  1.
</event>
<event>
 7    1  0.6273950E-006  0.3359991E+02  0.7818608E-02  0.1578858E+00
          2   -1    0    0  502    0  0.00000000000E+00  0.00000000000E+00  0.99184647030E+03  0.99184647030E+03  0.00000000000E+00 0. -1.
          1   -1    0    0  501    0 -0.00000000000E+00 -0.00000000000E+00 -0.43647286329E+02  0.43647286329E+02  0.00000000000E+00 0. -1.
         25    2    1    2    0    0 -0.33991153602E+02  0.18359484933E+02  0.32345896524E+03  0.34891561073E+03  0.12499572796E+03 0.  0.
          2    1    1    2  501    0  0.26333758311E+02  0.14627780894E+02 -0.23032958373E+02  0.37920389925E+02  0.00000000000E+00 0. -1.
          1    1    1    2  502    0  0.76573952917E+01 -0.32987265827E+02  0.64777317710E+03  0.64865775597E+03  0.00000000000E+00 0. -1.
         22    1    3    3    0    0 -0.74263050027E+02  0.27531319739E+02  0.13986773723E+03  0.16073567769E+03  0.00000000000E+00 0.  1.
         22    1    3    3    0    0  0.40271896425E+02 -0.91718348065E+01  0.18359122802E+03  0.18817993304E+03  0.00000000000E+00 0.  1.
</event>
<event>
 7    1  0.6273950E-006  0.3485048E+02  0.7818608E-02  0.1571456E+00
          2   -1    0    0  502    0  0.00000000000E+00  0.00000000000E+00  0.26226465799E+03  0.26226465799E+03  0.00000000000E+00 0. -1.
          1   -1    0    0  501    0 -0.00000000000E+00 -0.00000000000E+00 -0.14655975396E+03  0.14655975396E+03  0.00000000000E+00 0. -1.
         25    2    1    2    0    0 -0.27451798228E+02  0.44546815680E+02 -0.10743023962E+02  0.13595058228E+03  0.12501651189E+03 0.  0.
          2    1    1    2  501    0 -0.40757021263E+01 -0.30135201968E+02 -0.68458517549E+02  0.74908680208E+02  0.00000000000E+00 0. -1.
          1    1    1    2  502    0  0.31527500354E+02 -0.14411613711E+02  0.19490644554E+03  0.19796514947E+03  0.00000000000E+00 0. -1.
         22    1    3    3    0    0  0.32286801905E+02  0.27460113395E+02  0.38041612711E+02  0.56953136020E+02  0.00000000000E+00 0. -1.
         22    1    3    3    0    0 -0.59738600133E+02  0.17086702285E+02 -0.48784636673E+02  0.78997446263E+02  0.00000000000E+00 0. -1.
</event>
<event>
 7    1  0.6273950E-006  0.4382182E+02  0.7818608E-02  0.1576992E+00
          2   -1    0    0  502    0  0.00000000000E+00  0.00000000000E+00  0.28912063337E+04  0.28912063337E+04  0.00000000000E+00 0. -1.
          1   -1    0    0  501    0 -0.00000000000E+00 -0.00000000000E+00 -0.16384821973E+03  0.16384821973E+03  0.00000000000E+00 0. -1.
         25    2    1    2    0    0  0.12610270021E+02  0.29827732603E+02  0.55657301398E+03  0.57135489590E+03  0.12499673850E+03 0.  0.
          2    1    1    2  501    0 -0.18684827518E+02  0.14029147222E+02 -0.15537309252E+03  0.15712013757E+03  0.00000000000E+00 0. -1.
          1    1    1    2  502    0  0.60745574967E+01 -0.43856879825E+02  0.23261581925E+04  0.23265795200E+04  0.00000000000E+00 0. -1.
         22    1    3    3    0    0 -0.29076686397E+02 -0.30609450759E+02  0.34140642870E+03  0.34400689198E+03  0.00000000000E+00 0. -1.
         22    1    3    3    0    0  0.41686956418E+02  0.60437183363E+02  0.21516658528E+03  0.22734800392E+03  0.00000000000E+00 0. -1.
</event>
<event>
 7    1  0.6273950E-006  0.1355555E+03  0.7818608E-02  0.1383880E+00
          2   -1    0    0  502    0  0.00000000000E+00  0.00000000000E+00  0.98928698909E+02  0.98928698909E+02  0.00000000000E+00 0. -1.
          1   -1    0    0  501    0 -0.00000000000E+00 -0.00000000000E+00 -0.60887144225E+03  0.60887144225E+03  0.00000000000E+00 0. -1.
         25    2    1    2    0    0 -0.15027677782E+02  0.11399887879E+03 -0.18209209784E+03  0.24900785332E+03  0.12500321376E+03 0.  0.
          2    1    1    2  501    0  0.26851647268E+02 -0.14124780356E+03 -0.37581285664E+03  0.40237700753E+03  0.00000000000E+00 0. -1.
          1    1    1    2  502    0 -0.11823969485E+02  0.27248924771E+02  0.47962211143E+02  0.56415280317E+02  0.00000000000E+00 0. -1.
         22    1    3    3    0    0 -0.40274727772E+02  0.60853121297E+02 -0.17517260941E+03  0.18976458878E+03  0.00000000000E+00 0.  1.
         22    1    3    3    0    0  0.25247049989E+02  0.53145757488E+02 -0.69194884337E+01  0.59243264531E+02  0.00000000000E+00 0.  1.
</event>
<event>
 7    1  0.6273950E-006  0.7722228E+02  0.7818608E-02  0.1470884E+00
          2   -1    0    0  502    0  0.00000000000E+00  0.00000000000E+00  0.33481597449E+02  0.33481597449E+02  0.00000000000E+00 0. -1.
          1   -1    0    0  501    0 -0.00000000000E+00 -0.00000000000E+00 -0.76848779683E+03  0.76848779683E+03  0.00000000000E+00 0. -1.
         25    2    1    2    0    0 -0.17745112986E+02  0.63685853529E+02 -0.18639577402E+03  0.23396342940E+03  0.12499889899E+03 0.  0.
          2    1    1    2  501    0 -0.20966147852E+02  0.16818264636E+02 -0.34018001912E+03  0.34124020687E+03  0.00000000000E+00 0. -1.
          1    1    1    2  502    0  0.38711260838E+02 -0.80504118165E+02 -0.20843040624E+03  0.22676575801E+03  0.00000000000E+00 0. -1.
         22    1    3    3    0    0 -0.26313825551E+02  0.11036854840E+02 -0.17762869371E+03  0.17990603772E+03  0.00000000000E+00 0.  1.
         22    1    3    3    0    0  0.85687125649E+01  0.52648998689E+02 -0.87670803139E+01  0.54057391680E+02  0.00000000000E+00 0.  1.
</event>
<event>
 7    1  0.6273950E-006  0.1366828E+03  0.7818608E-02  0.1257808E+00
          2   -1    0    0  502    0  0.00000000000E+00  0.00000000000E+00  0.14374423575E+04  0.14374423575E+04  0.00000000000E+00 0. -1.
          1   -1    0    0  501    0 -0.00000000000E+00 -0.00000000000E+00 -0.50717939525E+03  0.50717939525E+03  0.00000000000E+00 0. -1.
         25    2    1    2    0    0 -0.13494980297E+03  0.15738168975E+03 -0.30717318802E+02  0.24402457383E+03  0.12499597341E+03 0.  0.
          2    1    1    2  501    0  0.85280499581E+02 -0.31652186520E+02 -0.36071421474E+03  0.37200721664E+03  0.00000000000E+00 0. -1.
          1    1    1    2  502    0  0.49669303389E+02 -0.12572950323E+03  0.13216944958E+04  0.13285899623E+04  0.00000000000E+00 0. -1.
         22    1    3    3    0    0 -0.48628332407E+02  0.28895009405E+02 -0.64292811461E+02  0.85634116372E+02  0.00000000000E+00 0.  1.
         22    1    3    3    0    0 -0.86321470563E+02  0.12848668035E+03  0.33575492659E+02  0.15839045746E+03  0.00000000000E+00 0.  1.
</event>
<event>
 7    1  0.6273950E-006  0.1162897E+03  0.7818608E-02  0.1377360E+00
          2   -1    0    0  502    0  0.00000000000E+00  0.00000000000E+00  0.11483719125E+04  0.11483719125E+04  0.00000000000E+00 0. -1.
          1   -1    0    0  501    0 -0.00000000000E+00 -0.00000000000E+00 -0.27359262158E+03  0.27359262158E+03  0.00000000000E+00 0. -1.
         25    2    1    2    0    0 -0.76320741933E+01  0.96953142098E+02  0.56389033625E+03  0.58570948226E+03  0.12500050386E+03 0.  0.
          2    1    1    2  501    0 -0.21885944809E+02  0.29228000473E+02 -0.25404152076E+03  0.25665222552E+03  0.00000000000E+00 0. -1.
          1    1    1    2  502    0  0.29518019003E+02 -0.12618114257E+03  0.56493047546E+03  0.57960282633E+03  0.00000000000E+00 0. -1.
         22    1    3    3    0    0 -0.44657139791E+02 -0.94768036863E+01  0.15673699098E+03  0.16324997484E+03  0.00000000000E+00 0.  1.
         22    1    3    3    0    0  0.37025065598E+02  0.10642994578E+03  0.40715334527E+03  0.42245950742E+03  0.00000000000E+00 0.  1.
</event>
<event>
 7    1  0.6273950E-006  0.5248878E+02  0.7818608E-02  0.1544369E+00
          2   -1    0    0  502    0  0.00000000000E+00  0.00000000000E+00  0.48133554991E+02  0.48133554991E+02  0.00000000000E+00 0. -1.
          1   -1    0    0  501    0 -0.00000000000E+00 -0.00000000000E+00 -0.11632333457E+04  0.11632333457E+04  0.00000000000E+00 0. -1.
         25    2    1    2    0    0  0.48273080691E+02 -0.52192110832E+02 -0.55900247934E+03  0.57720267481E+03  0.12499939657E+03 0.  0.
          2    1    1    2  501    0 -0.49535694599E+01  0.23467220126E+02 -0.57746703388E+03  0.57796489815E+03  0.00000000000E+00 0. -1.
          1    1    1    2  502    0 -0.43319511231E+02  0.28724890706E+02  0.21369722503E+02  0.56199327747E+02  0.00000000000E+00 0. -1.
         22    1    3    3    0    0 -0.19736910260E+02 -0.37959450922E+02 -0.61775888903E+02  0.75144700350E+02  0.00000000000E+00 0. -1.
         22    1    3    3    0    0  0.68009990951E+02 -0.14232659909E+02 -0.49722659044E+03  0.50205797446E+03  0.00000000000E+00 0. -1.
</event>
<event>
 7    1  0.6273950E-006  0.1730678E+03  0.7818608E-02  0.1297872E+00
          2   -1    0    0  502    0  0.00000000000E+00  0.00000000000E+00  0.27034137332E+03  0.27034137332E+03  0.00000000000E+00 0. -1.
          1   -1    0    0  501    0 -0.00000000000E+00 -0.00000000000E+00 -0.86812343000E+03  0.86812343000E+03  0.00000000000E+00 0. -1.
         25    2    1    2    0    0  0.35381435181E+02  0.21518977522E+03 -0.32899107333E+03  0.41402592436E+03  0.12499541751E+03 0.  0.
          2    1    1    2  501    0 -0.11389024695E+02 -0.47657420554E+02 -0.46371425416E+03  0.46629588152E+03  0.00000000000E+00 0. -1.
          1    1    1    2  502    0 -0.23992410486E+02 -0.16753235466E+03  0.19492327081E+03  0.25814299743E+03  0.00000000000E+00 0. -1.
         22    1    3    3    0    0  0.77676470819E+02  0.10460751432E+03 -0.20227468947E+03  0.24060635106E+03  0.00000000000E+00 0. -1.
         22    1    3    3    0    0 -0.42295035637E+02  0.11058226089E+03 -0.12671638386E+03  0.17341957330E+03  0.00000000000E+00 0. -1.
</event>
<event>
 7    1  0.6273950E-006  0.7478670E+02  0.7818608E-02  0.1442139E+00
          2   -1    0    0  502    0  0.00000000000E+00  0.00000000000E+00  0.11065165528E+03  0.11065165528E+03  0.00000000000E+00 0. -1.
          1   -1    0    0  501    0 -0.00000000000E+00 -0.00000000000E+00 -0.68403962082E+03  0.68403962082E+03  0.00000000000E+00 0. -1.
         25    2    1    2    0    0 -0.66735812699E+02  0.85773380467E+01 -0.69325453096E+02  0.15798059552E+03  0.12499844275E+03 0.  0.
          2    1    1    2  501    0  0.21163188186E+01  0.34168301174E+02 -0.54704047445E+03  0.54811060225E+03  0.00000000000E+00 0. -1.
          1    1    1    2  502    0  0.64619493880E+02 -0.42745639221E+02  0.42977962002E+02  0.88600078327E+02  0.00000000000E+00 0. -1.
         22    1    3    3    0    0 -0.71215961271E+01 -0.12901320116E+02  0.33839827966E+02  0.36909282692E+02  0.00000000000E+00 0.  1.
         22    1    3    3    0    0 -0.59614216572E+02  0.21478658163E+02 -0.10316528106E+03  0.12107131283E+03  0.00000000000E+00 0.  1.
</event>
<event>
 7    1  0.6273950E-006  0.8357687E+02  0.7818608E-02  0.1442897E+00
          2   -1    0    0  502    0  0.00000000000E+00  0.00000000000E+00  0.14453728744E+04  0.14453728744E+04  0.00000000000E+00 0. -1.
          1   -1    0    0  501    0 -0.00000000000E+00 -0.00000000000E+00 -0.64495651260E+02  0.64495651260E+02  0.00000000000E+00 0. -1.
         25    2    1    2    0    0 -0.71551927862E+02 -0.47019120973E+02  0.56990254146E+03  0.58969938620E+03  0.12500393277E+03 0.  0.
          2    1    1    2  501    0  0.81728796689E+02  0.18308625336E+02 -0.22033555543E+02  0.86604154287E+02  0.00000000000E+00 0. -1.
          1    1    1    2  502    0 -0.10176868827E+02  0.28710495637E+02  0.83300823727E+03  0.83356498522E+03  0.00000000000E+00 0. -1.
         22    1    3    3    0    0 -0.49185979704E+02 -0.44904870426E+02  0.10556423781E+03  0.12481793258E+03  0.00000000000E+00 0.  1.
         22    1    3    3    0    0 -0.22365948158E+02 -0.21142505469E+01  0.46433830365E+03  0.46488145363E+03  0.00000000000E+00 0.  1.
</event>
<event>
 7    1  0.6273950E-006  0.1299782E+03  0.7818608E-02  0.1428158E+00
          2   -1    0    0  502    0  0.00000000000E+00  0.00000000000E+00  0.11417323607E+04  0.11417323607E+04  0.00000000000E+00 0. -1.
          1   -1    0    0  501    0 -0.00000000000E+00 -0.00000000000E+00 -0.14896693093E+03  0.14896693093E+03  0.00000000000E+00 0. -1.
         25    2    1    2    0    0 -0.12701992466E+03 -0.63207453399E+02  0.77351435320E+02  0.20430073165E+03  0.12500520382E+03 0.  0.
          2    1    1    2  501    0  0.47065818562E+01  0.21370360757E+02 -0.79839953013E+02  0.82784432889E+02  0.00000000000E+00 0. -1.
          1    1    1    2  502    0  0.12231334280E+03  0.41837092641E+02  0.99525394747E+03  0.10036141271E+04  0.00000000000E+00 0. -1.
         22    1    3    3    0    0 -0.14458063757E+02 -0.20226808311E+02 -0.32726343909E+02  0.41099549483E+02  0.00000000000E+00 0.  1.
         22    1    3    3    0    0 -0.11256186090E+03 -0.42980645087E+02  0.11007777923E+03  0.16320118217E+03  0.00000000000E+00 0.  1.
</event>
<event>
 7    1  0.6273950E-006  0.7142030E+02  0.7818608E-02  0.1400880E+00
          2   -1    0    0  502    0  0.00000000000E+00  0.00000000000E+00  0.10025594714E+04  0.10025594714E+04  0.00000000000E+00 0. -1.
          1   -1    0    0  501    0 -0.00000000000E+00 -0.00000000000E+00 -0.15235797162E+04  0.15235797162E+04  0.00000000000E+00 0. -1.
         25    2    1    2    0    0 -0.69681862342E+02 -0.14148404648E+02  0.60201804684E+02  0.15590141972E+03  0.12500102435E+03 0.  0.
          2    1    1    2  501    0  0.62663589631E+02 -0.34551210839E+02 -0.14741847957E+04  0.14759205004E+04  0.00000000000E+00 0. -1.
          1    1    1    2  502    0  0.70182727109E+01  0.48699615487E+02  0.89296274626E+03  0.89431726747E+03  0.00000000000E+00 0. -1.
         22    1    3    3    0    0 -0.10492275795E+03 -0.23766014707E+01  0.33570994516E+02  0.11018822552E+03  0.00000000000E+00 0. -1.
         22    1    3    3    0    0  0.35240895609E+02 -0.11771803177E+02  0.26630810168E+02  0.45713194195E+02  0.00000000000E+00 0. -1.
</event>
<event>
 7    1  0.6273950E-006  0.1404102E+03  0.7818608E-02  0.1245931E+00
          2   -1    0    0  502    0  0.00000000000E+00  0.00000000000E+00  0.27109136405E+03  0.27109136405E+03  0.00000000000E+00 0. -1.
          1   -1    0    0  501    0 -0.00000000000E+00 -0.00000000000E+00 -0.84489357817E+03  0.84489357817E+03  0.00000000000E+00 0. -1.
         25    2    1    2    0    0  0.38911826860E+02  0.94086842610E+02  0.77670614625E+02  0.17894898928E+03  0.12499420853E+03 0.  0.
          2    1    1    2  501    0  0.52440066333E+02 -0.13394522969E+03 -0.76934320451E+03  0.78267506121E+03  0.00000000000E+00 0. -1.
          1    1    1    2  502    0 -0.91351893192E+02  0.39858387083E+02  0.11787037577E+03  0.15436089173E+03  0.00000000000E+00 0. -1.
         22    1    3    3    0    0  0.54148674961E+02  0.11966248467E+03  0.65735798338E+02  0.14687540441E+03  0.00000000000E+00 0. -1.
         22    1    3    3    0    0 -0.15236848101E+02 -0.25575642056E+02  0.11934816287E+02  0.32073584871E+02  0.00000000000E+00 0. -1.
</event>
<event>
 7    1  0.6273950E-006  0.7665514E+02  0.7818608E-02  0.1431860E+00
          2   -1    0    0  502    0  0.00000000000E+00  0.00000000000E+00  0.52273789056E+03  0.52273789056E+03  0.00000000000E+00 0. -1.
          1   -1    0    0  501    0 -0.00000000000E+00 -0.00000000000E+00 -0.10010612931E+04  0.10010612931E+04  0.00000000000E+00 0. -1.
         25    2    1    2    0    0 -0.37195558539E+01 -0.43386766207E+02  0.50183462988E+02  0.14155986774E+03  0.12499827846E+03 0.  0.
          2    1    1    2  501    0 -0.91172334140E+01 -0.34906687308E+02 -0.95134166884E+03  0.95202550997E+03  0.00000000000E+00 0. -1.
          1    1    1    2  502    0  0.12836789268E+02  0.78293453515E+02  0.42283480326E+03  0.43021380600E+03  0.00000000000E+00 0. -1.
         22    1    3    3    0    0 -0.88694503193E+00 -0.82325362266E+02  0.59258305537E+01  0.82543124556E+02  0.00000000000E+00 0.  1.
         22    1    3    3    0    0 -0.28326108220E+01  0.38938596059E+02  0.44257632434E+02  0.59016743182E+02  0.00000000000E+00 0.  1.
</event>
<event>
 7    1  0.6273950E-006  0.5991836E+02  0.7818608E-02  0.1437674E+00
          2   -1    0    0  502    0  0.00000000000E+00  0.00000000000E+00  0.16545921723E+04  0.16545921723E+04  0.00000000000E+00 0. -1.
          1   -1    0    0  501    0 -0.00000000000E+00 -0.00000000000E+00 -0.46792203877E+03  0.46792203877E+03  0.00000000000E+00 0. -1.
         25    2    1    2    0    0 -0.55903068626E+02 -0.77576102378E+02  0.41531495812E+03  0.44413414620E+03  0.12500168253E+03 0.  0.
          2    1    1    2  501    0  0.38395628052E+02  0.21852117671E+02 -0.45173793887E+03  0.45389305427E+03  0.00000000000E+00 0. -1.
          1    1    1    2  502    0  0.17507440574E+02  0.55723984707E+02  0.12230931143E+04  0.12244870107E+04  0.00000000000E+00 0. -1.
         22    1    3    3    0    0 -0.21227310532E+02  0.18614864283E+02  0.23625693499E+03  0.23793791463E+03  0.00000000000E+00 0. -1.
         22    1    3    3    0    0 -0.34675758094E+02 -0.96190966660E+02  0.17905802313E+03  0.20619623157E+03  0.00000000000E+00 0. -1.
</event>
<event>
 7    1  0.6273950E-006  0.2165548E+03  0.7818608E-02  0.1325305E+00
          2   -1    0    0  502    0  0.00000000000E+00  0.00000000000E+00  0.90415968373E+03  0.90415968373E+03  0.00000000000E+00 0. -1.
          1   -1    0    0  501    0 -0.00000000000E+00 -0.00000000000E+00 -0.85007219941E+03  0.85007219941E+03  0.00000000000E+00 0. -1.
         25    2    1    2    0    0 -0.18265550761E+03  0.92782866862E+02 -0.17375905510E+03  0.29629653238E+03  0.12501092363E+03 0.  0.
          2    1    1    2  501    0  0.35399153548E+01  0.30342407683E+02 -0.60063781990E+03  0.60141415298E+03  0.00000000000E+00 0. -1.
          1    1    1    2  502    0  0.17911559226E+03 -0.12312527454E+03  0.82848435932E+03  0.85652119779E+03  0.00000000000E+00 0. -1.
         22    1    3    3    0    0 -0.60565695075E+02  0.56279463269E+01 -0.12423503214E+03  0.13832649930E+03  0.00000000000E+00 0. -1.
         22    1    3    3    0    0 -0.12208981254E+03  0.87154920535E+02 -0.49524022963E+02  0.15797003307E+03  0.00000000000E+00 0. -1.
</event>
<event>
 7    1  0.6273950E-006  0.7888749E+02  0.7818608E-02  0.1359216E+00
          2   -1    0    0  502    0  0.00000000000E+00  0.00000000000E+00  0.13158131430E+04  0.13158131430E+04  0.00000000000E+00 0. -1.
          1   -1    0    0  501    0 -0.00000000000E+00 -0.00000000000E+00 -0.21015588740E+02  0.21015588740E+02  0.00000000000E+00 0. -1.
         25    2    1    2    0    0  0.26080204050E+02  0.67984220606E+02  0.83514850466E+03  0.84758165511E+03  0.12497842195E+03 0.  0.
          2    1    1    2  501    0 -0.58572061225E+02  0.22017731925E+02  0.10806035678E+03  0.12486996269E+03  0.00000000000E+00 0. -1.
          1    1    1    2  502    0  0.32491857174E+02 -0.90001952531E+02  0.35158869287E+03  0.36437711399E+03  0.00000000000E+00 0. -1.
         22    1    3    3    0    0  0.27011911777E+02  0.26204999427E+02  0.76502627906E+03  0.76595140383E+03  0.00000000000E+00 0. -1.
         22    1    3    3    0    0 -0.93170772649E+00  0.41779221179E+02  0.70122225594E+02  0.81630251279E+02  0.00000000000E+00 0. -1.
</event>
<event>
 7    1  0.6273950E-006  0.9087703E+02  0.7818608E-02  0.1364036E+00
          2   -1    0    0  502    0  0.00000000000E+00  0.00000000000E+00  0.20941306830E+04  0.20941306830E+04  0.00000000000E+00 0. -1.
          1   -1    0    0  501    0 -0.00000000000E+00 -0.00000000000E+00 -0.42076051067E+02  0.42076051067E+02  0.00000000000E+00 0. -1.
         25    2    1    2    0    0  0.49265781930E+02  0.10810361940E+03  0.99966211437E+03  0.10144275736E+04  0.12500179778E+03 0.  0.
          2    1    1    2  501    0 -0.47254587928E+02 -0.22100317026E+02 -0.12315622106E+02  0.53601255962E+02  0.00000000000E+00 0. -1.
          1    1    1    2  502    0 -0.20111940025E+01 -0.86003302372E+02  0.10647081397E+04  0.10681779045E+04  0.00000000000E+00 0. -1.
         22    1    3    3    0    0  0.79264386026E+02  0.29668641476E+02  0.60812482767E+03  0.61398605620E+03  0.00000000000E+00 0.  1.
         22    1    3    3    0    0 -0.29998604096E+02  0.78434977922E+02  0.39153728670E+03  0.40044151743E+03  0.00000000000E+00 0.  1.
</event>
<event>
 7    1  0.6273950E-006  0.5852146E+02  0.7818608E-02  0.1458364E+00
          2   -1    0    0  502    0  0.00000000000E+00  0.00000000000E+00  0.18042925682E+04  0.18042925682E+04  0.00000000000E+00 0. -1.
          1   -1    0    0  501    0 -0.00000000000E+00 -0.00000000000E+00 -0.17281267101E+02  0.17281267101E+02  0.00000000000E+00 0. -1.
         25    2    1    2    0    0  0.54442091034E+00  0.68823345968E+02  0.54307297746E+03  0.56150823634E+03  0.12500516502E+03 0.  0.
          2    1    1    2  501    0 -0.33169473301E+02 -0.20170805804E+02  0.43917549596E+02  0.58615923846E+02  0.00000000000E+00 0. -1.
          1    1    1    2  502    0  0.32625052391E+02 -0.48652540164E+02  0.12000207740E+04  0.12014496751E+04  0.00000000000E+00 0. -1.
         22    1    3    3    0    0 -0.25781143243E+01  0.95155043089E+01  0.45601748949E+03  0.45612404258E+03  0.00000000000E+00 0. -1.
         22    1    3    3    0    0  0.31225352347E+01  0.59307841659E+02  0.87055487971E+02  0.10538419376E+03  0.00000000000E+00 0. -1.
</event>
<event>
 7    1  0.6273950E-006  0.5510507E+02  0.7818608E-02  0.1426936E+00
          2   -1    0    0  502    0  0.00000000000E+00  0.00000000000E+00  0.86961246257E+03  0.86961246257E+03  0.00000000000E+00 0. -1.
          1   -1    0    0  501    0 -0.00000000000E+00 -0.00000000000E+00 -0.11207088546E+04  0.11207088546E+04  0.00000000000E+00 0. -1.
         25    2    1    2    0    0 -0.67908119276E+02 -0.48863884179E+02  0.13124761731E+02  0.15098686697E+03  0.12500233113E+03 0.  0.
          2    1    1    2  501    0  0.54980349135E+02 -0.16038185439E+01 -0.10501957433E+04  0.10516351602E+04  0.00000000000E+00 0. -1.
          1    1    1    2  502    0  0.12927770140E+02  0.50467702723E+02  0.78597458945E+03  0.78769929003E+03  0.00000000000E+00 0. -1.
         22    1    3    3    0    0 -0.48541267220E+02 -0.20049806056E+02 -0.54054629908E+02  0.75366785527E+02  0.00000000000E+00 0.  1.
         22    1    3    3    0    0 -0.19366852056E+02 -0.28814078123E+02  0.67179391639E+02  0.75620081444E+02  0.00000000000E+00 0.  1.
</event>
<event>
 7    1  0.6273950E-006  0.3998336E+02  0.7818608E-02  0.1558922E+00
          2   -1    0    0  502    0  0.00000000000E+00  0.00000000000E+00  0.21510991292E+03  0.21510991292E+03  0.00000000000E+00 0. -1.
          1   -1    0    0  501    0 -0.00000000000E+00 -0.00000000000E+00 -0.14825277770E+04  0.14825277770E+04  0.00000000000E+00 0. -1.
         25    2    1    2    0    0 -0.19755131665E+02  0.34211202187E+02 -0.20579864794E+03  0.24400305988E+03  0.12499495252E+03 0.  0.
          2    1    1    2  501    0  0.28250008529E+02  0.49587564016E+01 -0.12554124487E+04  0.12557400482E+04  0.00000000000E+00 0. -1.
          1    1    1    2  502    0 -0.84948768643E+01 -0.39169958589E+02  0.19379323250E+03  0.19789458192E+03  0.00000000000E+00 0. -1.
         22    1    3    3    0    0  0.27233722939E+02  0.63142154457E+02 -0.73471127627E+02  0.10063107835E+03  0.00000000000E+00 0.  1.
         22    1    3    3    0    0 -0.46988854604E+02 -0.28930952270E+02 -0.13232752031E+03  0.14337198153E+03  0.00000000000E+00 0.  1.
</event>
<event>
 7    1  0.6273950E-006  0.9287296E+02  0.7818608E-02  0.1442422E+00
          2   -1    0    0  502    0  0.00000000000E+00  0.00000000000E+00  0.13500392328E+04  0.13500392328E+04  0.00000000000E+00 0. -1.
          1   -1    0    0  501    0 -0.00000000000E+00 -0.00000000000E+00 -0.27529402914E+03  0.27529402914E+03  0.00000000000E+00 0. -1.
         25    2    1    2    0    0 -0.49734201757E+02 -0.81774652698E+02 -0.54631074370E+02  0.16664416927E+03  0.12500056086E+03 0.  0.
          2    1    1    2  501    0  0.69082189227E+02  0.62219606251E+02 -0.15137319146E+03  0.17764422693E+03  0.00000000000E+00 0. -1.
          1    1    1    2  502    0 -0.19347987471E+02  0.19555046447E+02  0.12807494695E+04  0.12810448658E+04  0.00000000000E+00 0. -1.
         22    1    3    3    0    0 -0.63255704020E+02 -0.97134668492E+02 -0.85581317381E+01  0.11623110398E+03  0.00000000000E+00 0.  1.
         22    1    3    3    0    0  0.13521502264E+02  0.15360015793E+02 -0.46072942632E+02  0.50413065285E+02  0.00000000000E+00 0.  1.
</event>
<event>
 7    1  0.6273950E-006  0.9419760E+02  0.7818608E-02  0.1459981E+00
          2   -1    0    0  502    0  0.00000000000E+00  0.00000000000E+00  0.45259227509E+02  0.45259227509E+02  0.00000000000E+00 0. -1.
          1   -1    0    0  501    0 -0.00000000000E+00 -0.00000000000E+00 -0.65538804274E+03  0.65538804274E+03  0.00000000000E+00 0. -1.
         25    2    1    2    0    0 -0.66643597936E+01  0.11187551648E+03 -0.35358890597E+03  0.39142129855E+03  0.12499989462E+03 0.  0.
          2    1    1    2  501    0 -0.76972341722E+01 -0.22559206895E+02 -0.20240112223E+03  0.20379985160E+03  0.00000000000E+00 0. -1.
          1    1    1    2  502    0  0.14361593966E+02 -0.89316309583E+02 -0.54138787027E+02  0.10542612010E+03  0.00000000000E+00 0. -1.
         22    1    3    3    0    0  0.14353163376E+02  0.71982504557E+02 -0.33449638195E+03  0.34245484929E+03  0.00000000000E+00 0.  1.
         22    1    3    3    0    0 -0.21017523170E+02  0.39893011921E+02 -0.19092524023E+02  0.48966449268E+02  0.00000000000E+00 0.  1.
</event>
<event>
 7    1  0.6273950E-006  0.8125966E+02  0.7818608E-02  0.1398486E+00
          2   -1    0    0  502    0  0.00000000000E+00  0.00000000000E+00  0.11436339585E+03  0.11436339585E+03  0.00000000000E+00 0. -1.
          1   -1    0    0  501    0 -0.00000000000E+00 -0.00000000000E+00 -0.11721437443E+04  0.11721437443E+04  0.00000000000E+00 0. -1.
         25    2    1    2    0    0  0.25720670631E+02 -0.73808593362E+02 -0.19605144050E+03  0.24529658400E+03  0.12499994179E+03 0.  0.
          2    1    1    2  501    0 -0.43560389057E+02 -0.67017238478E+01 -0.93189444193E+03  0.93293604898E+03  0.00000000000E+00 0. -1.
          1    1    1    2  502    0  0.17839718426E+02  0.80510317210E+02  0.70165534012E+02  0.10827450713E+03  0.00000000000E+00 0. -1.
         22    1    3    3    0    0  0.72352944966E+02 -0.68356058213E+02 -0.11985703334E+03  0.15579861290E+03  0.00000000000E+00 0.  1.
         22    1    3    3    0    0 -0.46632274335E+02 -0.54525351495E+01 -0.76194407159E+02  0.89497971103E+02  0.00000000000E+00 0.  1.
</event>
<event>
 7    1  0.6273950E-006  0.8882071E+02  0.7818608E-02  0.1364617E+00
          2   -1    0    0  502    0  0.00000000000E+00  0.00000000000E+00  0.60791692438E+03  0.60791692438E+03  0.00000000000E+00 0. -1.
          1   -1    0    0  501    0 -0.00000000000E+00 -0.00000000000E+00 -0.82336285668E+03  0.82336285668E+03  0.00000000000E+00 0. -1.
         25    2    1    2    0    0 -0.71108173044E+02  0.11269913187E+03 -0.27682293917E+02  0.18479353565E+03  0.12499949930E+03 0.  0.
          2    1    1    2  501    0  0.76256462005E+01 -0.52566334051E+02 -0.71251868112E+03  0.71449579488E+03  0.00000000000E+00 0. -1.
          1    1    1    2  502    0  0.63482526843E+02 -0.60132797816E+02  0.52475504273E+03  0.53199045053E+03  0.00000000000E+00 0. -1.
         22    1    3    3    0    0  0.35813861766E+02  0.27900992215E+02  0.71052206899E+00  0.45404877522E+02  0.00000000000E+00 0.  1.
         22    1    3    3    0    0 -0.10692203481E+03  0.84798139651E+02 -0.28392815986E+02  0.13938865813E+03  0.00000000000E+00 0.  1.
</event>
<event>
 7    1  0.6273950E-006  0.1480433E+03  0.7818608E-02  0.1268402E+00
          2   -1    0    0  502    0  0.00000000000E+00  0.00000000000E+00  0.64386395610E+03  0.64386395610E+03  0.00000000000E+00 0. -1.
          1   -1    0    0  501    0 -0.00000000000E+00 -0.00000000000E+00 -0.29192146406E+04  0.29192146406E+04  0.00000000000E+00 0. -1.
         25    2    1    2    0    0  0.10890612275E+03  0.15410008275E+02 -0.16292709745E+02  0.16729772018E+03  0.12500025143E+03 0.  0.
          2    1    1    2  501    0 -0.13932424739E+03  0.53931677531E+02 -0.28229133859E+04  0.28268639614E+04  0.00000000000E+00 0. -1.
          1    1    1    2  502    0  0.30418124637E+02 -0.69341685806E+02  0.56385541114E+03  0.56891691517E+03  0.00000000000E+00 0. -1.
         22    1    3    3    0    0  0.93424879129E+02  0.45589648625E+02 -0.53530368376E+02  0.11692785998E+03  0.00000000000E+00 0. -1.
         22    1    3    3    0    0  0.15481243625E+02 -0.30179640350E+02  0.37237658630E+02  0.50369860196E+02  0.00000000000E+00 0. -1.
</event>
<event>
 7    1  0.6273950E-006  0.1270464E+03  0.7818608E-02  0.1339248E+00
          2   -1    0    0  502    0  0.00000000000E+00  0.00000000000E+00  0.32469281900E+03  0.32469281900E+03  0.00000000000E+00 0. -1.
          1   -1    0    0  501    0 -0.00000000000E+00 -0.00000000000E+00 -0.13013447344E+04  0.13013447344E+04  0.00000000000E+00 0. -1.
         25    2    1    2    0    0 -0.19801127392E+02 -0.85382522217E+02 -0.41047596326E+03  0.43794635165E+03  0.12499692300E+03 0.  0.
          2    1    1    2  501    0 -0.33955504444E+02 -0.31150549677E+02 -0.86325173495E+03  0.86448070593E+03  0.00000000000E+00 0. -1.
          1    1    1    2  502    0  0.53756631837E+02  0.11653307189E+03  0.29707578278E+03  0.32361049585E+03  0.00000000000E+00 0. -1.
         22    1    3    3    0    0 -0.21034813707E+02 -0.11807259926E+03 -0.31959472315E+03  0.34135668904E+03  0.00000000000E+00 0. -1.
         22    1    3    3    0    0  0.12336863142E+01  0.32690077047E+02 -0.90881240116E+02  0.96589662616E+02  0.00000000000E+00 0. -1.
</event>
<event>
 7    1  0.6273950E-006  0.1505609E+03  0.7818608E-02  0.1323945E+00
          2   -1    0    0  502    0  0.00000000000E+00  0.00000000000E+00  0.30974032805E+03  0.30974032805E+03  0.00000000000E+00 0. -1.
          1   -1    0    0  501    0 -0.00000000000E+00 -0.00000000000E+00 -0.61349587551E+03  0.61349587551E+03  0.00000000000E+00 0. -1.
         25    2    1    2    0    0  0.11996160166E+03 -0.28162421766E+01 -0.13598685063E+03  0.22025676594E+03  0.12498760860E+03 0.  0.
          2    1    1    2  501    0  0.30740303552E+02 -0.32136301713E+02 -0.41171792591E+03  0.41411273666E+03  0.00000000000E+00 0. -1.
          1    1    1    2  502    0 -0.15070190522E+03  0.34952543889E+02  0.24394922908E+03  0.28886670097E+03  0.00000000000E+00 0. -1.
         22    1    3    3    0    0 -0.12301502711E+02 -0.27438035213E+02 -0.16183403440E+01  0.30112983425E+02  0.00000000000E+00 0.  1.
         22    1    3    3    0    0  0.13226310437E+03  0.24621793036E+02 -0.13436851029E+03  0.19014378251E+03  0.00000000000E+00 0.  1.
</event>
<event>
 7    1  0.6273950E-006  0.1573108E+03  0.7818608E-02  0.1295899E+00
          2   -1    0    0  502    0  0.00000000000E+00  0.00000000000E+00  0.76389060891E+02  0.76389060891E+02  0.00000000000E+00 0. -1.
          1   -1    0    0  501    0 -0.00000000000E+00 -0.00000000000E+00 -0.24065025905E+04  0.24065025905E+04  0.00000000000E+00 0. -1.
         25    2    1    2    0    0  0.11673328937E+03  0.27818836537E+00 -0.10476116270E+04  0.10614808379E+04  0.12499884033E+03 0.  0.
          2    1    1    2  501    0  0.39951649066E+02  0.37657604755E+02 -0.12569950874E+04  0.12581934984E+04  0.00000000000E+00 0. -1.
          1    1    1    2  502    0 -0.15668493844E+03 -0.37935793120E+02 -0.25506815215E+02  0.16321731512E+03  0.00000000000E+00 0. -1.
         22    1    3    3    0    0  0.64846504461E+02 -0.30371717541E+02 -0.21336203066E+03  0.22505747376E+03  0.00000000000E+00 0. -1.
         22    1    3    3    0    0  0.51886784914E+02  0.30649905907E+02 -0.83424959630E+03  0.83642336415E+03  0.00000000000E+00 0. -1.
</event>
<event>
 7    1  0.6273950E-006  0.7967266E+02  0.7818608E-02  0.1427469E+00
          2   -1    0    0  502    0  0.00000000000E+00  0.00000000000E+00  0.99600395702E+03  0.99600395702E+03  0.00000000000E+00 0. -1.
          1   -1    0    0  501    0 -0.00000000000E+00 -0.00000000000E+00 -0.61515083087E+03  0.61515083087E+03  0.00000000000E+00 0. -1.
         25    2    1    2    0    0  0.11114295069E+03 -0.25794239635E+02  0.12373383586E+02  0.16969334069E+03  0.12499852386E+03 0.  0.
          2    1    1    2  501    0 -0.33137450072E+02  0.13775984873E+02 -0.53416678285E+03  0.53537091839E+03  0.00000000000E+00 0. -1.
          1    1    1    2  502    0 -0.78005500620E+02  0.12018254762E+02  0.90264652541E+03  0.90609052881E+03  0.00000000000E+00 0. -1.
         22    1    3    3    0    0  0.22885483666E+02 -0.29000790665E+02  0.59162072815E+02  0.69749136780E+02  0.00000000000E+00 0.  1.
         22    1    3    3    0    0  0.88257467026E+02  0.32065510301E+01 -0.46788689229E+02  0.99944203909E+02  0.00000000000E+00 0.  1.
</event>
<event>
 7    1  0.6273950E-006  0.2305407E+03  0.7818608E-02  0.1350671E+00
          2   -1    0    0  502    0  0.00000000000E+00  0.00000000000E+00  0.81882662968E+03  0.81882662968E+03  0.00000000000E+00 0. -1.
          1   -1    0    0  501    0 -0.00000000000E+00 -0.00000000000E+00 -0.75801683134E+03  0.75801683134E+03  0.00000000000E+00 0. -1.
         25    2    1    2    0    0  0.12909767332E+03 -0.20511461933E+03 -0.54262233597E+03  0.60729041328E+03  0.12499772097E+03 0.  0.
          2    1    1    2  501    0 -0.23004463941E+02  0.80015992995E+00 -0.16539934801E+03  0.16699338292E+03  0.00000000000E+00 0. -1.
          1    1    1    2  502    0 -0.10609320937E+03  0.20431445940E+03  0.76883148231E+03  0.80255966482E+03  0.00000000000E+00 0. -1.
         22    1    3    3    0    0 -0.14945889578E+02  0.55908723155E+01 -0.19293315913E+02  0.25037362230E+02  0.00000000000E+00 0. -1.
         22    1    3    3    0    0  0.14404356289E+03 -0.21070549165E+03 -0.52332902006E+03  0.58225305105E+03  0.00000000000E+00 0. -1.
</event>
<event>
 7    1  0.6273950E-006  0.1067001E+03  0.7818608E-02  0.1312273E+00
          2   -1    0    0  502    0  0.00000000000E+00  0.00000000000E+00  0.19435432891E+04  0.19435432891E+04  0.00000000000E+00 0. -1.
          1   -1    0    0  501    0 -0.00000000000E+00 -0.00000000000E+00 -0.10890031498E+04  0.10890031498E+04  0.00000000000E+00 0. -1.
         25    2    1    2    0    0  0.27708430641E+02 -0.84545266105E+02  0.20596616579E+03  0.25682933539E+03  0.12499434755E+03 0.  0.
          2    1    1    2  501    0  0.64592918321E+02  0.26109851232E+02 -0.10606849826E+04  0.10629706495E+04  0.00000000000E+00 0. -1.
          1    1    1    2  502    0 -0.92301348963E+02  0.58435414873E+02  0.17092589561E+04  0.17127464540E+04  0.00000000000E+00 0. -1.
         22    1    3    3    0    0 -0.91020407884E+01 -0.10711195680E+03  0.12340893972E+03  0.16366302221E+03  0.00000000000E+00 0.  1.
         22    1    3    3    0    0  0.36810471430E+02  0.22566690695E+02  0.82557226064E+02  0.93166313178E+02  0.00000000000E+00 0.  1.
</event>
<event>
 7    1  0.6273950E-006  0.1507687E+03  0.7818608E-02  0.1311372E+00
          2   -1    0    0  502    0  0.00000000000E+00  0.00000000000E+00  0.26078646565E+04  0.26078646565E+04  0.00000000000E+00 0. -1.
          1   -1    0    0  501    0 -0.00000000000E+00 -0.00000000000E+00 -0.23657011735E+03  0.23657011735E+03  0.00000000000E+00 0. -1.
         25    2    1    2    0    0  0.68037732517E+02 -0.14396011972E+03  0.25644218453E+03  0.32671357508E+03  0.12500206806E+03 0.  0.
          2    1    1    2  501    0 -0.49396004992E+02 -0.55786485293E+01 -0.19587538939E+03  0.20208477132E+03  0.00000000000E+00 0. -1.
          1    1    1    2  502    0 -0.18641727524E+02  0.14953876825E+03  0.23107277440E+04  0.23156364274E+04  0.00000000000E+00 0. -1.
         22    1    3    3    0    0 -0.15134702606E+02 -0.30623488286E+02 -0.12171675037E+00  0.34159509257E+02  0.00000000000E+00 0.  1.
         22    1    3    3    0    0  0.83172435122E+02 -0.11333663144E+03  0.25656390128E+03  0.29255406583E+03  0.00000000000E+00 0.  1.
</event>
<event>
 7    1  0.6273950E-006  0.8576974E+02  0.7818608E-02  0.1328987E+00
          2   -1    0    0  502    0  0.00000000000E+00  0.00000000000E+00  0.13930236073E+04  0.13930236073E+04  0.00000000000E+00 0. -1.
          1   -1    0    0  501    0 -0.00000000000E+00 -0.00000000000E+00 -0.10935582463E+03  0.10935582463E+03  0.00000000000E+00 0. -1.
         25    2    1    2    0    0 -0.10248723744E+03  0.10317439500E+03  0.14983006479E+03  0.24337382014E+03  0.12503270929E+03 0.  0.
          2    1    1    2  501    0  0.24969958574E+02 -0.70361353839E+02 -0.38257309860E+02  0.83891839311E+02  0.00000000000E+00 0. -1.
          1    1    1    2  502    0  0.77517278871E+02 -0.32813041158E+02  0.11720950278E+04  0.11751137725E+04  0.00000000000E+00 0. -1.
         22    1    3    3    0    0 -0.35218076064E+02  0.10409920853E+03  0.44867091386E+02  0.11870136473E+03  0.00000000000E+00 0.  1.
         22    1    3    3    0    0 -0.67269161381E+02 -0.92481353580E+00  0.10496297340E+03  0.12467245541E+03  0.00000000000E+00 0.  1.
</event>
<event>
 7    1  0.6273950E-006  0.7471567E+02  0.7818608E-02  0.1411562E+00
          2   -1    0    0  502    0  0.00000000000E+00  0.00000000000E+00  0.56621378250E+03  0.56621378250E+03  0.00000000000E+00 0. -1.
          1   -1    0    0  501    0 -0.00000000000E+00 -0.00000000000E+00 -0.14533443826E+04  0.14533443826E+04  0.00000000000E+00 0. -1.
         25    2    1    2    0    0  0.13563375386E+02  0.87717995459E+02 -0.33418437056E+02  0.15690538737E+03  0.12499638704E+03 0.  0.
          2    1    1    2  501    0  0.25904334939E+02 -0.70027238613E+02 -0.13562266742E+04  0.13582803984E+04  0.00000000000E+00 0. -1.
          1    1    1    2  502    0 -0.39467710325E+02 -0.17690756846E+02  0.50251451122E+03  0.50437237932E+03  0.00000000000E+00 0. -1.
         22    1    3    3    0    0  0.61806403658E+02  0.11283286738E+02 -0.11045070936E+02  0.63791360580E+02  0.00000000000E+00 0.  1.
         22    1    3    3    0    0 -0.48243028272E+02  0.76434708720E+02 -0.22373366120E+02  0.93114026793E+02  0.00000000000E+00 0.  1.
</event>
<event>
 7    1  0.6273950E-006  0.1023638E+03  0.7818608E-02  0.1276087E+00
          2   -1    0    0  502    0  0.00000000000E+00  0.00000000000E+00  0.16186833000E+03  0.16186833000E+03  0.00000000000E+00 0. -1.
          1   -1    0    0  501    0 -0.00000000000E+00 -0.00000000000E+00 -0.13685575619E+04  0.13685575619E+04  0.00000000000E+00 0. -1.
         25    2    1    2    0    0  0.12062676551E+03 -0.27074893563E+02 -0.20381286896E+03  0.26916160207E+03  0.12499766420E+03 0.  0.
          2    1    1    2  501    0 -0.44257955587E+02  0.94228428034E+02 -0.11092361288E+04  0.11141106555E+04  0.00000000000E+00 0. -1.
          1    1    1    2  502    0 -0.76368809926E+02 -0.67153534471E+02  0.10635976582E+03  0.14715363436E+03  0.00000000000E+00 0. -1.
         22    1    3    3    0    0  0.40855617931E+02 -0.29502854431E+02 -0.12272855366E+00  0.50394592948E+02  0.00000000000E+00 0.  1.
         22    1    3    3    0    0  0.79771147583E+02  0.24279608684E+01 -0.20369014041E+03  0.21876700912E+03  0.00000000000E+00 0.  1.
</event>
<event>
 7    1  0.6273950E-006  0.2330344E+02  0.7818608E-02  0.1693882E+00
          2   -1    0    0  502    0  0.00000000000E+00  0.00000000000E+00  0.11691822039E+04  0.11691822039E+04  0.00000000000E+00 0. -1.
          1   -1    0    0  501    0 -0.00000000000E+00 -0.00000000000E+00 -0.10391186683E+03  0.10391186683E+03  0.00000000000E+00 0. -1.
         25    2    1    2    0    0  0.22955284466E+01 -0.22024288863E+02  0.40179784043E+02  0.13315317510E+03  0.12500005697E+03 0.  0.
          2    1    1    2  501    0 -0.20940706033E+02  0.79918760119E+01 -0.55107224243E+02  0.59491086854E+02  0.00000000000E+00 0. -1.
          1    1    1    2  502    0  0.18645177587E+02  0.14032412852E+02  0.10801977773E+04  0.10804498088E+04  0.00000000000E+00 0. -1.
         22    1    3    3    0    0  0.22746248228E+02 -0.34304606516E+02 -0.35156075868E+02  0.54130836934E+02  0.00000000000E+00 0.  1.
         22    1    3    3    0    0 -0.20450719782E+02  0.12280317653E+02  0.75335859911E+02  0.79022338170E+02  0.00000000000E+00 0.  1.
</event>
<event>
 7    1  0.6273950E-006  0.1944952E+03  0.7818608E-02  0.1318711E+00
          2   -1    0    0  502    0  0.00000000000E+00  0.00000000000E+00  0.16495892032E+03  0.16495892032E+03  0.00000000000E+00 0. -1.
          1   -1    0    0  501    0 -0.00000000000E+00 -0.00000000000E+00 -0.16013414811E+04  0.16013414811E+04  0.00000000000E+00 0. -1.
         25    2    1    2    0    0 -0.11574823378E+03  0.13803607323E+03 -0.45558488530E+03  0.50560288008E+03  0.12500029399E+03 0.  0.
          2    1    1    2  501    0 -0.34443233924E+02 -0.10711139307E+02 -0.10510294397E+04  0.10516482054E+04  0.00000000000E+00 0. -1.
          1    1    1    2  502    0  0.15019146771E+03 -0.12732493392E+03  0.70231764233E+02  0.20904931590E+03  0.00000000000E+00 0. -1.
         22    1    3    3    0    0 -0.65747602492E+02  0.14725454303E+03 -0.39410409152E+03  0.42582236041E+03  0.00000000000E+00 0.  1.
         22    1    3    3    0    0 -0.50000631291E+02 -0.92184697979E+01 -0.61480793781E+02  0.79780519670E+02  0.00000000000E+00 0.  1.
</event>
<event>
 7    1  0.6273950E-006  0.3208236E+02  0.7818608E-02  0.1625993E+00
          2   -1    0    0  502    0  0.00000000000E+00  0.00000000000E+00  0.45705448278E+03  0.45705448278E+03  0.00000000000E+00 0. -1.
          1   -1    0    0  501    0 -0.00000000000E+00 -0.00000000000E+00 -0.32687634362E+03  0.32687634362E+03  0.00000000000E+00 0. -1.
         25    2    1    2    0    0  0.37244209048E+00 -0.84989808859E+01 -0.26094481012E+02  0.12798803245E+03  0.12501057204E+03 0.  0.
          2    1    1    2  501    0  0.21049988669E+01 -0.23684752821E+02 -0.24862554707E+03  0.24976000719E+03  0.00000000000E+00 0. -1.
          1    1    1    2  502    0 -0.24774409573E+01  0.32183733707E+02  0.40489816724E+03  0.40618278676E+03  0.00000000000E+00 0. -1.
         22    1    3    3    0    0 -0.33111370341E+02  0.38017285889E+02  0.20201043134E+02  0.54311683973E+02  0.00000000000E+00 0.  1.
         22    1    3    3    0    0  0.33483812431E+02 -0.46516266775E+02 -0.46295524145E+02  0.73676348481E+02  0.00000000000E+00 0.  1.
</event>
<event>
 7    1  0.6273950E-006  0.1120069E+03  0.7818608E-02  0.1391482E+00
          2   -1    0    0  502    0  0.00000000000E+00  0.00000000000E+00  0.95771022952E+03  0.95771022952E+03  0.00000000000E+00 0. -1.
          1   -1    0    0  501    0 -0.00000000000E+00 -0.00000000000E+00 -0.12926882812E+03  0.12926882812E+03  0.00000000000E+00 0. -1.
         25    2    1    2    0    0 -0.11268348308E+03 -0.23302034048E+02  0.19539378169E+03  0.25892824133E+03  0.12499820832E+03 0.  0.
          2    1    1    2  501    0  0.11170933130E+03 -0.10495319445E+02 -0.64676832662E+02  0.12950760253E+03  0.00000000000E+00 0. -1.
          1    1    1    2  502    0  0.97415178253E+00  0.33797353494E+02  0.69772445237E+03  0.69854321378E+03  0.00000000000E+00 0. -1.
         22    1    3    3    0    0 -0.58781416483E+02 -0.31560437822E+02  0.19315302459E+03  0.20435118563E+03  0.00000000000E+00 0.  1.
         22    1    3    3    0    0 -0.53902066601E+02  0.82584037740E+01  0.22407571031E+01  0.54577055703E+02  0.00000000000E+00 0.  1.
</event>
<event>
 7    1  0.6273950E-006  0.8478987E+02  0.7818608E-02  0.1419013E+00
          2   -1    0    0  502    0  0.00000000000E+00  0.00000000000E+00  0.53223111639E+03  0.53223111639E+03  0.00000000000E+00 0. -1.
          1   -1    0    0  501    0 -0.00000000000E+00 -0.00000000000E+00 -0.15633537089E+03  0.15633537089E+03  0.00000000000E+00 0. -1.
         25    2    1    2    0    0 -0.59440756045E+02  0.82226564337E+02  0.10902696114E+03  0.19444217092E+03  0.12500587271E+03 0.  0.
          2    1    1    2  501    0  0.68820364374E+02 -0.47495083334E+02 -0.97236689271E+02  0.12824585465E+03  0.00000000000E+00 0. -1.
          1    1    1    2  502    0 -0.93796083287E+01 -0.34731481003E+02  0.36410547363E+03  0.36587846172E+03  0.00000000000E+00 0. -1.
         22    1    3    3    0    0 -0.62852288588E+02 -0.94235606615E+01  0.20005669408E+02  0.66629126399E+02  0.00000000000E+00 0.  1.
         22    1    3    3    0    0  0.34115325424E+01  0.91650124998E+02  0.89021291734E+02  0.12781304452E+03  0.00000000000E+00 0.  1.
</event>
<event>
 7    1  0.6273950E-006  0.1262606E+03  0.7818608E-02  0.1235159E+00
          2   -1    0    0  502    0  0.00000000000E+00  0.00000000000E+00  0.79560806683E+02  0.79560806683E+02  0.00000000000E+00 0. -1.
          1   -1    0    0  501    0 -0.00000000000E+00 -0.00000000000E+00 -0.44987956700E+04  0.44987956700E+04  0.00000000000E+00 0. -1.
         25    2    1    2    0    0 -0.52647918788E+02 -0.14525471354E+03 -0.21740391034E+04  0.21831031166E+04  0.12498983652E+03 0.  0.
          2    1    1    2  501    0  0.12334378376E+03  0.43821518552E+02 -0.22660847885E+04  0.22698621727E+04  0.00000000000E+00 0. -1.
          1    1    1    2  502    0 -0.70695864971E+02  0.10143319499E+03  0.20889028566E+02  0.12539118743E+03  0.00000000000E+00 0. -1.
         22    1    3    3    0    0 -0.30130368848E+00 -0.10213541755E+03 -0.18047809336E+04  0.18076686512E+04  0.00000000000E+00 0. -1.
         22    1    3    3    0    0 -0.52346615099E+02 -0.43119295988E+02 -0.36925816979E+03  0.37543446532E+03  0.00000000000E+00 0. -1.
</event>
<event>
 7    1  0.6273950E-006  0.7429325E+02  0.7818608E-02  0.1389796E+00
          2   -1    0    0  502    0  0.00000000000E+00  0.00000000000E+00  0.22953269727E+03  0.22953269727E+03  0.00000000000E+00 0. -1.
          1   -1    0    0  501    0 -0.00000000000E+00 -0.00000000000E+00 -0.22090060548E+03  0.22090060548E+03  0.00000000000E+00 0. -1.
         25    2    1    2    0    0 -0.11366153258E+03 -0.45032902195E+02 -0.52278230681E+02  0.18249551050E+03  0.12499876672E+03 0.  0.
          2    1    1    2  501    0  0.49705667861E+02  0.14111005264E+02 -0.88511160499E+02  0.10248902097E+03  0.00000000000E+00 0. -1.
          1    1    1    2  502    0  0.63955864723E+02  0.30921896931E+02  0.14942148297E+03  0.16544877127E+03  0.00000000000E+00 0. -1.
         22    1    3    3    0    0 -0.74365719855E+02  0.37603180411E+02 -0.23864387316E+02  0.86681996104E+02  0.00000000000E+00 0.  1.
         22    1    3    3    0    0 -0.39295812729E+02 -0.82636082606E+02 -0.28413843366E+02  0.95813514398E+02  0.00000000000E+00 0.  1.
</event>
<event>
 7    1  0.6273950E-006  0.2027398E+03  0.7818608E-02  0.1310269E+00
          2   -1    0    0  502    0  0.00000000000E+00  0.00000000000E+00  0.21272157550E+04  0.21272157550E+04  0.00000000000E+00 0. -1.
          1   -1    0    0  501    0 -0.00000000000E+00 -0.00000000000E+00 -0.17821458318E+03  0.17821458318E+03  0.00000000000E+00 0. -1.
         25    2    1    2    0    0  0.17456849605E+03 -0.51707327532E+00  0.48859070424E+03  0.53368317058E+03  0.12498969204E+03 0.  0.
          2    1    1    2  501    0 -0.20564320110E+03 -0.20184078022E+02 -0.86774054570E+02  0.22411215877E+03  0.00000000000E+00 0. -1.
          1    1    1    2  502    0  0.31074705051E+02  0.20701151298E+02  0.15471845222E+04  0.15476350088E+04  0.00000000000E+00 0. -1.
         22    1    3    3    0    0  0.12978187686E+00 -0.26529768024E+02  0.20682095701E+02  0.33639181282E+02  0.00000000000E+00 0.  1.
         22    1    3    3    0    0  0.17443871417E+03  0.26012694749E+02  0.46790860854E+03  0.50004398930E+03  0.00000000000E+00 0.  1.
</event>
<event>
 7    1  0.6273950E-006  0.3428434E+02  0.7818608E-02  0.1560637E+00
          2   -1    0    0  502    0  0.00000000000E+00  0.00000000000E+00  0.15766550295E+03  0.15766550295E+03  0.00000000000E+00 0. -1.
          1   -1    0    0  501    0 -0.00000000000E+00 -0.00000000000E+00 -0.98463919543E+03  0.98463919543E+03  0.00000000000E+00 0. -1.
         25    2    1    2    0    0  0.63654440423E+02 -0.37888272863E+01 -0.24380301379E+03  0.28130506576E+03  0.12500554983E+03 0.  0.
          2    1    1    2  501    0 -0.31566378958E+02  0.11861346722E+02 -0.71971447057E+03  0.72050402287E+03  0.00000000000E+00 0. -1.
          1    1    1    2  502    0 -0.32088061466E+02 -0.80725194356E+01  0.13654379189E+03  0.14049560976E+03  0.00000000000E+00 0. -1.
         22    1    3    3    0    0  0.89155626900E+01 -0.43144752218E+02 -0.21536061590E+02  0.49038340621E+02  0.00000000000E+00 0.  1.
         22    1    3    3    0    0  0.54738877733E+02  0.39355924932E+02 -0.22226695220E+03  0.23226672514E+03  0.00000000000E+00 0.  1.
</event>
<event>
 7    1  0.6273950E-006  0.9304274E+02  0.7818608E-02  0.1313372E+00
          2   -1    0    0  502    0  0.00000000000E+00  0.00000000000E+00  0.95366220600E+03  0.95366220600E+03  0.00000000000E+00 0. -1.
          1   -1    0    0  501    0 -0.00000000000E+00 -0.00000000000E+00 -0.94018103827E+03  0.94018103827E+03  0.00000000000E+00 0. -1.
         25    2    1    2    0    0  0.58810877399E+02  0.82449398573E+02  0.27002349668E+03  0.31431533246E+03  0.12499926733E+03 0.  0.
          2    1    1    2  501    0 -0.78223133310E+02  0.11797801934E+02 -0.91281589064E+03  0.91623735839E+03  0.00000000000E+00 0. -1.
          1    1    1    2  502    0  0.19412255911E+02 -0.94247200508E+02  0.65627356169E+03  0.66329055342E+03  0.00000000000E+00 0. -1.
         22    1    3    3    0    0 -0.10611565728E+02 -0.27233119740E+02  0.70083811101E+02  0.75934107728E+02  0.00000000000E+00 0. -1.
         22    1    3    3    0    0  0.69422443127E+02  0.10968251831E+03  0.19993968558E+03  0.23838122473E+03  0.00000000000E+00 0. -1.
</event>
<event>
 7    1  0.6273950E-006  0.6130332E+02  0.7818608E-02  0.1424288E+00
          2   -1    0    0  502    0  0.00000000000E+00  0.00000000000E+00  0.31796832304E+03  0.31796832304E+03  0.00000000000E+00 0. -1.
          1   -1    0    0  501    0 -0.00000000000E+00 -0.00000000000E+00 -0.20071797739E+04  0.20071797739E+04  0.00000000000E+00 0. -1.
         25    2    1    2    0    0 -0.54731281426E+01  0.20939962661E+02 -0.41513626515E+03  0.43408730355E+03  0.12500092517E+03 0.  0.
          2    1    1    2  501    0 -0.20891787459E+02 -0.60793578713E+02 -0.15800600429E+04  0.15813671507E+04  0.00000000000E+00 0. -1.
          1    1    1    2  502    0  0.26364915602E+02  0.39853616051E+02  0.30598485722E+03  0.30969364271E+03  0.00000000000E+00 0. -1.
         22    1    3    3    0    0  0.47602231663E+02 -0.20631507510E+02 -0.11040270756E+03  0.12198520156E+03  0.00000000000E+00 0. -1.
         22    1    3    3    0    0 -0.53075359806E+02  0.41571470171E+02 -0.30473355759E+03  0.31210210200E+03  0.00000000000E+00 0. -1.
</event>
<event>
 7    1  0.6273950E-006  0.3942874E+02  0.7818608E-02  0.1543453E+00
          2   -1    0    0  502    0  0.00000000000E+00  0.00000000000E+00  0.19842905318E+04  0.19842905318E+04  0.00000000000E+00 0. -1.
          1   -1    0    0  501    0 -0.00000000000E+00 -0.00000000000E+00 -0.32223100010E+03  0.32223100010E+03  0.00000000000E+00 0. -1.
         25    2    1    2    0    0  0.52023600812E+02  0.16799405907E+01  0.17132402313E+02  0.13648337300E+03  0.12499965862E+03 0.  0.
          2    1    1    2  501    0 -0.20210286251E+02 -0.24963113328E+02 -0.26136866923E+03  0.26333475645E+03  0.00000000000E+00 0. -1.
          1    1    1    2  502    0 -0.31813314561E+02  0.23283172737E+02  0.19062957986E+04  0.19067034024E+04  0.00000000000E+00 0. -1.
         22    1    3    3    0    0 -0.14919470459E+02  0.10287644256E+02 -0.42637114556E+02  0.46328714215E+02  0.00000000000E+00 0. -1.
         22    1    3    3    0    0  0.66943071271E+02 -0.86077036648E+01  0.59769516869E+02  0.90154658783E+02  0.00000000000E+00 0. -1.
</event>
<event>
 7    1  0.6273950E-006  0.4656593E+02  0.7818608E-02  0.1539836E+00
          2   -1    0    0  502    0  0.00000000000E+00  0.00000000000E+00  0.64410255487E+03  0.64410255487E+03  0.00000000000E+00 0. -1.
          1   -1    0    0  501    0 -0.00000000000E+00 -0.00000000000E+00 -0.24071727168E+03  0.24071727168E+03  0.00000000000E+00 0. -1.
         25    2    1    2    0    0 -0.18867614020E+02 -0.22466314432E+02  0.38158971658E+02  0.13394703222E+03  0.12499991272E+03 0.  0.
          2    1    1    2  501    0  0.13649483057E+02 -0.24266849894E+02 -0.19082059401E+03  0.19284109388E+03  0.00000000000E+00 0. -1.
          1    1    1    2  502    0  0.52181309634E+01  0.46733164325E+02  0.55604690554E+03  0.55803170044E+03  0.00000000000E+00 0. -1.
         22    1    3    3    0    0 -0.65238012777E+02  0.17063510131E+02  0.18573342989E+02  0.69943768549E+02  0.00000000000E+00 0. -1.
         22    1    3    3    0    0  0.46370398757E+02 -0.39529824562E+02  0.19585628669E+02  0.64003263676E+02  0.00000000000E+00 0. -1.
</event>
<event>
 7    1  0.6273950E-006  0.1169947E+03  0.7818608E-02  0.1293791E+00
          2   -1    0    0  502    0  0.00000000000E+00  0.00000000000E+00  0.25926675805E+04  0.25926675805E+04  0.00000000000E+00 0. -1.
          1   -1    0    0  501    0 -0.00000000000E+00 -0.00000000000E+00 -0.18090147005E+03  0.18090147005E+03  0.00000000000E+00 0. -1.
         25    2    1    2    0    0 -0.50556551291E+02  0.71968803472E+02  0.76690054370E+03  0.78198296907E+03  0.12500178573E+03 0.  0.
          2    1    1    2  501    0  0.11400997138E+03 -0.31460040352E+02 -0.15230825191E+03  0.19283622926E+03  0.00000000000E+00 0. -1.
          1    1    1    2  502    0 -0.63453420092E+02 -0.40508763120E+02  0.17971738186E+04  0.17987498522E+04  0.00000000000E+00 0. -1.
         22    1    3    3    0    0 -0.48647099735E+02 -0.21144201036E+02  0.17704519695E+03  0.18482050566E+03  0.00000000000E+00 0. -1.
         22    1    3    3    0    0 -0.19094515569E+01  0.93113004507E+02  0.58985534675E+03  0.59716246341E+03  0.00000000000E+00 0. -1.
</event>
<event>
 7    1  0.6273950E-006  0.5245413E+02  0.7818608E-02  0.1471892E+00
          2   -1    0    0  502    0  0.00000000000E+00  0.00000000000E+00  0.29252182601E+04  0.29252182601E+04  0.00000000000E+00 0. -1.
          1   -1    0    0  501    0 -0.00000000000E+00 -0.00000000000E+00 -0.90799216061E+01  0.90799216061E+01  0.00000000000E+00 0. -1.
         25    2    1    2    0    0 -0.41359922456E+02  0.30596781694E+02  0.11270853921E+04  0.11351622074E+04  0.12499979893E+03 0.  0.
          2    1    1    2  501    0 -0.12154255315E+02 -0.37358180376E+02  0.78966182963E+02  0.88198739305E+02  0.00000000000E+00 0. -1.
          1    1    1    2  502    0  0.53514177771E+02  0.67613986819E+01  0.17100867634E+04  0.17109372350E+04  0.00000000000E+00 0. -1.
         22    1    3    3    0    0 -0.64331114172E+02 -0.24340155558E+02  0.77800803514E+03  0.78104253287E+03  0.00000000000E+00 0.  1.
         22    1    3    3    0    0  0.22971191716E+02  0.54936937252E+02  0.34907735694E+03  0.35411967448E+03  0.00000000000E+00 0.  1.
</event>
<event>
 7    1  0.6273950E-006  0.1636896E+03  0.7818608E-02  0.1200437E+00
          2   -1    0    0  502    0  0.00000000000E+00  0.00000000000E+00  0.36096974091E+03  0.36096974091E+03  0.00000000000E+00 0. -1.
          1   -1    0    0  501    0 -0.00000000000E+00 -0.00000000000E+00 -0.81521194256E+03  0.81521194256E+03  0.00000000000E+00 0. -1.
         25    2    1    2    0    0 -0.32321879291E+02  0.94261912986E+02  0.96295073243E+02  0.18662531030E+03  0.12500501267E+03 0.  0.
          2    1    1    2  501    0 -0.97191219694E+02 -0.14046956407E+03 -0.73775131310E+03  0.75726800513E+03  0.00000000000E+00 0. -1.
          1    1    1    2  502    0  0.12951309898E+03  0.46207651081E+02  0.18721403821E+03  0.23228836805E+03  0.00000000000E+00 0. -1.
         22    1    3    3    0    0  0.44127351296E+02  0.62694240991E+02  0.53599462757E+02  0.93545140941E+02  0.00000000000E+00 0. -1.
         22    1    3    3    0    0 -0.76449230587E+02  0.31567671995E+02  0.42695610486E+02  0.93080169356E+02  0.00000000000E+00 0. -1.
</event>
<event>
 7    1  0.6273950E-006  0.6948329E+02  0.7818608E-02  0.1433606E+00
          2   -1    0    0  502    0  0.00000000000E+00  0.00000000000E+00  0.15466258653E+04  0.15466258653E+04  0.00000000000E+00 0. -1.
          1   -1    0    0  501    0 -0.00000000000E+00 -0.00000000000E+00 -0.22066188844E+03  0.22066188844E+03  0.00000000000E+00 0. -1.
         25    2    1    2    0    0  0.33059675393E+02 -0.43029303091E+02 -0.12058523299E+03  0.18196236299E+03  0.12500016027E+03 0.  0.
          2    1    1    2  501    0 -0.72339012283E+02  0.43315859144E+02 -0.43419446020E+02  0.94839045989E+02  0.00000000000E+00 0. -1.
          1    1    1    2  502    0  0.39279336890E+02 -0.28655605305E+00  0.14899686559E+04  0.14904863447E+04  0.00000000000E+00 0. -1.
         22    1    3    3    0    0  0.44460875238E+02 -0.74181723442E+02 -0.40942181185E+02  0.95686779233E+02  0.00000000000E+00 0. -1.
         22    1    3    3    0    0 -0.11401199845E+02  0.31152420351E+02 -0.79643051807E+02  0.86275583758E+02  0.00000000000E+00 0. -1.
</event>
<event>
 7    1  0.6273950E-006  0.7051766E+02  0.7818608E-02  0.1376375E+00
          2   -1    0    0  502    0  0.00000000000E+00  0.00000000000E+00  0.17983043547E+04  0.17983043547E+04  0.00000000000E+00 0. -1.
          1   -1    0    0  501    0 -0.00000000000E+00 -0.00000000000E+00 -0.99303178640E+02  0.99303178640E+02  0.00000000000E+00 0. -1.
         25    2    1    2    0    0  0.99638353091E+02 -0.42499108976E+02  0.43109829015E+03  0.46174391276E+03  0.12501091765E+03 0.  0.
          2    1    1    2  501    0 -0.31156101585E+02  0.52096735719E+02 -0.72001887390E+02  0.94175603668E+02  0.00000000000E+00 0. -1.
          1    1    1    2  502    0 -0.68482251506E+02 -0.95976267433E+01  0.13399047733E+04  0.13416880169E+04  0.00000000000E+00 0. -1.
         22    1    3    3    0    0  0.10668606263E+03 -0.49167474883E+02  0.21151341897E+03  0.24194479319E+03  0.00000000000E+00 0. -1.
         22    1    3    3    0    0 -0.70477095430E+01  0.66683659077E+01  0.21958487118E+03  0.21979911957E+03  0.00000000000E+00 0. -1.
</event>
<event>
 7    1  0.6273950E-006  0.5608910E+02  0.7818608E-02  0.1447712E+00
          2   -1    0    0  502    0  0.00000000000E+00  0.00000000000E+00  0.31218719770E+03  0.31218719770E+03  0.00000000000E+00 0. -1.
          1   -1    0    0  501    0 -0.00000000000E+00 -0.00000000000E+00 -0.18854240904E+04  0.18854240904E+04  0.00000000000E+00 0. -1.
         25    2    1    2    0    0  0.45718409500E+02 -0.51902530546E+02 -0.10329682106E+04  0.10428003078E+04  0.12500044934E+03 0.  0.
          2    1    1    2  501    0  0.96211809234E+01  0.42726599876E+02 -0.84440741123E+03  0.84554243277E+03  0.00000000000E+00 0. -1.
          1    1    1    2  502    0 -0.55339590424E+02  0.91759306693E+01  0.30413872907E+03  0.30926854753E+03  0.00000000000E+00 0. -1.
         22    1    3    3    0    0  0.19289030004E+02 -0.20711575211E+02 -0.40052152332E+02  0.49042949877E+02  0.00000000000E+00 0. -1.
         22    1    3    3    0    0  0.26429379496E+02 -0.31190955334E+02 -0.99291605824E+03  0.99375735797E+03  0.00000000000E+00 0. -1.
</event>
<event>
 7    1  0.6273950E-006  0.9103191E+02  0.7818608E-02  0.1338845E+00
          2   -1    0    0  502    0  0.00000000000E+00  0.00000000000E+00  0.34621729369E+03  0.34621729369E+03  0.00000000000E+00 0. -1.
          1   -1    0    0  501    0 -0.00000000000E+00 -0.00000000000E+00 -0.67139372783E+03  0.67139372783E+03  0.00000000000E+00 0. -1.
         25    2    1    2    0    0  0.46759627253E+02  0.14365718583E+03 -0.16096755335E+02  0.19674575518E+03  0.12500374741E+03 0.  0.
          2    1    1    2  501    0 -0.24525405954E+02 -0.59693730673E+02 -0.55568031697E+03  0.55941527659E+03  0.00000000000E+00 0. -1.
          1    1    1    2  502    0 -0.22234221299E+02 -0.83963455153E+02  0.24660063816E+03  0.26144998975E+03  0.00000000000E+00 0. -1.
         22    1    3    3    0    0 -0.28484687703E+02  0.94711426286E+01  0.23229127149E+02  0.37956189539E+02  0.00000000000E+00 0. -1.
         22    1    3    3    0    0  0.75244314956E+02  0.13418604320E+03 -0.39325882483E+02  0.15878956564E+03  0.00000000000E+00 0. -1.
</event>
<event>
 7    1  0.6273950E-006  0.1309596E+03  0.7818608E-02  0.1236221E+00
          2   -1    0    0  502    0  0.00000000000E+00  0.00000000000E+00  0.11856695544E+04  0.11856695544E+04  0.00000000000E+00 0. -1.
          1   -1    0    0  501    0 -0.00000000000E+00 -0.00000000000E+00 -0.97330846443E+03  0.97330846443E+03  0.00000000000E+00 0. -1.
         25    2    1    2    0    0  0.45486569109E+02 -0.11403448778E+03 -0.58978205402E+03  0.61525678297E+03  0.12500058151E+03 0.  0.
          2    1    1    2  501    0 -0.15467541083E+03  0.69518249273E+02 -0.34822720441E+03  0.38732345086E+03  0.00000000000E+00 0. -1.
          1    1    1    2  502    0  0.10918884172E+03  0.44516238503E+02  0.11503703484E+04  0.11563977850E+04  0.00000000000E+00 0. -1.
         22    1    3    3    0    0 -0.11550854212E+02  0.87273984074E+01 -0.23628607084E+03  0.23672916379E+03  0.00000000000E+00 0.  1.
         22    1    3    3    0    0  0.57037423321E+02 -0.12276188618E+03 -0.35349598318E+03  0.37852761918E+03  0.00000000000E+00 0.  1.
</event>
<event>
 7    1  0.6273950E-006  0.3824917E+02  0.7818608E-02  0.1525362E+00
          2   -1    0    0  502    0  0.00000000000E+00  0.00000000000E+00  0.34285110445E+03  0.34285110445E+03  0.00000000000E+00 0. -1.
          1   -1    0    0  501    0 -0.00000000000E+00 -0.00000000000E+00 -0.20716333249E+03  0.20716333249E+03  0.00000000000E+00 0. -1.
         25    2    1    2    0    0 -0.12618388597E+00 -0.19371028478E+01 -0.42114741731E+02  0.13191070426E+03  0.12499205630E+03 0.  0.
          2    1    1    2  501    0  0.21525441021E+02  0.33639955843E+02 -0.11555571165E+03  0.12226247885E+03  0.00000000000E+00 0. -1.
          1    1    1    2  502    0 -0.21399257135E+02 -0.31702852995E+02  0.29335822534E+03  0.29584125383E+03  0.00000000000E+00 0. -1.
         22    1    3    3    0    0  0.35765659182E+02  0.29758125475E+02 -0.64112816618E+02  0.79216044228E+02  0.00000000000E+00 0.  1.
         22    1    3    3    0    0 -0.35891843068E+02 -0.31695228322E+02  0.21998074887E+02  0.52694660032E+02  0.00000000000E+00 0.  1.
</event>
<event>
 7    1  0.6273950E-006  0.8113019E+02  0.7818608E-02  0.1418125E+00
          2   -1    0    0  502    0  0.00000000000E+00  0.00000000000E+00  0.12249431559E+04  0.12249431559E+04  0.00000000000E+00 0. -1.
          1   -1    0    0  501    0 -0.00000000000E+00 -0.00000000000E+00 -0.10298107556E+04  0.10298107556E+04  0.00000000000E+00 0. -1.
         25    2    1    2    0    0 -0.63134586306E+02 -0.44009966544E+01  0.49229477727E+02  0.14850351901E+03  0.12499763566E+03 0.  0.
          2    1    1    2  501    0  0.70140031556E+02  0.41603963735E+02 -0.97815827381E+03  0.98155189493E+03  0.00000000000E+00 0. -1.
          1    1    1    2  502    0 -0.70054452493E+01 -0.37202967080E+02  0.11240611964E+04  0.11246984975E+04  0.00000000000E+00 0. -1.
         22    1    3    3    0    0 -0.18619233578E+02 -0.56164124709E+02 -0.76237942734E+01  0.59659089856E+02  0.00000000000E+00 0.  1.
         22    1    3    3    0    0 -0.44515352728E+02  0.51763128054E+02  0.56853272000E+02  0.88844429154E+02  0.00000000000E+00 0.  1.
</event>
<event>
 7    1  0.6273950E-006  0.2268040E+03  0.7818608E-02  0.1250082E+00
          2   -1    0    0  502    0  0.00000000000E+00  0.00000000000E+00  0.68800958779E+03  0.68800958779E+03  0.00000000000E+00 0. -1.
          1   -1    0    0  501    0 -0.00000000000E+00 -0.00000000000E+00 -0.89752246584E+03  0.89752246584E+03  0.00000000000E+00 0. -1.
         25    2    1    2    0    0  0.85086025719E+02  0.16402891358E+03  0.22192060580E+03  0.31465314795E+03  0.12495091825E+03 0.  0.
          2    1    1    2  501    0 -0.14203512748E+03 -0.18015672580E+03 -0.83349155205E+03  0.86448747280E+03  0.00000000000E+00 0. -1.
          1    1    1    2  502    0  0.56949101762E+02  0.16127812225E+02  0.40205806820E+03  0.40639143289E+03  0.00000000000E+00 0. -1.
         22    1    3    3    0    0  0.17807632023E+02 -0.82230124640E+01 -0.65883957586E+01  0.20691463238E+02  0.00000000000E+00 0.  1.
         22    1    3    3    0    0  0.67278393696E+02  0.17225192604E+03  0.22850900156E+03  0.29396168471E+03  0.00000000000E+00 0.  1.
</event>
<event>
 7    1  0.6273950E-006  0.6890869E+02  0.7818608E-02  0.1430881E+00
          2   -1    0    0  502    0  0.00000000000E+00  0.00000000000E+00  0.14499943957E+04  0.14499943957E+04  0.00000000000E+00 0. -1.
          1   -1    0    0  501    0 -0.00000000000E+00 -0.00000000000E+00 -0.47600704002E+03  0.47600704002E+03  0.00000000000E+00 0. -1.
         25    2    1    2    0    0 -0.10453510396E+02  0.78066523265E+02  0.99644709742E+02  0.17820556546E+03  0.12499798977E+03 0.  0.
          2    1    1    2  501    0  0.42904752516E+02 -0.53948970267E+02 -0.43369245639E+03  0.43913603349E+03  0.00000000000E+00 0. -1.
          1    1    1    2  502    0 -0.32451242121E+02 -0.24117552998E+02  0.13080351024E+04  0.13086598368E+04  0.00000000000E+00 0. -1.
         22    1    3    3    0    0 -0.64139586861E+02  0.47717561932E+02  0.30523293396E+02  0.85571746267E+02  0.00000000000E+00 0. -1.
         22    1    3    3    0    0  0.53686076465E+02  0.30348961333E+02  0.69121416346E+02  0.92633819191E+02  0.00000000000E+00 0. -1.
</event>
<event>
 7    1  0.1272651E-005  0.6389481E+02  0.7818608E-02  0.1398210E+00
          2   -1    0    0  502    0  0.00000000000E+00  0.00000000000E+00  0.29013692319E+04  0.29013692319E+04  0.00000000000E+00 0. -1.
          1   -1    0    0  501    0 -0.00000000000E+00 -0.00000000000E+00 -0.87082559410E+03  0.87082559410E+03  0.00000000000E+00 0. -1.
         25    2    1    2    0    0  0.92270885187E+01 -0.73085088768E+01 -0.15613902801E+03  0.20035710545E+03  0.12500008068E+03 0.  0.
          2    1    1    2  501    0 -0.47088181882E+02  0.48805878418E+02 -0.69064251192E+03  0.69396425695E+03  0.00000000000E+00 0. -1.
          1    1    1    2  502    0  0.37861093363E+02 -0.41497369541E+02  0.28773251777E+04  0.28778734636E+04  0.00000000000E+00 0. -1.
         22    1    3    3    0    0  0.57715813545E+02  0.28709835152E+02 -0.70110145563E+02  0.95240759543E+02  0.00000000000E+00 0. -1.
         22    1    3    3    0    0 -0.48488725026E+02 -0.36018344028E+02 -0.86028882450E+02  0.10511634591E+03  0.00000000000E+00 0. -1.
</event>
<event>
 7    1  0.6273950E-006  0.1316457E+03  0.7818608E-02  0.1227674E+00
          2   -1    0    0  502    0  0.00000000000E+00  0.00000000000E+00  0.87654932189E+03  0.87654932189E+03  0.00000000000E+00 0. -1.
          1   -1    0    0  501    0 -0.00000000000E+00 -0.00000000000E+00 -0.81412577122E+02  0.81412577122E+02  0.00000000000E+00 0. -1.
         25    2    1    2    0    0  0.11169386038E+03 -0.30295979699E+02  0.11134940256E+03  0.20351263791E+03  0.12500135802E+03 0.  0.
          2    1    1    2  501    0 -0.69173834090E+02 -0.10779894952E+03  0.13148656009E+03  0.18356020354E+03  0.00000000000E+00 0. -1.
          1    1    1    2  502    0 -0.42520026286E+02  0.13809492922E+03  0.55230078212E+03  0.57088905756E+03  0.00000000000E+00 0. -1.
         22    1    3    3    0    0  0.26624884507E+02 -0.61075935693E+02  0.87456388106E+02  0.10994441421E+03  0.00000000000E+00 0.  1.
         22    1    3    3    0    0  0.85068975869E+02  0.30779955994E+02  0.23893014455E+02  0.93568223698E+02  0.00000000000E+00 0.  1.
</event>
<event>
 7    1  0.6273950E-006  0.2097530E+03  0.7818608E-02  0.1362562E+00
          2   -1    0    0  502    0  0.00000000000E+00  0.00000000000E+00  0.18267380189E+04  0.18267380189E+04  0.00000000000E+00 0. -1.
          1   -1    0    0  501    0 -0.00000000000E+00 -0.00000000000E+00 -0.49781819362E+03  0.49781819362E+03  0.00000000000E+00 0. -1.
         25    2    1    2    0    0  0.15331866991E+03 -0.16944349083E+03 -0.20332990554E+02  0.26125738493E+03  0.12499711814E+03 0.  0.
          2    1    1    2  501    0 -0.49804461741E+01  0.22333527433E+02 -0.35025342262E+03  0.35100007314E+03  0.00000000000E+00 0. -1.
          1    1    1    2  502    0 -0.14833822374E+03  0.14710996340E+03  0.16995062385E+04  0.17122987545E+04  0.00000000000E+00 0. -1.
         22    1    3    3    0    0  0.12176206473E+03 -0.14326763244E+03  0.36148585262E+02  0.19146366529E+03  0.00000000000E+00 0.  1.
         22    1    3    3    0    0  0.31556605184E+02 -0.26175858396E+02 -0.56481575815E+02  0.69793719632E+02  0.00000000000E+00 0.  1.
</event>
<event>
 7    1  0.6273950E-006  0.7377452E+02  0.7818608E-02  0.1485322E+00
          2   -1    0    0  502    0  0.00000000000E+00  0.00000000000E+00  0.31512052057E+03  0.31512052057E+03  0.00000000000E+00 0. -1.
          1   -1    0    0  501    0 -0.00000000000E+00 -0.00000000000E+00 -0.68499303486E+03  0.68499303486E+03  0.00000000000E+00 0. -1.
         25    2    1    2    0    0  0.80633656956E+02 -0.19226157581E+02 -0.31064332320E+02  0.15318844103E+03  0.12502109404E+03 0.  0.
          2    1    1    2  501    0 -0.63185411398E+02  0.37684114150E+02 -0.58994124864E+03  0.59451086241E+03  0.00000000000E+00 0. -1.
          1    1    1    2  502    0 -0.17448245558E+02 -0.18457956569E+02  0.25113306666E+03  0.25241425199E+03  0.00000000000E+00 0. -1.
         22    1    3    3    0    0  0.84647139009E+02 -0.57844891384E+02  0.14673083423E+01  0.10253449466E+03  0.00000000000E+00 0.  1.
         22    1    3    3    0    0 -0.40134820530E+01  0.38618733803E+02 -0.32531640662E+02  0.50653946370E+02  0.00000000000E+00 0.  1.
</event>
<event>
 7    1  0.6273950E-006  0.5128328E+02  0.7818608E-02  0.1495451E+00
          2   -1    0    0  502    0  0.00000000000E+00  0.00000000000E+00  0.84262599213E+03  0.84262599213E+03  0.00000000000E+00 0. -1.
          1   -1    0    0  501    0 -0.00000000000E+00 -0.00000000000E+00 -0.49260072513E+02  0.49260072513E+02  0.00000000000E+00 0. -1.
         25    2    1    2    0    0 -0.72398682370E+02  0.23070294338E+01  0.78188968264E+02  0.16427204226E+03  0.12499959006E+03 0.  0.
          2    1    1    2  501    0  0.39287492088E+02  0.56369886563E+01  0.62421952289E+02  0.73971499939E+02  0.00000000000E+00 0. -1.
          1    1    1    2  502    0  0.33111190282E+02 -0.79440180901E+01  0.65275499907E+03  0.65364252245E+03  0.00000000000E+00 0. -1.
         22    1    3    3    0    0 -0.58647926438E+02  0.32239356259E+02  0.10313909347E+03  0.12294969690E+03  0.00000000000E+00 0. -1.
         22    1    3    3    0    0 -0.13750755932E+02 -0.29932326826E+02 -0.24950125204E+02  0.41322345354E+02  0.00000000000E+00 0. -1.
</event>
<event>
 7    1  0.6273950E-006  0.8493814E+02  0.7818608E-02  0.1334914E+00
          2   -1    0    0  502    0  0.00000000000E+00  0.00000000000E+00  0.28838901401E+04  0.28838901401E+04  0.00000000000E+00 0. -1.
          1   -1    0    0  501    0 -0.00000000000E+00 -0.00000000000E+00 -0.15356834285E+03  0.15356834285E+03  0.00000000000E+00 0. -1.
         25    2    1    2    0    0 -0.38869875795E+02 -0.40397647247E+02  0.12033176068E+04  0.12110929814E+04  0.12502043690E+03 0.  0.
          2    1    1    2  501    0 -0.18261662932E+02  0.83509950152E+02 -0.13664316567E+03  0.16117926303E+03  0.00000000000E+00 0. -1.
          1    1    1    2  502    0  0.57131538727E+02 -0.43112302905E+02  0.16636473561E+04  0.16651862385E+04  0.00000000000E+00 0. -1.
         22    1    3    3    0    0 -0.76537055025E+02 -0.21527990226E+02  0.47920997287E+03  0.48576081897E+03  0.00000000000E+00 0. -1.
         22    1    3    3    0    0  0.37667179230E+02 -0.18869657021E+02  0.72410763389E+03  0.72533216240E+03  0.00000000000E+00 0. -1.
</event>
