<event>
 7    1  0.5064652E-006  0.2674470E+02  0.7818608E-02  0.1662550E+00
          2   -1    0    0  502    0  0.00000000000E+00  0.00000000000E+00  0.66459925416E+03  0.66459925416E+03  0.00000000000E+00 0. -1.
          1   -1    0    0  501    0 -0.00000000000E+00 -0.00000000000E+00 -0.37433878627E+03  0.37433878627E+03  0.00000000000E+00 0. -1.
         25    2    1    2    0    0 -0.22066333928E+02  0.61786684410E+01  0.45455507839E+03  0.47198639525E+03  0.12500295587E+03 0.  0.
          2    1    1    2  501    0  0.88933179271E+01 -0.25238008576E+02 -0.36446443957E+03  0.36544544858E+03  0.00000000000E+00 0. -1.
          1    1    1    2  502    0  0.13173016001E+02  0.19059340135E+02  0.20016982907E+03  0.20150619660E+03  0.00000000000E+00 0. -1.
         22    1    3    3    0    0 -0.31413445053E+02 -0.36288518383E+02  0.39679867149E+03  0.39969093910E+03  0.00000000000E+00 0.  1.
         22    1    3    3    0    0  0.93471111242E+01  0.42467186824E+02  0.57756406899E+02  0.72295456157E+02  0.00000000000E+00 0.  1.
</event>
<event>
 7    1  0.5064652E-006  0.8077075E+02  0.7818608E-02  0.1450034E+00
          2   -1    0    0  502    0  0.00000000000E+00  0.00000000000E+00  0.20569800503E+04  0.20569800503E+04  0.00000000000E+00 0. -1.
          1   -1    0    0  501    0 -0.00000000000E+00 -0.00000000000E+00 -0.88500612269E+02  0.88500612269E+02  0.00000000000E+00 0. -1.
         25    2    1    2    0    0 -0.67989841011E+02  0.45195828892E+01  0.13034550765E+03  0.19302257403E+03  0.12499887044E+03 0.  0.
          2    1    1    2  501    0 -0.58733640418E+01  0.29314048673E+02 -0.52319918148E+02  0.60259303762E+02  0.00000000000E+00 0. -1.
          1    1    1    2  502    0  0.73863205053E+02 -0.33833631562E+02  0.18904538486E+04  0.18921987848E+04  0.00000000000E+00 0. -1.
         22    1    3    3    0    0 -0.45542747285E+02 -0.11230777462E+02  0.15136829925E+03  0.15846966338E+03  0.00000000000E+00 0. -1.
         22    1    3    3    0    0 -0.22447093726E+02  0.15750360351E+02 -0.21022791602E+02  0.34552910654E+02  0.00000000000E+00 0. -1.
</event>
<event>
 7    1  0.5064652E-006  0.1613557E+03  0.7818608E-02  0.1292904E+00
          2   -1    0    0  502    0  0.00000000000E+00  0.00000000000E+00  0.35219385634E+04  0.35219385634E+04  0.00000000000E+00 0. -1.
          1   -1    0    0  501    0 -0.00000000000E+00 -0.00000000000E+00 -0.23451208168E+03  0.23451208168E+03  0.00000000000E+00 0. -1.
         25    2    1    2    0    0  0.91604334394E+02 -0.97419479721E+02  0.23077812890E+03  0.29456108555E+03  0.12500311690E+03 0.  0.
          2    1    1    2  501    0  0.51753565397E+02  0.18726895756E+02 -0.19679113411E+03  0.20434255215E+03  0.00000000000E+00 0. -1.
          1    1    1    2  502    0 -0.14335789979E+03  0.78692583965E+02  0.32534394869E+04  0.32575470074E+04  0.00000000000E+00 0. -1.
         22    1    3    3    0    0  0.41634442070E+02 -0.11194606645E+03  0.20310902679E+03  0.23562390652E+03  0.00000000000E+00 0.  1.
         22    1    3    3    0    0  0.49969892324E+02  0.14526586730E+02  0.27669102110E+02  0.58937179034E+02  0.00000000000E+00 0.  1.
</event>
<event>
 7    1  0.5064652E-006  0.5375038E+02  0.7818608E-02  0.1484535E+00
          2   -1    0    0  502    0  0.00000000000E+00  0.00000000000E+00  0.11000800566E+04  0.11000800566E+04  0.00000000000E+00 0. -1.
          1   -1    0    0  501    0 -0.00000000000E+00 -0.00000000000E+00 -0.19532177994E+03  0.19532177994E+03  0.00000000000E+00 0. -1.
         25    2    1    2    0    0 -0.31434146964E+02 -0.74351174761E+02  0.10146878769E+03  0.18010343484E+03  0.12500051833E+03 0.  0.
          2    1    1    2  501    0  0.27962523081E+02  0.21140951013E+02 -0.15328325569E+03  0.15724057676E+03  0.00000000000E+00 0. -1.
          1    1    1    2  502    0  0.34716238827E+01  0.53210223748E+02  0.95657274465E+03  0.95805782492E+03  0.00000000000E+00 0. -1.
         22    1    3    3    0    0 -0.11084293514E+02 -0.73297052371E+01  0.10886334109E+03  0.10967138722E+03  0.00000000000E+00 0. -1.
         22    1    3    3    0    0 -0.20349853450E+02 -0.67021469524E+02 -0.73945533960E+01  0.70432047624E+02  0.00000000000E+00 0. -1.
</event>
<event>
 7    1  0.5064652E-006  0.7466002E+02  0.7818608E-02  0.1360204E+00
          2   -1    0    0  502    0  0.00000000000E+00  0.00000000000E+00  0.29210840010E+04  0.29210840010E+04  0.00000000000E+00 0. -1.
          1   -1    0    0  501    0 -0.00000000000E+00 -0.00000000000E+00 -0.49809610092E+02  0.49809610092E+02  0.00000000000E+00 0. -1.
         25    2    1    2    0    0 -0.75011705783E+02  0.10577062304E+03  0.14397345200E+04  0.14509564498E+04  0.12499980173E+03 0.  0.
          2    1    1    2  501    0  0.60623497428E+02 -0.41798885444E+02 -0.12259026299E+02  0.74650110452E+02  0.00000000000E+00 0. -1.
          1    1    1    2  502    0  0.14388208356E+02 -0.63971737596E+02  0.14437988972E+04  0.14452870509E+04  0.00000000000E+00 0. -1.
         22    1    3    3    0    0  0.12935214539E+02  0.40466526520E+02  0.85469264514E+03  0.85574784674E+03  0.00000000000E+00 0.  1.
         22    1    3    3    0    0 -0.87946920323E+02  0.65304096521E+02  0.58504187486E+03  0.59520860306E+03  0.00000000000E+00 0.  1.
</event>
<event>
 7    1  0.5064652E-006  0.1236150E+03  0.7818608E-02  0.1245013E+00
          2   -1    0    0  502    0  0.00000000000E+00  0.00000000000E+00  0.78667557028E+03  0.78667557028E+03  0.00000000000E+00 0. -1.
          1   -1    0    0  501    0 -0.00000000000E+00 -0.00000000000E+00 -0.34082451324E+03  0.34082451324E+03  0.00000000000E+00 0. -1.
         25    2    1    2    0    0 -0.15695791063E+03  0.59669230974E+02  0.18427358569E+02  0.21015626022E+03  0.12501953180E+03 0.  0.
          2    1    1    2  501    0  0.10224183107E+03  0.51012466476E+02 -0.22552806123E+03  0.25282122173E+03  0.00000000000E+00 0. -1.
          1    1    1    2  502    0  0.54716079560E+02 -0.11068169745E+03  0.65295175970E+03  0.66452260158E+03  0.00000000000E+00 0. -1.
         22    1    3    3    0    0 -0.64225127752E+02  0.90699053006E+02  0.16473265401E+02  0.11235013896E+03  0.00000000000E+00 0. -1.
         22    1    3    3    0    0 -0.92732782880E+02 -0.31029822032E+02  0.19540931674E+01  0.97806121261E+02  0.00000000000E+00 0. -1.
</event>
<event>
 7    1  0.5064652E-006  0.6144240E+02  0.7818608E-02  0.1445499E+00
          2   -1    0    0  502    0  0.00000000000E+00  0.00000000000E+00  0.10169525483E+03  0.10169525483E+03  0.00000000000E+00 0. -1.
          1   -1    0    0  501    0 -0.00000000000E+00 -0.00000000000E+00 -0.25986131499E+03  0.25986131499E+03  0.00000000000E+00 0. -1.
         25    2    1    2    0    0  0.60705133954E+02 -0.50455124077E+02 -0.15906490852E+01  0.14784682618E+03  0.12500128405E+03 0.  0.
          2    1    1    2  501    0 -0.40549157588E+02 -0.27331828728E+01 -0.15121172767E+03  0.15657806696E+03  0.00000000000E+00 0. -1.
          1    1    1    2  502    0 -0.20155976366E+02  0.53188306950E+02 -0.53636834085E+01  0.57131676671E+02  0.00000000000E+00 0. -1.
         22    1    3    3    0    0  0.62656963653E+02 -0.15145063245E+02  0.52558651058E+02  0.83172590653E+02  0.00000000000E+00 0. -1.
         22    1    3    3    0    0 -0.19518296986E+01 -0.35310060833E+02 -0.54149300143E+02  0.64674235529E+02  0.00000000000E+00 0. -1.
</event>
<event>
 7    1  0.5064652E-006  0.1563109E+03  0.7818608E-02  0.1226331E+00
          2   -1    0    0  502    0  0.00000000000E+00  0.00000000000E+00  0.14605907394E+04  0.14605907394E+04  0.00000000000E+00 0. -1.
          1   -1    0    0  501    0 -0.00000000000E+00 -0.00000000000E+00 -0.12498679526E+04  0.12498679526E+04  0.00000000000E+00 0. -1.
         25    2    1    2    0    0 -0.11147748130E+03  0.23934013903E+03  0.45857279915E+03  0.54371412086E+03  0.12500040845E+03 0.  0.
          2    1    1    2  501    0  0.73384108570E+02 -0.13679948420E+03 -0.11991597518E+04  0.12091664222E+04  0.00000000000E+00 0. -1.
          1    1    1    2  502    0  0.38093372731E+02 -0.10254065483E+03  0.95130973941E+03  0.95757814889E+03  0.00000000000E+00 0. -1.
         22    1    3    3    0    0 -0.13839348839E+03  0.21476439613E+03  0.40747007026E+03  0.48094527925E+03  0.00000000000E+00 0. -1.
         22    1    3    3    0    0  0.26916007093E+02  0.24575742897E+02  0.51102728888E+02  0.62768841606E+02  0.00000000000E+00 0. -1.
</event>
<event>
 7    1  0.5064652E-006  0.5989544E+02  0.7818608E-02  0.1454556E+00
          2   -1    0    0  502    0  0.00000000000E+00  0.00000000000E+00  0.14874053325E+03  0.14874053325E+03  0.00000000000E+00 0. -1.
          1   -1    0    0  501    0 -0.00000000000E+00 -0.00000000000E+00 -0.60378794496E+03  0.60378794496E+03  0.00000000000E+00 0. -1.
         25    2    1    2    0    0 -0.15050080199E+02 -0.33585455232E+02  0.13416591686E+02  0.13099460807E+03  0.12500037877E+03 0.  0.
          2    1    1    2  501    0 -0.38510446924E+02 -0.61582086378E+01 -0.52961427625E+03  0.53104826491E+03  0.00000000000E+00 0. -1.
          1    1    1    2  502    0  0.53560527123E+02  0.39743663869E+02  0.61150272854E+02  0.90485605228E+02  0.00000000000E+00 0. -1.
         22    1    3    3    0    0 -0.34643092816E+02 -0.76007410031E+02  0.10301141686E+02  0.84162840847E+02  0.00000000000E+00 0. -1.
         22    1    3    3    0    0  0.19593012617E+02  0.42421954799E+02  0.31154499993E+01  0.46831767222E+02  0.00000000000E+00 0. -1.
</event>
<event>
 7    1  0.5064652E-006  0.1239841E+03  0.7818608E-02  0.1381577E+00
          2   -1    0    0  502    0  0.00000000000E+00  0.00000000000E+00  0.36585669033E+03  0.36585669033E+03  0.00000000000E+00 0. -1.
          1   -1    0    0  501    0 -0.00000000000E+00 -0.00000000000E+00 -0.88342224693E+03  0.88342224693E+03  0.00000000000E+00 0. -1.
         25    2    1    2    0    0  0.88080315869E+02  0.40599487946E+02  0.11051800861E+03  0.19298148620E+03  0.12498465236E+03 0.  0.
          2    1    1    2  501    0 -0.10343803235E+03 -0.69908801371E+02 -0.83624976818E+03  0.84551779509E+03  0.00000000000E+00 0. -1.
          1    1    1    2  502    0  0.15357716479E+02  0.29309313425E+02  0.20816620297E+03  0.21077965596E+03  0.00000000000E+00 0. -1.
         22    1    3    3    0    0 -0.25975257584E+02 -0.10941459361E+02  0.41167701363E+02  0.49891975057E+02  0.00000000000E+00 0.  1.
         22    1    3    3    0    0  0.11405557345E+03  0.51540947307E+02  0.69350307248E+02  0.14308951115E+03  0.00000000000E+00 0.  1.
</event>
<event>
 7    1  0.5064652E-006  0.8934600E+02  0.7818608E-02  0.1341222E+00
          2   -1    0    0  502    0  0.00000000000E+00  0.00000000000E+00  0.82196107942E+03  0.82196107942E+03  0.00000000000E+00 0. -1.
          1   -1    0    0  501    0 -0.00000000000E+00 -0.00000000000E+00 -0.19149328317E+03  0.19149328317E+03  0.00000000000E+00 0. -1.
         25    2    1    2    0    0  0.69062550852E+01 -0.28614297095E+02  0.25546753152E+03  0.28593053142E+03  0.12500453904E+03 0.  0.
          2    1    1    2  501    0 -0.46148875174E+02  0.79693671140E+02 -0.16217625160E+03  0.18649915947E+03  0.00000000000E+00 0. -1.
          1    1    1    2  502    0  0.39242620089E+02 -0.51079374045E+02  0.53717651633E+03  0.54102467169E+03  0.00000000000E+00 0. -1.
         22    1    3    3    0    0  0.56310607571E+02 -0.35622177878E+02  0.20240876593E+03  0.21309418718E+03  0.00000000000E+00 0.  1.
         22    1    3    3    0    0 -0.49404352485E+02  0.70078807833E+01  0.53058765587E+02  0.72836344246E+02  0.00000000000E+00 0.  1.
</event>
<event>
 7    1  0.5064652E-006  0.1571699E+03  0.7818608E-02  0.1368666E+00
          2   -1    0    0  502    0  0.00000000000E+00  0.00000000000E+00  0.19584465397E+04  0.19584465397E+04  0.00000000000E+00 0. -1.
          1   -1    0    0  501    0 -0.00000000000E+00 -0.00000000000E+00 -0.21217240145E+02  0.21217240145E+02  0.00000000000E+00 0. -1.
         25    2    1    2    0    0 -0.85472398301E+02 -0.11228434171E+03  0.61485125047E+03  0.64310180972E+03  0.12499829277E+03 0.  0.
          2    1    1    2  501    0 -0.28479321135E+02 -0.55927026017E+01  0.15076471857E+03  0.15353289687E+03  0.00000000000E+00 0. -1.
          1    1    1    2  502    0  0.11395171944E+03  0.11787704431E+03  0.11716133305E+04  0.11830290733E+04  0.00000000000E+00 0. -1.
         22    1    3    3    0    0 -0.11382857665E+03 -0.10302070962E+03  0.44725175987E+03  0.47286821439E+03  0.00000000000E+00 0.  1.
         22    1    3    3    0    0  0.28356178347E+02 -0.92636320871E+01  0.16759949060E+03  0.17023359533E+03  0.00000000000E+00 0.  1.
</event>
<event>
 7    1  0.5064652E-006  0.1500124E+03  0.7818608E-02  0.1262050E+00
          2   -1    0    0  502    0  0.00000000000E+00  0.00000000000E+00  0.15172533540E+03  0.15172533540E+03  0.00000000000E+00 0. -1.
          1   -1    0    0  501    0 -0.00000000000E+00 -0.00000000000E+00 -0.62556131046E+03  0.62556131046E+03  0.00000000000E+00 0. -1.
         25    2    1    2    0    0 -0.12334391928E+02  0.94286671988E+02 -0.12304073211E+03  0.19948510429E+03  0.12495267639E+03 0.  0.
          2    1    1    2  501    0  0.16107175789E+02 -0.17369505527E+03 -0.43094548432E+03  0.46491227537E+03  0.00000000000E+00 0. -1.
          1    1    1    2  502    0 -0.37727838605E+01  0.79408383283E+02  0.80150241356E+02  0.11288926620E+03  0.00000000000E+00 0. -1.
         22    1    3    3    0    0 -0.43615299319E+02  0.10874239745E+03 -0.11484836856E+03  0.16406508190E+03  0.00000000000E+00 0. -1.
         22    1    3    3    0    0  0.31280907390E+02 -0.14455725460E+02 -0.81923635495E+01  0.35420022392E+02  0.00000000000E+00 0. -1.
</event>
<event>
 7    1  0.5064652E-006  0.1839467E+03  0.7818608E-02  0.1266492E+00
          2   -1    0    0  502    0  0.00000000000E+00  0.00000000000E+00  0.93836529007E+03  0.93836529007E+03  0.00000000000E+00 0. -1.
          1   -1    0    0  501    0 -0.00000000000E+00 -0.00000000000E+00 -0.11805678441E+04  0.11805678441E+04  0.00000000000E+00 0. -1.
         25    2    1    2    0    0 -0.42120643431E+02 -0.11639942122E+03 -0.32440319124E+03  0.36902412154E+03  0.12497358893E+03 0.  0.
          2    1    1    2  501    0 -0.27822013114E+02 -0.55498181380E+02 -0.82327427047E+03  0.82561167444E+03  0.00000000000E+00 0. -1.
          1    1    1    2  502    0  0.69942656545E+02  0.17189760260E+03  0.90547490767E+03  0.92429733820E+03  0.00000000000E+00 0. -1.
         22    1    3    3    0    0 -0.10758015224E+02  0.64010716357E+01 -0.16453651166E+03  0.16501203677E+03  0.00000000000E+00 0. -1.
         22    1    3    3    0    0 -0.31362628207E+02 -0.12280049285E+03 -0.15986667958E+03  0.20401208477E+03  0.00000000000E+00 0. -1.
</event>
<event>
 7    1  0.5064652E-006  0.4561468E+02  0.7818608E-02  0.1483931E+00
          2   -1    0    0  502    0  0.00000000000E+00  0.00000000000E+00  0.21775175551E+04  0.21775175551E+04  0.00000000000E+00 0. -1.
          1   -1    0    0  501    0 -0.00000000000E+00 -0.00000000000E+00 -0.12592173342E+04  0.12592173342E+04  0.00000000000E+00 0. -1.
         25    2    1    2    0    0  0.76794937254E+01 -0.88255774837E+01  0.27916159605E+03  0.30609168733E+03  0.12499623555E+03 0.  0.
          2    1    1    2  501    0 -0.44499695352E+02 -0.10281837938E+02 -0.12451053121E+04  0.12459426862E+04  0.00000000000E+00 0. -1.
          1    1    1    2  502    0  0.36820201626E+02  0.19107415422E+02  0.18842439369E+04  0.18847005158E+04  0.00000000000E+00 0. -1.
         22    1    3    3    0    0 -0.51181707969E+02  0.10739166356E+01  0.20284863358E+03  0.20920872036E+03  0.00000000000E+00 0.  1.
         22    1    3    3    0    0  0.58861201695E+02 -0.98994941192E+01  0.76312962464E+02  0.96882966970E+02  0.00000000000E+00 0.  1.
</event>
<event>
 7    1  0.5064652E-006  0.6168517E+02  0.7818608E-02  0.1411374E+00
          2   -1    0    0  502    0  0.00000000000E+00  0.00000000000E+00  0.13883587700E+04  0.13883587700E+04  0.00000000000E+00 0. -1.
          1   -1    0    0  501    0 -0.00000000000E+00 -0.00000000000E+00 -0.41397589587E+03  0.41397589587E+03  0.00000000000E+00 0. -1.
         25    2    1    2    0    0 -0.11027416058E+02  0.10163373395E+03  0.72928512350E+03  0.74695317657E+03  0.12502494491E+03 0.  0.
          2    1    1    2  501    0  0.31093937111E+02 -0.53158463895E+02 -0.40173328950E+03  0.40642624312E+03  0.00000000000E+00 0. -1.
          1    1    1    2  502    0 -0.20066521052E+02 -0.48475270053E+02  0.64683104009E+03  0.64895524614E+03  0.00000000000E+00 0. -1.
         22    1    3    3    0    0 -0.55697365477E+02  0.95351618284E+01  0.19840862610E+03  0.20629856699E+03  0.00000000000E+00 0. -1.
         22    1    3    3    0    0  0.44669949418E+02  0.92098572120E+02  0.53087649740E+03  0.54065460958E+03  0.00000000000E+00 0. -1.
</event>
<event>
 7    1  0.5064652E-006  0.4563714E+02  0.7818608E-02  0.1490027E+00
          2   -1    0    0  502    0  0.00000000000E+00  0.00000000000E+00  0.29046213272E+03  0.29046213272E+03  0.00000000000E+00 0. -1.
          1   -1    0    0  501    0 -0.00000000000E+00 -0.00000000000E+00 -0.19949772009E+04  0.19949772009E+04  0.00000000000E+00 0. -1.
         25    2    1    2    0    0 -0.17756103439E+02  0.17125291692E+02 -0.54559972063E+02  0.13861270816E+03  0.12501254932E+03 0.  0.
          2    1    1    2  501    0 -0.27041301965E+02 -0.29109359088E+02 -0.18960169589E+04  0.18964332035E+04  0.00000000000E+00 0. -1.
          1    1    1    2  502    0  0.44797405405E+02  0.11984067396E+02  0.24606186284E+03  0.25039342193E+03  0.00000000000E+00 0. -1.
         22    1    3    3    0    0 -0.69987292617E+02  0.84101035514E+01 -0.13896084901E+02  0.71847422676E+02  0.00000000000E+00 0. -1.
         22    1    3    3    0    0  0.52231189177E+02  0.87151881411E+01 -0.40663887162E+02  0.66765285488E+02  0.00000000000E+00 0. -1.
</event>
<event>
 7    1  0.5064652E-006  0.9108797E+02  0.7818608E-02  0.1319973E+00
          2   -1    0    0  502    0  0.00000000000E+00  0.00000000000E+00  0.10246397581E+04  0.10246397581E+04  0.00000000000E+00 0. -1.
          1   -1    0    0  501    0 -0.00000000000E+00 -0.00000000000E+00 -0.42853997011E+03  0.42853997011E+03  0.00000000000E+00 0. -1.
         25    2    1    2    0    0  0.12933169811E+02 -0.71998907211E+02  0.23769664662E+03  0.27834735071E+03  0.12500576910E+03 0.  0.
          2    1    1    2  501    0  0.72179090731E+02  0.24284379775E+02 -0.40151612796E+03  0.40867438536E+03  0.00000000000E+00 0. -1.
          1    1    1    2  502    0 -0.85112260542E+02  0.47714527436E+02  0.75991926934E+03  0.76615799215E+03  0.00000000000E+00 0. -1.
         22    1    3    3    0    0 -0.13297847047E+02  0.55638502586E+01 -0.99504562279E+01  0.17515728501E+02  0.00000000000E+00 0. -1.
         22    1    3    3    0    0  0.26231016857E+02 -0.77562757469E+02  0.24764710285E+03  0.26083162221E+03  0.00000000000E+00 0. -1.
</event>
<event>
 7    1  0.5138373E-006  0.7757997E+02  0.7818608E-02  0.1443847E+00
          2   -1    0    0  502    0  0.00000000000E+00  0.00000000000E+00  0.38593274229E+03  0.38593274229E+03  0.00000000000E+00 0. -1.
          1   -1    0    0  501    0 -0.00000000000E+00 -0.00000000000E+00 -0.23120322469E+04  0.23120322469E+04  0.00000000000E+00 0. -1.
         25    2    1    2    0    0 -0.29249685767E+02  0.75746819375E+02 -0.96983480207E+03  0.98121921005E+03  0.12497387768E+03 0.  0.
          2    1    1    2  501    0  0.32535798226E+02  0.17761690474E+01 -0.13323455499E+04  0.13327439354E+04  0.00000000000E+00 0. -1.
          1    1    1    2  502    0 -0.32861124592E+01 -0.77522988423E+02  0.37608084735E+03  0.38400184377E+03  0.00000000000E+00 0. -1.
         22    1    3    3    0    0 -0.10187729531E+02  0.19060354305E+02 -0.81423603753E+03  0.81452281229E+03  0.00000000000E+00 0. -1.
         22    1    3    3    0    0 -0.19061956236E+02  0.56686465070E+02 -0.15559876455E+03  0.16669639776E+03  0.00000000000E+00 0. -1.
</event>
<event>
 7    1  0.5064652E-006  0.8073124E+02  0.7818608E-02  0.1365166E+00
          2   -1    0    0  502    0  0.00000000000E+00  0.00000000000E+00  0.15362233017E+04  0.15362233017E+04  0.00000000000E+00 0. -1.
          1   -1    0    0  501    0 -0.00000000000E+00 -0.00000000000E+00 -0.28742168627E+03  0.28742168627E+03  0.00000000000E+00 0. -1.
         25    2    1    2    0    0 -0.18557137638E+02 -0.76835991395E+02  0.98377443417E+03  0.99482937787E+03  0.12500086720E+03 0.  0.
          2    1    1    2  501    0 -0.53367648087E+02  0.23148666285E+02 -0.27515038077E+03  0.28123246372E+03  0.00000000000E+00 0. -1.
          1    1    1    2  502    0  0.71924785726E+02  0.53687325111E+02  0.54017756205E+03  0.54758314640E+03  0.00000000000E+00 0. -1.
         22    1    3    3    0    0  0.39759351230E+02  0.62272060764E+01  0.42600274671E+03  0.42789943247E+03  0.00000000000E+00 0. -1.
         22    1    3    3    0    0 -0.58316488869E+02 -0.83063197472E+02  0.55777168746E+03  0.56692994539E+03  0.00000000000E+00 0. -1.
</event>
<event>
 7    1  0.5064652E-006  0.1592568E+03  0.7818608E-02  0.1376875E+00
          2   -1    0    0  502    0  0.00000000000E+00  0.00000000000E+00  0.29135479027E+03  0.29135479027E+03  0.00000000000E+00 0. -1.
          1   -1    0    0  501    0 -0.00000000000E+00 -0.00000000000E+00 -0.34688384747E+03  0.34688384747E+03  0.00000000000E+00 0. -1.
         25    2    1    2    0    0 -0.76177115963E+02 -0.13461375471E+03  0.78673277526E+02  0.21386720061E+03  0.12500351573E+03 0.  0.
          2    1    1    2  501    0  0.10095470222E+03  0.12448311946E+03 -0.25470240349E+03  0.30093390183E+03  0.00000000000E+00 0. -1.
          1    1    1    2  502    0 -0.24777586260E+02  0.10130635247E+02  0.12050006876E+03  0.12343753530E+03  0.00000000000E+00 0. -1.
         22    1    3    3    0    0 -0.33685418228E+02  0.13802668319E+02  0.41250954707E+02  0.55016927560E+02  0.00000000000E+00 0. -1.
         22    1    3    3    0    0 -0.42491697735E+02 -0.14841642303E+03  0.37422322819E+02  0.15885027305E+03  0.00000000000E+00 0. -1.
</event>
<event>
 7    1  0.5064652E-006  0.5409570E+02  0.7818608E-02  0.1438585E+00
          2   -1    0    0  502    0  0.00000000000E+00  0.00000000000E+00  0.66580680899E+03  0.66580680899E+03  0.00000000000E+00 0. -1.
          1   -1    0    0  501    0 -0.00000000000E+00 -0.00000000000E+00 -0.38547338545E+03  0.38547338545E+03  0.00000000000E+00 0. -1.
         25    2    1    2    0    0  0.53040469417E+02  0.87004815899E+02  0.39008953974E+03  0.42211087308E+03  0.12499844307E+03 0.  0.
          2    1    1    2  501    0 -0.32494629891E+02 -0.42960488470E+02 -0.36519595886E+03  0.36914711554E+03  0.00000000000E+00 0. -1.
          1    1    1    2  502    0 -0.20545839525E+02 -0.44044327430E+02  0.25543984266E+03  0.26002220582E+03  0.00000000000E+00 0. -1.
         22    1    3    3    0    0 -0.16737004990E+02  0.87992388056E+02  0.25087086859E+03  0.26638126886E+03  0.00000000000E+00 0.  1.
         22    1    3    3    0    0  0.69777474407E+02 -0.98757215657E+00  0.13921867115E+03  0.15572960422E+03  0.00000000000E+00 0.  1.
</event>
<event>
 7    1  0.5064652E-006  0.1915614E+03  0.7818608E-02  0.1271735E+00
          2   -1    0    0  502    0  0.00000000000E+00  0.00000000000E+00  0.18980108565E+03  0.18980108565E+03  0.00000000000E+00 0. -1.
          1   -1    0    0  501    0 -0.00000000000E+00 -0.00000000000E+00 -0.47869266708E+03  0.47869266708E+03  0.00000000000E+00 0. -1.
         25    2    1    2    0    0 -0.15771011719E+03 -0.10121385522E+03 -0.14300079391E+03  0.26682645808E+03  0.12502162262E+03 0.  0.
          2    1    1    2  501    0  0.12822796108E+03  0.14960256653E+03 -0.22835563692E+03  0.30161172859E+03  0.00000000000E+00 0. -1.
          1    1    1    2  502    0  0.29482156112E+02 -0.48388711302E+02  0.82464849405E+02  0.10005556605E+03  0.00000000000E+00 0. -1.
         22    1    3    3    0    0 -0.16725769539E+03 -0.11734928753E+03 -0.14037857339E+03  0.24789541306E+03  0.00000000000E+00 0. -1.
         22    1    3    3    0    0  0.95475781970E+01  0.16135432307E+02 -0.26222205155E+01  0.18931045021E+02  0.00000000000E+00 0. -1.
</event>
<event>
 7    1  0.5064652E-006  0.5559925E+02  0.7818608E-02  0.1443508E+00
          2   -1    0    0  502    0  0.00000000000E+00  0.00000000000E+00  0.41256285235E+03  0.41256285235E+03  0.00000000000E+00 0. -1.
          1   -1    0    0  501    0 -0.00000000000E+00 -0.00000000000E+00 -0.10101135254E+04  0.10101135254E+04  0.00000000000E+00 0. -1.
         25    2    1    2    0    0 -0.83626512785E+02  0.49859811983E+02 -0.64432789299E+00  0.15845735051E+03  0.12501568814E+03 0.  0.
          2    1    1    2  501    0  0.39460990731E+02 -0.38588895435E+02 -0.92818237031E+03  0.92982191047E+03  0.00000000000E+00 0. -1.
          1    1    1    2  502    0  0.44165522054E+02 -0.11270916547E+02  0.33127602513E+03  0.33439711680E+03  0.00000000000E+00 0. -1.
         22    1    3    3    0    0 -0.70161441936E+02  0.11973859688E+02  0.54899019165E+02  0.89888283750E+02  0.00000000000E+00 0. -1.
         22    1    3    3    0    0 -0.13465070850E+02  0.37885952295E+02 -0.55543347058E+02  0.68569066762E+02  0.00000000000E+00 0. -1.
</event>
<event>
 7    1  0.5064652E-006  0.3507779E+02  0.7818608E-02  0.1638987E+00
          2   -1    0    0  502    0  0.00000000000E+00  0.00000000000E+00  0.18273368775E+04  0.18273368775E+04  0.00000000000E+00 0. -1.
          1   -1    0    0  501    0 -0.00000000000E+00 -0.00000000000E+00 -0.28269684233E+02  0.28269684233E+02  0.00000000000E+00 0. -1.
         25    2    1    2    0    0 -0.46491294335E+02  0.16304333887E+02  0.89234711070E+03  0.90240539936E+03  0.12499946832E+03 0.  0.
          2    1    1    2  501    0  0.27128044475E+02 -0.21973646138E+02 -0.99562035808E+01  0.36302863680E+02  0.00000000000E+00 0. -1.
          1    1    1    2  502    0  0.19363249860E+02  0.56693122514E+01  0.91667628614E+03  0.91689829868E+03  0.00000000000E+00 0. -1.
         22    1    3    3    0    0 -0.85318009652E+02 -0.12200035652E+02  0.57646668092E+03  0.58287377523E+03  0.00000000000E+00 0. -1.
         22    1    3    3    0    0  0.38826715317E+02  0.28504369539E+02  0.31588042978E+03  0.31953162413E+03  0.00000000000E+00 0. -1.
</event>
<event>
 7    1  0.5064652E-006  0.9015579E+02  0.7818608E-02  0.1382284E+00
          2   -1    0    0  502    0  0.00000000000E+00  0.00000000000E+00  0.12743742863E+04  0.12743742863E+04  0.00000000000E+00 0. -1.
          1   -1    0    0  501    0 -0.00000000000E+00 -0.00000000000E+00 -0.73040986442E+02  0.73040986442E+02  0.00000000000E+00 0. -1.
         25    2    1    2    0    0 -0.84591801422E+02  0.10308606025E+03  0.17395667246E+03  0.25232651445E+03  0.12500094926E+03 0.  0.
          2    1    1    2  501    0  0.28964421278E+02 -0.34757503500E+02 -0.16006544220E+02  0.47991991076E+02  0.00000000000E+00 0. -1.
          1    1    1    2  502    0  0.55627380144E+02 -0.68328556754E+02  0.10433831717E+04  0.10470967673E+04  0.00000000000E+00 0. -1.
         22    1    3    3    0    0  0.12011313885E+02  0.77987145252E+01 -0.14317891875E+02  0.20250768806E+02  0.00000000000E+00 0. -1.
         22    1    3    3    0    0 -0.96603115307E+02  0.95287345729E+02  0.18827456433E+03  0.23207574565E+03  0.00000000000E+00 0. -1.
</event>
<event>
 7    1  0.5064652E-006  0.5130603E+02  0.7818608E-02  0.1535415E+00
          2   -1    0    0  502    0  0.00000000000E+00  0.00000000000E+00  0.20587158974E+04  0.20587158974E+04  0.00000000000E+00 0. -1.
          1   -1    0    0  501    0 -0.00000000000E+00 -0.00000000000E+00 -0.10161088538E+03  0.10161088538E+03  0.00000000000E+00 0. -1.
         25    2    1    2    0    0  0.74207150108E+02  0.20629069825E+02  0.47219244121E+02  0.15423089888E+03  0.12500101402E+03 0.  0.
          2    1    1    2  501    0 -0.25550502948E+02 -0.48681251232E+01 -0.44229943992E+02  0.51310961681E+02  0.00000000000E+00 0. -1.
          1    1    1    2  502    0 -0.48656647160E+02 -0.15760944702E+02  0.19541157118E+04  0.19547849222E+04  0.00000000000E+00 0. -1.
         22    1    3    3    0    0  0.70235169931E+02  0.57381344543E+02  0.66571944860E+02  0.11250520716E+03  0.00000000000E+00 0.  1.
         22    1    3    3    0    0  0.39719801769E+01 -0.36752274718E+02 -0.19352700739E+02  0.41725691718E+02  0.00000000000E+00 0.  1.
</event>
<event>
 7    1  0.5064652E-006  0.5052840E+02  0.7818608E-02  0.1513744E+00
          2   -1    0    0  502    0  0.00000000000E+00  0.00000000000E+00  0.18872685844E+03  0.18872685844E+03  0.00000000000E+00 0. -1.
          1   -1    0    0  501    0 -0.00000000000E+00 -0.00000000000E+00 -0.14670603039E+03  0.14670603039E+03  0.00000000000E+00 0. -1.
         25    2    1    2    0    0  0.55622562088E+02 -0.15514220978E+02  0.63266717025E+02  0.15154284175E+03  0.12501197917E+03 0.  0.
          2    1    1    2  501    0 -0.48563440871E+02 -0.14159106521E+02 -0.93030495168E+02  0.10589410332E+03  0.00000000000E+00 0. -1.
          1    1    1    2  502    0 -0.70591212176E+01  0.29673327499E+02  0.71784606187E+02  0.77995943758E+02  0.00000000000E+00 0. -1.
         22    1    3    3    0    0 -0.13258826787E+01 -0.51217946944E+02  0.66857754271E+02  0.84231795423E+02  0.00000000000E+00 0.  1.
         22    1    3    3    0    0  0.56948444767E+02  0.35703725966E+02 -0.35910372461E+01  0.67311046328E+02  0.00000000000E+00 0.  1.
</event>
<event>
 7    1  0.5064652E-006  0.8952799E+02  0.7818608E-02  0.1442519E+00
          2   -1    0    0  502    0  0.00000000000E+00  0.00000000000E+00  0.94104111363E+03  0.94104111363E+03  0.00000000000E+00 0. -1.
          1   -1    0    0  501    0 -0.00000000000E+00 -0.00000000000E+00 -0.52326777507E+03  0.52326777507E+03  0.00000000000E+00 0. -1.
         25    2    1    2    0    0 -0.72789822667E+02  0.10773104734E+02  0.26324497749E+03  0.30057440617E+03  0.12503054588E+03 0.  0.
          2    1    1    2  501    0 -0.19333344663E+02 -0.20961616538E+02 -0.50093730116E+03  0.50174829076E+03  0.00000000000E+00 0. -1.
          1    1    1    2  502    0  0.92123167330E+02  0.10188511804E+02  0.65546566223E+03  0.66198619177E+03  0.00000000000E+00 0. -1.
         22    1    3    3    0    0 -0.69618273770E+02  0.45574056846E+01  0.27673093122E+03  0.28539005288E+03  0.00000000000E+00 0. -1.
         22    1    3    3    0    0 -0.31715488967E+01  0.62156990493E+01 -0.13485953727E+02  0.15184353295E+02  0.00000000000E+00 0. -1.
</event>
<event>
 7    1  0.5064652E-006  0.8501122E+02  0.7818608E-02  0.1468912E+00
          2   -1    0    0  502    0  0.00000000000E+00  0.00000000000E+00  0.11365257119E+04  0.11365257119E+04  0.00000000000E+00 0. -1.
          1   -1    0    0  501    0 -0.00000000000E+00 -0.00000000000E+00 -0.40212501918E+02  0.40212501918E+02  0.00000000000E+00 0. -1.
         25    2    1    2    0    0  0.42509907070E+02 -0.94576341411E+02  0.33285606021E+03  0.37036463013E+03  0.12500010352E+03 0.  0.
          2    1    1    2  501    0 -0.19842860453E+02  0.14814245913E+02 -0.11280395694E+02  0.27211180055E+02  0.00000000000E+00 0. -1.
          1    1    1    2  502    0 -0.22667046617E+02  0.79762095498E+02  0.77473754551E+03  0.77916240368E+03  0.00000000000E+00 0. -1.
         22    1    3    3    0    0 -0.75819219324E+01  0.21490197487E+02  0.12551358986E+02  0.26016355253E+02  0.00000000000E+00 0. -1.
         22    1    3    3    0    0  0.50091829003E+02 -0.11606653890E+03  0.32030470123E+03  0.34434827488E+03  0.00000000000E+00 0. -1.
</event>
<event>
 7    1  0.7324410E-006  0.5896782E+02  0.7818608E-02  0.1429582E+00
          2   -1    0    0  502    0  0.00000000000E+00  0.00000000000E+00  0.24650722200E+04  0.24650722200E+04  0.00000000000E+00 0. -1.
          1   -1    0    0  501    0 -0.00000000000E+00 -0.00000000000E+00 -0.49446095715E+03  0.49446095715E+03  0.00000000000E+00 0. -1.
         25    2    1    2    0    0 -0.33274937299E+02  0.34471309159E+02 -0.18102094411E+03  0.22514237455E+03  0.12500005601E+03 0.  0.
          2    1    1    2  501    0  0.62890330801E+02  0.29409740436E+01 -0.28774233080E+03  0.29454964262E+03  0.00000000000E+00 0. -1.
          1    1    1    2  502    0 -0.29615393503E+02 -0.37412283202E+02  0.24393745377E+04  0.24398411599E+04  0.00000000000E+00 0. -1.
         22    1    3    3    0    0 -0.63373978855E+02  0.19459096413E+02 -0.34351290644E+02  0.74665445810E+02  0.00000000000E+00 0. -1.
         22    1    3    3    0    0  0.30099041557E+02  0.15012212746E+02 -0.14666965347E+03  0.15047692874E+03  0.00000000000E+00 0. -1.
</event>
<event>
 7    1  0.5064652E-006  0.1570929E+03  0.7818608E-02  0.1364586E+00
          2   -1    0    0  502    0  0.00000000000E+00  0.00000000000E+00  0.30651578178E+03  0.30651578178E+03  0.00000000000E+00 0. -1.
          1   -1    0    0  501    0 -0.00000000000E+00 -0.00000000000E+00 -0.42887684222E+03  0.42887684222E+03  0.00000000000E+00 0. -1.
         25    2    1    2    0    0 -0.56074045338E+02  0.11989791534E+03 -0.67473914757E+02  0.19415636183E+03  0.12499661997E+03 0.  0.
          2    1    1    2  501    0 -0.15848960106E+02  0.25519018216E+02 -0.27007824402E+03  0.27174375378E+03  0.00000000000E+00 0. -1.
          1    1    1    2  502    0  0.71923005445E+02 -0.14541693355E+03  0.21519109833E+03  0.26949250839E+03  0.00000000000E+00 0. -1.
         22    1    3    3    0    0 -0.36472946092E+02 -0.15468843090E+02 -0.36600886696E+02  0.53936868746E+02  0.00000000000E+00 0.  1.
         22    1    3    3    0    0 -0.19601099247E+02  0.13536675843E+03 -0.30873028061E+02  0.14021949308E+03  0.00000000000E+00 0.  1.
</event>
<event>
 7    1  0.5064652E-006  0.5323487E+02  0.7818608E-02  0.1531954E+00
          2   -1    0    0  502    0  0.00000000000E+00  0.00000000000E+00  0.28734768880E+04  0.28734768880E+04  0.00000000000E+00 0. -1.
          1   -1    0    0  501    0 -0.00000000000E+00 -0.00000000000E+00 -0.85812883431E+01  0.85812883431E+01  0.00000000000E+00 0. -1.
         25    2    1    2    0    0  0.21223158044E+02 -0.32860286121E+02  0.14153991155E+04  0.14214477425E+04  0.12501522949E+03 0.  0.
          2    1    1    2  501    0 -0.11878547833E+02 -0.22726686555E+02  0.27891827505E+02  0.37888734763E+02  0.00000000000E+00 0. -1.
          1    1    1    2  502    0 -0.93446102109E+01  0.55586972676E+02  0.14216046567E+04  0.14227216991E+04  0.00000000000E+00 0. -1.
         22    1    3    3    0    0 -0.45185074439E+02 -0.16724121503E+02  0.28996756155E+03  0.29394314746E+03  0.00000000000E+00 0. -1.
         22    1    3    3    0    0  0.66408232482E+02 -0.16136164618E+02  0.11254315539E+04  0.11275045950E+04  0.00000000000E+00 0. -1.
</event>
<event>
 7    1  0.5064652E-006  0.3872727E+02  0.7818608E-02  0.1548117E+00
          2   -1    0    0  502    0  0.00000000000E+00  0.00000000000E+00  0.58059181069E+03  0.58059181069E+03  0.00000000000E+00 0. -1.
          1   -1    0    0  501    0 -0.00000000000E+00 -0.00000000000E+00 -0.61884897905E+03  0.61884897905E+03  0.00000000000E+00 0. -1.
         25    2    1    2    0    0 -0.70935047312E+01 -0.10319687828E+02 -0.38677190662E+03  0.40666344368E+03  0.12500333959E+03 0.  0.
          2    1    1    2  501    0 -0.31324955463E+02  0.50537638783E+01 -0.22033473156E+03  0.22260769819E+03  0.00000000000E+00 0. -1.
          1    1    1    2  502    0  0.38418460194E+02  0.52659239495E+01  0.56884946982E+03  0.57016964787E+03  0.00000000000E+00 0. -1.
         22    1    3    3    0    0 -0.42747807289E+02  0.38988605207E+02 -0.25558337244E+03  0.26205027501E+03  0.00000000000E+00 0. -1.
         22    1    3    3    0    0  0.35654302558E+02 -0.49308293035E+02 -0.13118853418E+03  0.14461316867E+03  0.00000000000E+00 0. -1.
</event>
<event>
 7    1  0.5064652E-006  0.1183022E+03  0.7818608E-02  0.1301459E+00
          2   -1    0    0  502    0  0.00000000000E+00  0.00000000000E+00  0.12792687841E+04  0.12792687841E+04  0.00000000000E+00 0. -1.
          1   -1    0    0  501    0 -0.00000000000E+00 -0.00000000000E+00 -0.56732557195E+03  0.56732557195E+03  0.00000000000E+00 0. -1.
         25    2    1    2    0    0  0.30487846266E+02  0.15576715206E+03  0.27066794536E+02  0.20383970271E+03  0.12500039442E+03 0.  0.
          2    1    1    2  501    0 -0.65897482493E+02 -0.96138170848E+02 -0.47079301652E+03  0.48500627882E+03  0.00000000000E+00 0. -1.
          1    1    1    2  502    0  0.35409636227E+02 -0.59628981209E+02  0.11556694342E+04  0.11577483746E+04  0.00000000000E+00 0. -1.
         22    1    3    3    0    0 -0.31752302497E+02  0.10721312904E+03 -0.17518197458E+02  0.11318017050E+03  0.00000000000E+00 0. -1.
         22    1    3    3    0    0  0.62240148763E+02  0.48554023016E+02  0.44584991994E+02  0.90659532208E+02  0.00000000000E+00 0. -1.
</event>
<event>
 7    1  0.5064652E-006  0.2413897E+02  0.7818608E-02  0.1686268E+00
          2   -1    0    0  502    0  0.00000000000E+00  0.00000000000E+00  0.36076358669E+03  0.36076358669E+03  0.00000000000E+00 0. -1.
          1   -1    0    0  501    0 -0.00000000000E+00 -0.00000000000E+00 -0.47932284451E+02  0.47932284451E+02  0.00000000000E+00 0. -1.
         25    2    1    2    0    0  0.11798750171E+02  0.15733043961E+02  0.53412780082E+02  0.13735904521E+03  0.12501137167E+03 0.  0.
          2    1    1    2  501    0  0.75654882748E+01 -0.27272654601E+02  0.31663332435E+02  0.42468822950E+02  0.00000000000E+00 0. -1.
          1    1    1    2  502    0 -0.19364238446E+02  0.11539610640E+02  0.22775518972E+03  0.22886800298E+03  0.00000000000E+00 0. -1.
         22    1    3    3    0    0  0.23392045950E+02  0.65909890724E+02  0.11323305020E+02  0.70848562057E+02  0.00000000000E+00 0.  1.
         22    1    3    3    0    0 -0.11593295779E+02 -0.50176846762E+02  0.42089475062E+02  0.66510483151E+02  0.00000000000E+00 0.  1.
</event>
<event>
 7    1  0.5064652E-006  0.1145747E+03  0.7818608E-02  0.1309556E+00
          2   -1    0    0  502    0  0.00000000000E+00  0.00000000000E+00  0.79770718910E+03  0.79770718910E+03  0.00000000000E+00 0. -1.
          1   -1    0    0  501    0 -0.00000000000E+00 -0.00000000000E+00 -0.97059807688E+03  0.97059807688E+03  0.00000000000E+00 0. -1.
         25    2    1    2    0    0  0.12705497312E+03  0.43290736167E+02 -0.69853177294E+02  0.19626430809E+03  0.12499263265E+03 0.  0.
          2    1    1    2  501    0 -0.75797842193E+02 -0.85657165381E+02 -0.83211400389E+03  0.83993819912E+03  0.00000000000E+00 0. -1.
          1    1    1    2  502    0 -0.51257130931E+02  0.42366429214E+02  0.72907629341E+03  0.73210275878E+03  0.00000000000E+00 0. -1.
         22    1    3    3    0    0  0.33472244795E+02  0.88137410295E+01  0.36611866967E+02  0.50383548955E+02  0.00000000000E+00 0.  1.
         22    1    3    3    0    0  0.93582728329E+02  0.34476995138E+02 -0.10646504426E+03  0.14588075913E+03  0.00000000000E+00 0.  1.
</event>
<event>
 7    1  0.5064652E-006  0.6406466E+02  0.7818608E-02  0.1508369E+00
          2   -1    0    0  502    0  0.00000000000E+00  0.00000000000E+00  0.87889519272E+03  0.87889519272E+03  0.00000000000E+00 0. -1.
          1   -1    0    0  501    0 -0.00000000000E+00 -0.00000000000E+00 -0.24186582410E+03  0.24186582410E+03  0.00000000000E+00 0. -1.
         25    2    1    2    0    0  0.72867935049E+02 -0.26483633563E+02  0.11540379287E+02  0.14754055170E+03  0.12499566087E+03 0.  0.
          2    1    1    2  501    0 -0.90760489267E+01  0.23238518661E+02 -0.17168671553E+03  0.17348986052E+03  0.00000000000E+00 0. -1.
          1    1    1    2  502    0 -0.63791886122E+02  0.32451149012E+01  0.79717570486E+03  0.79973060460E+03  0.00000000000E+00 0. -1.
         22    1    3    3    0    0  0.38659357388E+02 -0.76620007443E+02  0.34269953493E+00  0.85821261336E+02  0.00000000000E+00 0. -1.
         22    1    3    3    0    0  0.34208577660E+02  0.50136373880E+02  0.11197679752E+02  0.61719290366E+02  0.00000000000E+00 0. -1.
</event>
<event>
 7    1  0.5064652E-006  0.4415476E+02  0.7818608E-02  0.1580952E+00
          2   -1    0    0  502    0  0.00000000000E+00  0.00000000000E+00  0.56340155498E+03  0.56340155498E+03  0.00000000000E+00 0. -1.
          1   -1    0    0  501    0 -0.00000000000E+00 -0.00000000000E+00 -0.14822157548E+04  0.14822157548E+04  0.00000000000E+00 0. -1.
         25    2    1    2    0    0  0.61864367025E+02  0.24987702403E+02 -0.45612946075E+03  0.47761640771E+03  0.12494703983E+03 0.  0.
          2    1    1    2  501    0 -0.20677017659E+02 -0.91924372912E+01 -0.10143361939E+04  0.10145885641E+04  0.00000000000E+00 0. -1.
          1    1    1    2  502    0 -0.41187349366E+02 -0.15795265112E+02  0.55165145491E+03  0.55341233800E+03  0.00000000000E+00 0. -1.
         22    1    3    3    0    0 -0.19934542421E+02  0.50318100201E+02 -0.14009289126E+03  0.15018427139E+03  0.00000000000E+00 0.  1.
         22    1    3    3    0    0  0.81798909446E+02 -0.25330397797E+02 -0.31603656949E+03  0.32743213632E+03  0.00000000000E+00 0.  1.
</event>
<event>
 7    1  0.5064652E-006  0.9463834E+02  0.7818608E-02  0.1365147E+00
          2   -1    0    0  502    0  0.00000000000E+00  0.00000000000E+00  0.38683879526E+03  0.38683879526E+03  0.00000000000E+00 0. -1.
          1   -1    0    0  501    0 -0.00000000000E+00 -0.00000000000E+00 -0.66467107975E+03  0.66467107975E+03  0.00000000000E+00 0. -1.
         25    2    1    2    0    0  0.88253013676E+02 -0.30274750594E+02 -0.95630954319E+02  0.18295955008E+03  0.12499505028E+03 0.  0.
          2    1    1    2  501    0 -0.26274052542E+02 -0.42106490753E+02 -0.51755068465E+03  0.51992498841E+03  0.00000000000E+00 0. -1.
          1    1    1    2  502    0 -0.61978961134E+02  0.72381241347E+02  0.33534935447E+03  0.34862533653E+03  0.00000000000E+00 0. -1.
         22    1    3    3    0    0  0.75765003097E+02 -0.70092754923E+02 -0.34274639191E+02  0.10875698083E+03  0.00000000000E+00 0.  1.
         22    1    3    3    0    0  0.12488010579E+02  0.39818004329E+02 -0.61356315128E+02  0.74202569248E+02  0.00000000000E+00 0.  1.
</event>
<event>
 7    1  0.5064652E-006  0.4771166E+02  0.7818608E-02  0.1475260E+00
          2   -1    0    0  502    0  0.00000000000E+00  0.00000000000E+00  0.68274930910E+03  0.68274930910E+03  0.00000000000E+00 0. -1.
          1   -1    0    0  501    0 -0.00000000000E+00 -0.00000000000E+00 -0.82424103441E+03  0.82424103441E+03  0.00000000000E+00 0. -1.
         25    2    1    2    0    0  0.82391408005E+02 -0.17166855232E+02  0.31976634004E+02  0.15405277586E+03  0.12500683020E+03 0.  0.
          2    1    1    2  501    0 -0.40817799403E+02  0.24210580886E+02 -0.76170980744E+03  0.76318678953E+03  0.00000000000E+00 0. -1.
          1    1    1    2  502    0 -0.41573608602E+02 -0.70437256534E+01  0.58824144812E+03  0.58975077812E+03  0.00000000000E+00 0. -1.
         22    1    3    3    0    0 -0.51260247407E+01 -0.21689095199E+02  0.58411146394E+02  0.62518437306E+02  0.00000000000E+00 0.  1.
         22    1    3    3    0    0  0.87517432746E+02  0.45222399668E+01 -0.26434512390E+02  0.91534338551E+02  0.00000000000E+00 0.  1.
</event>
<event>
 7    1  0.7631589E-006  0.7186891E+02  0.7818608E-02  0.1423598E+00
          2   -1    0    0  502    0  0.00000000000E+00  0.00000000000E+00  0.63835900805E+03  0.63835900805E+03  0.00000000000E+00 0. -1.
          1   -1    0    0  501    0 -0.00000000000E+00 -0.00000000000E+00 -0.10626216849E+04  0.10626216849E+04  0.00000000000E+00 0. -1.
         25    2    1    2    0    0 -0.77133763147E+02 -0.34954525521E+02 -0.53571831343E+03  0.55659296006E+03  0.12502070056E+03 0.  0.
          2    1    1    2  501    0  0.34155683327E+02 -0.22636859835E+02 -0.51359142467E+03  0.51522343660E+03  0.00000000000E+00 0. -1.
          1    1    1    2  502    0  0.42978079820E+02  0.57591385356E+02  0.62504706123E+03  0.62916429632E+03  0.00000000000E+00 0. -1.
         22    1    3    3    0    0 -0.42038028504E+02 -0.61975701190E+02 -0.14334971154E+03  0.16173225769E+03  0.00000000000E+00 0. -1.
         22    1    3    3    0    0 -0.35095734644E+02  0.27021175669E+02 -0.39236860189E+03  0.39486070237E+03  0.00000000000E+00 0. -1.
</event>
<event>
 7    1  0.5064652E-006  0.3910929E+02  0.7818608E-02  0.1592111E+00
          2   -1    0    0  502    0  0.00000000000E+00  0.00000000000E+00  0.55560296373E+02  0.55560296373E+02  0.00000000000E+00 0. -1.
          1   -1    0    0  501    0 -0.00000000000E+00 -0.00000000000E+00 -0.14097940046E+04  0.14097940046E+04  0.00000000000E+00 0. -1.
         25    2    1    2    0    0  0.82633176943E+00 -0.52827643802E+02 -0.88980637137E+03  0.90009510580E+03  0.12499751272E+03 0.  0.
          2    1    1    2  501    0  0.16067814180E+02  0.17639516637E+02 -0.50696515012E+03  0.50752634477E+03  0.00000000000E+00 0. -1.
          1    1    1    2  502    0 -0.16894145949E+02  0.35188127165E+02  0.42537813249E+02  0.57732850412E+02  0.00000000000E+00 0. -1.
         22    1    3    3    0    0 -0.10081864771E+02 -0.89029577143E+02 -0.46109004486E+03  0.46971474223E+03  0.00000000000E+00 0.  1.
         22    1    3    3    0    0  0.10908196541E+02  0.36201933342E+02 -0.42871632651E+03  0.43038036357E+03  0.00000000000E+00 0.  1.
</event>
<event>
 7    1  0.5064652E-006  0.5365479E+02  0.7818608E-02  0.1458592E+00
          2   -1    0    0  502    0  0.00000000000E+00  0.00000000000E+00  0.20930075955E+02  0.20930075955E+02  0.00000000000E+00 0. -1.
          1   -1    0    0  501    0 -0.00000000000E+00 -0.00000000000E+00 -0.13804785875E+04  0.13804785875E+04  0.00000000000E+00 0. -1.
         25    2    1    2    0    0  0.21042327038E+02  0.84956676574E+01 -0.67849928300E+03  0.69029090323E+03  0.12500119263E+03 0.  0.
          2    1    1    2  501    0  0.32446146466E+02 -0.27095755380E+02 -0.63946199124E+03  0.64085768359E+03  0.00000000000E+00 0. -1.
          1    1    1    2  502    0 -0.53488473504E+02  0.18600087723E+02 -0.41587237301E+02  0.70260076626E+02  0.00000000000E+00 0. -1.
         22    1    3    3    0    0  0.68301086923E+02 -0.57885616368E+01 -0.51376858168E+03  0.51832104090E+03  0.00000000000E+00 0. -1.
         22    1    3    3    0    0 -0.47258759885E+02  0.14284229294E+02 -0.16473070132E+03  0.17196986233E+03  0.00000000000E+00 0. -1.
</event>
<event>
 7    1  0.5064652E-006  0.2107101E+03  0.7818608E-02  0.1285671E+00
          2   -1    0    0  502    0  0.00000000000E+00  0.00000000000E+00  0.14200378054E+04  0.14200378054E+04  0.00000000000E+00 0. -1.
          1   -1    0    0  501    0 -0.00000000000E+00 -0.00000000000E+00 -0.16593707074E+03  0.16593707074E+03  0.00000000000E+00 0. -1.
         25    2    1    2    0    0  0.22826530463E+03  0.47758740287E+02  0.10064452340E+03  0.28307075857E+03  0.12495514273E+03 0.  0.
          2    1    1    2  501    0 -0.19542881371E+03 -0.16838541316E+02  0.55268363756E+02  0.20379045545E+03  0.00000000000E+00 0. -1.
          1    1    1    2  502    0 -0.32836490919E+02 -0.30920198971E+02  0.10981878475E+04  0.10991136621E+04  0.00000000000E+00 0. -1.
         22    1    3    3    0    0  0.17479286276E+03  0.44169798484E+02  0.12971391616E+03  0.22210181452E+03  0.00000000000E+00 0.  1.
         22    1    3    3    0    0  0.53472441872E+02  0.35889418026E+01 -0.29069392756E+02  0.60968944047E+02  0.00000000000E+00 0.  1.
</event>
<event>
 7    1  0.5064652E-006  0.4137318E+02  0.7818608E-02  0.1541588E+00
          2   -1    0    0  502    0  0.00000000000E+00  0.00000000000E+00  0.32878091099E+02  0.32878091099E+02  0.00000000000E+00 0. -1.
          1   -1    0    0  501    0 -0.00000000000E+00 -0.00000000000E+00 -0.19960323395E+04  0.19960323395E+04  0.00000000000E+00 0. -1.
         25    2    1    2    0    0  0.37900336669E+02  0.51598049674E+02 -0.36125734587E+03  0.38759634547E+03  0.12500105132E+03 0.  0.
          2    1    1    2  501    0 -0.91773476201E+01 -0.39985130071E+02 -0.16090045533E+04  0.16095274732E+04  0.00000000000E+00 0. -1.
          1    1    1    2  502    0 -0.28722989049E+02 -0.11612919602E+02  0.71076507527E+01  0.31786611974E+02  0.00000000000E+00 0. -1.
         22    1    3    3    0    0  0.63523232766E+02  0.62446237153E+02 -0.14955336400E+03  0.17407165858E+03  0.00000000000E+00 0.  1.
         22    1    3    3    0    0 -0.25622896097E+02 -0.10848187479E+02 -0.21170398187E+03  0.21352468690E+03  0.00000000000E+00 0.  1.
</event>
<event>
 7    1  0.5064652E-006  0.1247308E+03  0.7818608E-02  0.1341940E+00
          2   -1    0    0  502    0  0.00000000000E+00  0.00000000000E+00  0.96395923075E+02  0.96395923075E+02  0.00000000000E+00 0. -1.
          1   -1    0    0  501    0 -0.00000000000E+00 -0.00000000000E+00 -0.63743209510E+03  0.63743209510E+03  0.00000000000E+00 0. -1.
         25    2    1    2    0    0 -0.99240646473E+02  0.27413088497E+02 -0.11525217212E+03  0.19876616447E+03  0.12499896650E+03 0.  0.
          2    1    1    2  501    0 -0.21327575380E+02  0.40592859477E+02 -0.38918926440E+03  0.39188126931E+03  0.00000000000E+00 0. -1.
          1    1    1    2  502    0  0.12056822185E+03 -0.68005947974E+02 -0.36594735502E+02  0.14318058439E+03  0.00000000000E+00 0. -1.
         22    1    3    3    0    0 -0.82730944615E+02  0.73131640545E+02 -0.96569539187E+02  0.14669124699E+03  0.00000000000E+00 0. -1.
         22    1    3    3    0    0 -0.16509701858E+02 -0.45718552047E+02 -0.18682632934E+02  0.52074917476E+02  0.00000000000E+00 0. -1.
</event>
<event>
 7    1  0.5064652E-006  0.5056895E+02  0.7818608E-02  0.1570789E+00
          2   -1    0    0  502    0  0.00000000000E+00  0.00000000000E+00  0.27564008920E+04  0.27564008920E+04  0.00000000000E+00 0. -1.
          1   -1    0    0  501    0 -0.00000000000E+00 -0.00000000000E+00 -0.20553360273E+02  0.20553360273E+02  0.00000000000E+00 0. -1.
         25    2    1    2    0    0  0.31757213155E+02  0.95908071711E+01  0.46384191476E+03  0.48153481453E+03  0.12500380611E+03 0.  0.
          2    1    1    2  501    0  0.19395074549E+02 -0.81679501121E+01 -0.17228398182E+01  0.21115219696E+02  0.00000000000E+00 0. -1.
          1    1    1    2  502    0 -0.51152287704E+02 -0.14228570590E+01  0.22737284568E+04  0.22743042181E+04  0.00000000000E+00 0. -1.
         22    1    3    3    0    0  0.34846303982E+01  0.54910175385E+01 -0.71569414352E+01  0.96703533196E+01  0.00000000000E+00 0.  1.
         22    1    3    3    0    0  0.28272582757E+02  0.40997896326E+01  0.47099885620E+03  0.47186446121E+03  0.00000000000E+00 0.  1.
</event>
<event>
 7    1  0.5064652E-006  0.5601105E+02  0.7818608E-02  0.1457267E+00
          2   -1    0    0  502    0  0.00000000000E+00  0.00000000000E+00  0.41121505167E+03  0.41121505167E+03  0.00000000000E+00 0. -1.
          1   -1    0    0  501    0 -0.00000000000E+00 -0.00000000000E+00 -0.21485348191E+04  0.21485348191E+04  0.00000000000E+00 0. -1.
         25    2    1    2    0    0  0.67432038119E+02 -0.19616721797E+02  0.86241343336E+02  0.16731565348E+03  0.12500025224E+03 0.  0.
          2    1    1    2  501    0 -0.52837386621E+02 -0.18576144361E+02 -0.21061541520E+04  0.21068987101E+04  0.00000000000E+00 0. -1.
          1    1    1    2  502    0 -0.14594651498E+02  0.38192866158E+02  0.28259304127E+03  0.28553550716E+03  0.00000000000E+00 0. -1.
         22    1    3    3    0    0  0.78876599005E+01 -0.54068570431E+02 -0.28981025870E+01  0.54717679828E+02  0.00000000000E+00 0.  1.
         22    1    3    3    0    0  0.59544378219E+02  0.34451848633E+02  0.89139445923E+02  0.11259797365E+03  0.00000000000E+00 0.  1.
</event>
<event>
 7    1  0.5064652E-006  0.1590223E+03  0.7818608E-02  0.1316820E+00
          2   -1    0    0  502    0  0.00000000000E+00  0.00000000000E+00  0.33285650979E+03  0.33285650979E+03  0.00000000000E+00 0. -1.
          1   -1    0    0  501    0 -0.00000000000E+00 -0.00000000000E+00 -0.74401929502E+03  0.74401929502E+03  0.00000000000E+00 0. -1.
         25    2    1    2    0    0  0.12168734377E+03 -0.25274702980E+02 -0.54797019168E+03  0.57562294896E+03  0.12499531253E+03 0.  0.
          2    1    1    2  501    0  0.38652218269E+02  0.22790555849E+02 -0.15876397663E+03  0.16498304061E+03  0.00000000000E+00 0. -1.
          1    1    1    2  502    0 -0.16033956204E+03  0.24841471311E+01  0.29557138308E+03  0.33626981524E+03  0.00000000000E+00 0. -1.
         22    1    3    3    0    0  0.17990657829E+02  0.21813040027E+02 -0.31540276965E+03  0.31666761689E+03  0.00000000000E+00 0.  1.
         22    1    3    3    0    0  0.10369668594E+03 -0.47087743007E+02 -0.23256742203E+03  0.25895533207E+03  0.00000000000E+00 0.  1.
</event>
<event>
 7    1  0.5064652E-006  0.8753789E+02  0.7818608E-02  0.1387557E+00
          2   -1    0    0  502    0  0.00000000000E+00  0.00000000000E+00  0.93313134320E+03  0.93313134320E+03  0.00000000000E+00 0. -1.
          1   -1    0    0  501    0 -0.00000000000E+00 -0.00000000000E+00 -0.18744655761E+03  0.18744655761E+03  0.00000000000E+00 0. -1.
         25    2    1    2    0    0  0.47865318278E+02  0.18788134445E+02  0.18128322778E+03  0.22612399011E+03  0.12499747014E+03 0.  0.
          2    1    1    2  501    0  0.43963423239E+02 -0.77996311765E+01 -0.15900725994E+03  0.16515727517E+03  0.00000000000E+00 0. -1.
          1    1    1    2  502    0 -0.91828741517E+02 -0.10988503268E+02  0.72340881776E+03  0.72929663552E+03  0.00000000000E+00 0. -1.
         22    1    3    3    0    0 -0.29934720900E+02  0.22507200139E+01  0.12533353209E+03  0.12887842147E+03  0.00000000000E+00 0. -1.
         22    1    3    3    0    0  0.77800039179E+02  0.16537414431E+02  0.55949695688E+02  0.97245568639E+02  0.00000000000E+00 0. -1.
</event>
<event>
 7    1  0.5064652E-006  0.1689686E+03  0.7818608E-02  0.1259531E+00
          2   -1    0    0  502    0  0.00000000000E+00  0.00000000000E+00  0.33359137468E+03  0.33359137468E+03  0.00000000000E+00 0. -1.
          1   -1    0    0  501    0 -0.00000000000E+00 -0.00000000000E+00 -0.20596315455E+04  0.20596315455E+04  0.00000000000E+00 0. -1.
         25    2    1    2    0    0 -0.17257156309E+03  0.30666835508E+02  0.37955687814E+01  0.21531619715E+03  0.12500103690E+03 0.  0.
          2    1    1    2  501    0  0.70253471385E+01 -0.72003701257E+02 -0.19206026534E+04  0.19219647345E+04  0.00000000000E+00 0. -1.
          1    1    1    2  502    0  0.16554621595E+03  0.41336865749E+02  0.19076691379E+03  0.25594198851E+03  0.00000000000E+00 0. -1.
         22    1    3    3    0    0 -0.19052519232E+03  0.16230536539E+02 -0.31923829766E+01  0.19124191626E+03  0.00000000000E+00 0. -1.
         22    1    3    3    0    0  0.17953629233E+02  0.14436298970E+02  0.69879517580E+01  0.24074280890E+02  0.00000000000E+00 0. -1.
</event>
<event>
 7    1  0.5064652E-006  0.8026621E+02  0.7818608E-02  0.1460422E+00
          2   -1    0    0  502    0  0.00000000000E+00  0.00000000000E+00  0.70536798685E+03  0.70536798685E+03  0.00000000000E+00 0. -1.
          1   -1    0    0  501    0 -0.00000000000E+00 -0.00000000000E+00 -0.33099843040E+03  0.33099843040E+03  0.00000000000E+00 0. -1.
         25    2    1    2    0    0 -0.61488761289E+02  0.86363097952E+01 -0.16216391130E+02  0.14050975645E+03  0.12499826680E+03 0.  0.
          2    1    1    2  501    0  0.81788189264E+02  0.10480027547E+02 -0.24559361106E+03  0.25906632486E+03  0.00000000000E+00 0. -1.
          1    1    1    2  502    0 -0.20299427975E+02 -0.19116337343E+02  0.63617955864E+03  0.63679033595E+03  0.00000000000E+00 0. -1.
         22    1    3    3    0    0 -0.70060717355E+02  0.43971654482E+02 -0.44973420513E+02  0.94152106014E+02  0.00000000000E+00 0. -1.
         22    1    3    3    0    0  0.85719560663E+01 -0.35335344687E+02  0.28757029382E+02  0.46357650435E+02  0.00000000000E+00 0. -1.
</event>
<event>
 7    1  0.5064652E-006  0.7511924E+02  0.7818608E-02  0.1498866E+00
          2   -1    0    0  502    0  0.00000000000E+00  0.00000000000E+00  0.43996360106E+04  0.43996360106E+04  0.00000000000E+00 0. -1.
          1   -1    0    0  501    0 -0.00000000000E+00 -0.00000000000E+00 -0.14636703301E+03  0.14636703301E+03  0.00000000000E+00 0. -1.
         25    2    1    2    0    0 -0.42121444405E+01 -0.56931436185E+02  0.30706209696E+03  0.33640670600E+03  0.12499363929E+03 0.  0.
          2    1    1    2  501    0  0.13792658124E+02 -0.18035509283E+02 -0.13036324371E+03  0.13232570546E+03  0.00000000000E+00 0. -1.
          1    1    1    2  502    0 -0.95805136838E+01  0.74966945468E+02  0.40765701243E+04  0.40772706321E+04  0.00000000000E+00 0. -1.
         22    1    3    3    0    0 -0.17328067340E+02 -0.73224225919E+02  0.30637419916E+03  0.31547931643E+03  0.00000000000E+00 0.  1.
         22    1    3    3    0    0  0.13115922899E+02  0.16292789733E+02  0.68789779289E+00  0.20927389569E+02  0.00000000000E+00 0.  1.
</event>
<event>
 7    1  0.5064652E-006  0.8301999E+02  0.7818608E-02  0.1375103E+00
          2   -1    0    0  502    0  0.00000000000E+00  0.00000000000E+00  0.20023890584E+04  0.20023890584E+04  0.00000000000E+00 0. -1.
          1   -1    0    0  501    0 -0.00000000000E+00 -0.00000000000E+00 -0.80923635584E+02  0.80923635584E+02  0.00000000000E+00 0. -1.
         25    2    1    2    0    0  0.24094257237E+02 -0.50263591974E+02  0.33645515077E+03  0.36322620434E+03  0.12499698048E+03 0.  0.
          2    1    1    2  501    0  0.15074619016E+02  0.84621403790E+02 -0.39602696357E+02  0.94638256940E+02  0.00000000000E+00 0. -1.
          1    1    1    2  502    0 -0.39168876253E+02 -0.34357811816E+02  0.16246129684E+04  0.16254482328E+04  0.00000000000E+00 0. -1.
         22    1    3    3    0    0 -0.19016134726E+02 -0.80821326654E+02  0.22634845445E+03  0.24109608676E+03  0.00000000000E+00 0.  1.
         22    1    3    3    0    0  0.43110391963E+02  0.30557734680E+02  0.11010669632E+03  0.12213011758E+03  0.00000000000E+00 0.  1.
</event>
<event>
 7    1  0.5064652E-006  0.1037102E+03  0.7818608E-02  0.1280670E+00
          2   -1    0    0  502    0  0.00000000000E+00  0.00000000000E+00  0.48401323401E+04  0.48401323401E+04  0.00000000000E+00 0. -1.
          1   -1    0    0  501    0 -0.00000000000E+00 -0.00000000000E+00 -0.15681962508E+02  0.15681962508E+02  0.00000000000E+00 0. -1.
         25    2    1    2    0    0  0.88743806487E+02  0.10190682779E+03  0.11588967641E+04  0.11734253996E+04  0.12499997548E+03 0.  0.
          2    1    1    2  501    0  0.73308211914E+01 -0.10290903949E+03  0.33676447747E+03  0.35221346459E+03  0.00000000000E+00 0. -1.
          1    1    1    2  502    0 -0.96074627679E+02  0.10022117076E+01  0.33287891360E+04  0.33301754384E+04  0.00000000000E+00 0. -1.
         22    1    3    3    0    0  0.95006849080E+02  0.25463545379E+02  0.82444301519E+03  0.83028969571E+03  0.00000000000E+00 0. -1.
         22    1    3    3    0    0 -0.62630425931E+01  0.76443282406E+02  0.33445374888E+03  0.34313570387E+03  0.00000000000E+00 0. -1.
</event>
<event>
 7    1  0.5064652E-006  0.1322708E+03  0.7818608E-02  0.1323166E+00
          2   -1    0    0  502    0  0.00000000000E+00  0.00000000000E+00  0.12961707740E+04  0.12961707740E+04  0.00000000000E+00 0. -1.
          1   -1    0    0  501    0 -0.00000000000E+00 -0.00000000000E+00 -0.99053396718E+02  0.99053396718E+02  0.00000000000E+00 0. -1.
         25    2    1    2    0    0  0.15821668155E+03  0.20789649824E+02  0.65463109521E+02  0.21300655283E+03  0.12498657919E+03 0.  0.
          2    1    1    2  501    0 -0.10734669707E+03 -0.17557672198E+02  0.95314815684E+02  0.14462537576E+03  0.00000000000E+00 0. -1.
          1    1    1    2  502    0 -0.50869984484E+02 -0.32319776262E+01  0.10363394521E+04  0.10375922422E+04  0.00000000000E+00 0. -1.
         22    1    3    3    0    0  0.10989190613E+03  0.28312323396E+02 -0.19334970810E+02  0.11511585375E+03  0.00000000000E+00 0.  1.
         22    1    3    3    0    0  0.48324775424E+02 -0.75226735722E+01  0.84798080331E+02  0.97890699074E+02  0.00000000000E+00 0.  1.
</event>
<event>
 7    1  0.5064652E-006  0.1524254E+03  0.7818608E-02  0.1375629E+00
          2   -1    0    0  502    0  0.00000000000E+00  0.00000000000E+00  0.13780168382E+04  0.13780168382E+04  0.00000000000E+00 0. -1.
          1   -1    0    0  501    0 -0.00000000000E+00 -0.00000000000E+00 -0.87959209478E+03  0.87959209478E+03  0.00000000000E+00 0. -1.
         25    2    1    2    0    0 -0.13412585588E+03  0.99737260710E+02  0.59965428902E+03  0.63493848696E+03  0.12499739796E+03 0.  0.
          2    1    1    2  501    0  0.13446539994E+03 -0.71483522420E+02 -0.85495693759E+03  0.86841361279E+03  0.00000000000E+00 0. -1.
          1    1    1    2  502    0 -0.33954405771E+00 -0.28253738290E+02  0.75372739195E+03  0.75425683318E+03  0.00000000000E+00 0. -1.
         22    1    3    3    0    0 -0.85761000359E+02  0.78260732002E+02  0.55084390727E+03  0.56294644642E+03  0.00000000000E+00 0. -1.
         22    1    3    3    0    0 -0.48364855526E+02  0.21476528709E+02  0.48810381742E+02  0.71992040541E+02  0.00000000000E+00 0. -1.
</event>
<event>
 7    1  0.5064652E-006  0.6849490E+02  0.7818608E-02  0.1461077E+00
          2   -1    0    0  502    0  0.00000000000E+00  0.00000000000E+00  0.78350823204E+03  0.78350823204E+03  0.00000000000E+00 0. -1.
          1   -1    0    0  501    0 -0.00000000000E+00 -0.00000000000E+00 -0.11670199685E+04  0.11670199685E+04  0.00000000000E+00 0. -1.
         25    2    1    2    0    0 -0.50389720227E+02  0.62521115888E+02  0.30108203578E+03  0.33574374459E+03  0.12500182369E+03 0.  0.
          2    1    1    2  501    0  0.18061337583E+02 -0.66053689620E+02 -0.11480991823E+04  0.11501395716E+04  0.00000000000E+00 0. -1.
          1    1    1    2  502    0  0.32328382645E+02  0.35325737320E+01  0.46350541004E+03  0.46464488434E+03  0.00000000000E+00 0. -1.
         22    1    3    3    0    0 -0.40164175338E+02  0.24296533225E+01  0.14530661503E+02  0.42780887316E+02  0.00000000000E+00 0. -1.
         22    1    3    3    0    0 -0.10225544889E+02  0.60091462566E+02  0.28655137428E+03  0.29296285727E+03  0.00000000000E+00 0. -1.
</event>
<event>
 7    1  0.5064652E-006  0.7504106E+02  0.7818608E-02  0.1393361E+00
          2   -1    0    0  502    0  0.00000000000E+00  0.00000000000E+00  0.20038423570E+04  0.20038423570E+04  0.00000000000E+00 0. -1.
          1   -1    0    0  501    0 -0.00000000000E+00 -0.00000000000E+00 -0.38071087817E+03  0.38071087817E+03  0.00000000000E+00 0. -1.
         25    2    1    2    0    0 -0.88750411176E+02 -0.68864035795E+02  0.99116322365E+02  0.19511431063E+03  0.12500663159E+03 0.  0.
          2    1    1    2  501    0  0.17621787205E+02  0.46486005507E+02 -0.33010123441E+03  0.33382375747E+03  0.00000000000E+00 0. -1.
          1    1    1    2  502    0  0.71128623971E+02  0.22378030289E+02  0.18541163909E+04  0.18556151671E+04  0.00000000000E+00 0. -1.
         22    1    3    3    0    0  0.44889041274E+01  0.97962271256E+01 -0.21196213672E+02  0.23778052910E+02  0.00000000000E+00 0. -1.
         22    1    3    3    0    0 -0.93239315304E+02 -0.78660262921E+02  0.12031253604E+03  0.17133625772E+03  0.00000000000E+00 0. -1.
</event>
<event>
 7    1  0.5064652E-006  0.7373197E+02  0.7818608E-02  0.1473307E+00
          2   -1    0    0  502    0  0.00000000000E+00  0.00000000000E+00  0.17627420830E+04  0.17627420830E+04  0.00000000000E+00 0. -1.
          1   -1    0    0  501    0 -0.00000000000E+00 -0.00000000000E+00 -0.86987721640E+02  0.86987721640E+02  0.00000000000E+00 0. -1.
         25    2    1    2    0    0 -0.89919714447E+02  0.30701448071E+02  0.10660481180E+04  0.10775488657E+04  0.12499933708E+03 0.  0.
          2    1    1    2  501    0  0.72891685036E+02 -0.88945141837E+01 -0.64301047036E+02  0.97606018154E+02  0.00000000000E+00 0. -1.
          1    1    1    2  502    0  0.17028029411E+02 -0.21806933887E+02  0.67400729045E+03  0.67457492077E+03  0.00000000000E+00 0. -1.
         22    1    3    3    0    0 -0.64891338312E+02 -0.23614846980E+02  0.86609403436E+03  0.86884257673E+03  0.00000000000E+00 0.  1.
         22    1    3    3    0    0 -0.25028376135E+02  0.54316295051E+02  0.19995408362E+03  0.20870628902E+03  0.00000000000E+00 0.  1.
</event>
<event>
 7    1  0.5064652E-006  0.5200031E+02  0.7818608E-02  0.1443734E+00
          2   -1    0    0  502    0  0.00000000000E+00  0.00000000000E+00  0.26233015939E+03  0.26233015939E+03  0.00000000000E+00 0. -1.
          1   -1    0    0  501    0 -0.00000000000E+00 -0.00000000000E+00 -0.36788010722E+03  0.36788010722E+03  0.00000000000E+00 0. -1.
         25    2    1    2    0    0  0.92196611547E+02  0.21723834510E+02 -0.83369865480E+02  0.17761485650E+03  0.12499745043E+03 0.  0.
          2    1    1    2  501    0 -0.41260152443E+02 -0.25783650835E+02 -0.23179298730E+03  0.23684422263E+03  0.00000000000E+00 0. -1.
          1    1    1    2  502    0 -0.50936459104E+02  0.40598163256E+01  0.20961290495E+03  0.21575118748E+03  0.00000000000E+00 0. -1.
         22    1    3    3    0    0 -0.13657607237E+02 -0.48952779124E+01  0.21705134459E+02  0.26107601252E+02  0.00000000000E+00 0. -1.
         22    1    3    3    0    0  0.10585421878E+03  0.26619112422E+02 -0.10507499994E+03  0.15150725525E+03  0.00000000000E+00 0. -1.
</event>
<event>
 7    1  0.5064652E-006  0.8155151E+02  0.7818608E-02  0.1370256E+00
          2   -1    0    0  502    0  0.00000000000E+00  0.00000000000E+00  0.20327494533E+04  0.20327494533E+04  0.00000000000E+00 0. -1.
          1   -1    0    0  501    0 -0.00000000000E+00 -0.00000000000E+00 -0.25733324441E+03  0.25733324441E+03  0.00000000000E+00 0. -1.
         25    2    1    2    0    0 -0.26690941326E+02  0.93927245467E+02  0.72376949201E+03  0.74094668794E+03  0.12499993201E+03 0.  0.
          2    1    1    2  501    0 -0.25954404782E+02 -0.77319203200E+02 -0.24145443161E+03  0.25485708320E+03  0.00000000000E+00 0. -1.
          1    1    1    2  502    0  0.52645346107E+02 -0.16608042267E+02  0.12931011485E+04  0.12942789266E+04  0.00000000000E+00 0. -1.
         22    1    3    3    0    0 -0.23322098388E+02  0.53325196003E+02  0.98933522058E+02  0.11478387774E+03  0.00000000000E+00 0. -1.
         22    1    3    3    0    0 -0.33688429380E+01  0.40602049464E+02  0.62483596996E+03  0.62616281020E+03  0.00000000000E+00 0. -1.
</event>
<event>
 7    1  0.5064652E-006  0.7173159E+02  0.7818608E-02  0.1443277E+00
          2   -1    0    0  502    0  0.00000000000E+00  0.00000000000E+00  0.46663087869E+03  0.46663087869E+03  0.00000000000E+00 0. -1.
          1   -1    0    0  501    0 -0.00000000000E+00 -0.00000000000E+00 -0.69257161710E+02  0.69257161710E+02  0.00000000000E+00 0. -1.
         25    2    1    2    0    0 -0.59029449097E+02 -0.62881056310E+02  0.27001675556E+03  0.30979426337E+03  0.12499973691E+03 0.  0.
          2    1    1    2  501    0  0.35368674226E+02 -0.12503159645E+01 -0.35097782105E+02  0.49843361797E+02  0.00000000000E+00 0. -1.
          1    1    1    2  502    0  0.23660774871E+02  0.64131372274E+02  0.16245474353E+03  0.17625041524E+03  0.00000000000E+00 0. -1.
         22    1    3    3    0    0  0.38263556492E+02 -0.18417014124E+02  0.53596957396E+02  0.68380699081E+02  0.00000000000E+00 0. -1.
         22    1    3    3    0    0 -0.97293005589E+02 -0.44464042186E+02  0.21641979816E+03  0.24141356429E+03  0.00000000000E+00 0. -1.
</event>
<event>
 7    1  0.5064652E-006  0.1327588E+03  0.7818608E-02  0.1310441E+00
          2   -1    0    0  502    0  0.00000000000E+00  0.00000000000E+00  0.28259101403E+04  0.28259101403E+04  0.00000000000E+00 0. -1.
          1   -1    0    0  501    0 -0.00000000000E+00 -0.00000000000E+00 -0.96853499207E+03  0.96853499207E+03  0.00000000000E+00 0. -1.
         25    2    1    2    0    0  0.29190660721E+01  0.79399824942E+02  0.85102483643E+03  0.86381770969E+03  0.12499964083E+03 0.  0.
          2    1    1    2  501    0 -0.29516743133E+02 -0.12973696725E+03 -0.95712408554E+03  0.96632780873E+03  0.00000000000E+00 0. -1.
          1    1    1    2  502    0  0.26597677061E+02  0.50337142311E+02  0.19634743974E+04  0.19642996140E+04  0.00000000000E+00 0. -1.
         22    1    3    3    0    0  0.43309524246E+02  0.79719049068E+02  0.74246005861E+03  0.74798247326E+03  0.00000000000E+00 0.  1.
         22    1    3    3    0    0 -0.40390458174E+02 -0.31922412619E+00  0.10856477781E+03  0.11583523642E+03  0.00000000000E+00 0.  1.
</event>
<event>
 7    1  0.5064652E-006  0.4661086E+02  0.7818608E-02  0.1526605E+00
          2   -1    0    0  502    0  0.00000000000E+00  0.00000000000E+00  0.42577645901E+02  0.42577645901E+02  0.00000000000E+00 0. -1.
          1   -1    0    0  501    0 -0.00000000000E+00 -0.00000000000E+00 -0.11287509238E+04  0.11287509238E+04  0.00000000000E+00 0. -1.
         25    2    1    2    0    0 -0.43955086297E+02 -0.47071055976E+02 -0.40662599127E+03  0.43024989271E+03  0.12499015754E+03 0.  0.
          2    1    1    2  501    0  0.13799080203E+02  0.43725323326E+02 -0.70189801480E+03  0.70339401597E+03  0.00000000000E+00 0. -1.
          1    1    1    2  502    0  0.30156006093E+02  0.33457326499E+01  0.22350728138E+02  0.37684661054E+02  0.00000000000E+00 0. -1.
         22    1    3    3    0    0 -0.53176423333E+02 -0.57150002837E+02 -0.11912225790E+03  0.14242179310E+03  0.00000000000E+00 0. -1.
         22    1    3    3    0    0  0.92213370364E+01  0.10078946861E+02 -0.28750373336E+03  0.28782809961E+03  0.00000000000E+00 0. -1.
</event>
<event>
 7    1  0.5064652E-006  0.1863868E+03  0.7818608E-02  0.1249070E+00
          2   -1    0    0  502    0  0.00000000000E+00  0.00000000000E+00  0.76464308920E+03  0.76464308920E+03  0.00000000000E+00 0. -1.
          1   -1    0    0  501    0 -0.00000000000E+00 -0.00000000000E+00 -0.36217918033E+03  0.36217918033E+03  0.00000000000E+00 0. -1.
         25    2    1    2    0    0 -0.19282323456E+02  0.17402320239E+03  0.77350018301E+02  0.22861240274E+03  0.12499888953E+03 0.  0.
          2    1    1    2  501    0 -0.52835031838E+02 -0.18364170869E+03 -0.25215026664E+03  0.31637884683E+03  0.00000000000E+00 0. -1.
          1    1    1    2  502    0  0.72117355294E+02  0.96185062927E+01  0.57726415721E+03  0.58183101997E+03  0.00000000000E+00 0. -1.
         22    1    3    3    0    0 -0.10956279690E+02 -0.18174843075E+02  0.16366020444E+02  0.26799470342E+02  0.00000000000E+00 0. -1.
         22    1    3    3    0    0 -0.83260437658E+01  0.19219804547E+03  0.60983997857E+02  0.20181293239E+03  0.00000000000E+00 0. -1.
</event>
<event>
 7    1  0.5064652E-006  0.5443074E+02  0.7818608E-02  0.1456502E+00
          2   -1    0    0  502    0  0.00000000000E+00  0.00000000000E+00  0.87670266125E+03  0.87670266125E+03  0.00000000000E+00 0. -1.
          1   -1    0    0  501    0 -0.00000000000E+00 -0.00000000000E+00 -0.27885540951E+02  0.27885540951E+02  0.00000000000E+00 0. -1.
         25    2    1    2    0    0 -0.12128079750E+02  0.17431598099E+02  0.30714242568E+03  0.33228198656E+03  0.12499559197E+03 0.  0.
          2    1    1    2  501    0  0.76174780579E+01  0.41617798246E+02  0.19158621267E+02  0.46444804571E+02  0.00000000000E+00 0. -1.
          1    1    1    2  502    0  0.45106016922E+01 -0.59049396344E+02  0.52251607335E+03  0.52586141107E+03  0.00000000000E+00 0. -1.
         22    1    3    3    0    0  0.17308809334E+02 -0.32841177711E+02  0.24224143632E+03  0.24506948261E+03  0.00000000000E+00 0.  1.
         22    1    3    3    0    0 -0.29436889084E+02  0.50272775810E+02  0.64900989352E+02  0.87212503951E+02  0.00000000000E+00 0.  1.
</event>
<event>
 7    1  0.5064652E-006  0.5460091E+02  0.7818608E-02  0.1451418E+00
          2   -1    0    0  502    0  0.00000000000E+00  0.00000000000E+00  0.32524578565E+03  0.32524578565E+03  0.00000000000E+00 0. -1.
          1   -1    0    0  501    0 -0.00000000000E+00 -0.00000000000E+00 -0.98433100850E+03  0.98433100850E+03  0.00000000000E+00 0. -1.
         25    2    1    2    0    0 -0.78994232496E+02 -0.47968125518E+02 -0.44617223124E+03  0.47247698224E+03  0.12499523584E+03 0.  0.
          2    1    1    2  501    0  0.48384251571E+02  0.16671021107E+02 -0.52221426314E+03  0.52471582344E+03  0.00000000000E+00 0. -1.
          1    1    1    2  502    0  0.30609980925E+02  0.31297104411E+02  0.30930127153E+03  0.31238398846E+03  0.00000000000E+00 0. -1.
         22    1    3    3    0    0 -0.88357143280E+02 -0.80861212049E+02 -0.37185539290E+03  0.39066859819E+03  0.00000000000E+00 0.  1.
         22    1    3    3    0    0  0.93629107834E+01  0.32893086531E+02 -0.74316838339E+02  0.81808384049E+02  0.00000000000E+00 0.  1.
</event>
<event>
 7    1  0.5064652E-006  0.5011374E+02  0.7818608E-02  0.1516375E+00
          2   -1    0    0  502    0  0.00000000000E+00  0.00000000000E+00  0.36949927334E+03  0.36949927334E+03  0.00000000000E+00 0. -1.
          1   -1    0    0  501    0 -0.00000000000E+00 -0.00000000000E+00 -0.23552385331E+03  0.23552385331E+03  0.00000000000E+00 0. -1.
         25    2    1    2    0    0  0.61640797100E+01 -0.20185778009E+02  0.23800486485E+03  0.26966044393E+03  0.12499991126E+03 0.  0.
          2    1    1    2  501    0 -0.24934890754E+02  0.43861464655E+02 -0.21474816931E+03  0.22059545118E+03  0.00000000000E+00 0. -1.
          1    1    1    2  502    0  0.18770811044E+02 -0.23675686646E+02  0.11071872449E+03  0.11476723155E+03  0.00000000000E+00 0. -1.
         22    1    3    3    0    0 -0.18677198451E+02  0.93918088056E+01  0.22906105606E+03  0.23001306749E+03  0.00000000000E+00 0. -1.
         22    1    3    3    0    0  0.24841278161E+02 -0.29577586815E+02  0.89438087896E+01  0.39647376434E+02  0.00000000000E+00 0. -1.
</event>
<event>
 7    1  0.5064652E-006  0.1219165E+03  0.7818608E-02  0.1389565E+00
          2   -1    0    0  502    0  0.00000000000E+00  0.00000000000E+00  0.31226708957E+04  0.31226708957E+04  0.00000000000E+00 0. -1.
          1   -1    0    0  501    0 -0.00000000000E+00 -0.00000000000E+00 -0.22365417647E+03  0.22365417647E+03  0.00000000000E+00 0. -1.
         25    2    1    2    0    0  0.50606533833E+02 -0.12894923937E+03  0.20339265325E+04  0.20424672859E+04  0.12500618668E+03 0.  0.
          2    1    1    2  501    0 -0.66778755169E+02  0.10186515758E+03 -0.20222644716E+03  0.23607509060E+03  0.00000000000E+00 0. -1.
          1    1    1    2  502    0  0.16172221337E+02  0.27084081793E+02  0.10673166339E+04  0.10677826957E+04  0.00000000000E+00 0. -1.
         22    1    3    3    0    0  0.32339653266E+02 -0.21974630231E+02  0.13785216265E+03  0.14328976340E+03  0.00000000000E+00 0.  1.
         22    1    3    3    0    0  0.18266880567E+02 -0.10697460914E+03  0.18960743699E+04  0.18991775225E+04  0.00000000000E+00 0.  1.
</event>
<event>
 7    1  0.5064652E-006  0.3736482E+02  0.7818608E-02  0.1594637E+00
          2   -1    0    0  502    0  0.00000000000E+00  0.00000000000E+00  0.27336294180E+03  0.27336294180E+03  0.00000000000E+00 0. -1.
          1   -1    0    0  501    0 -0.00000000000E+00 -0.00000000000E+00 -0.12792872672E+04  0.12792872672E+04  0.00000000000E+00 0. -1.
         25    2    1    2    0    0 -0.44905520122E+02  0.40965173062E+02 -0.55783548109E+01  0.13910864868E+03  0.12500178781E+03 0.  0.
          2    1    1    2  501    0  0.14930982016E+02 -0.19543785748E+02 -0.12051748004E+04  0.12054257312E+04  0.00000000000E+00 0. -1.
          1    1    1    2  502    0  0.29974538106E+02 -0.21421387314E+02  0.20482882989E+03  0.20811582910E+03  0.00000000000E+00 0. -1.
         22    1    3    3    0    0 -0.69243607102E+02  0.16620327431E+02  0.40244696733E+02  0.81795770206E+02  0.00000000000E+00 0. -1.
         22    1    3    3    0    0  0.24338086981E+02  0.24344845631E+02 -0.45823051543E+02  0.57312878478E+02  0.00000000000E+00 0. -1.
</event>
<event>
 7    1  0.5064652E-006  0.1368707E+03  0.7818608E-02  0.1249261E+00
          2   -1    0    0  502    0  0.00000000000E+00  0.00000000000E+00  0.11403448575E+04  0.11403448575E+04  0.00000000000E+00 0. -1.
          1   -1    0    0  501    0 -0.00000000000E+00 -0.00000000000E+00 -0.43085436878E+03  0.43085436878E+03  0.00000000000E+00 0. -1.
         25    2    1    2    0    0 -0.16747131377E+03  0.11254401055E+03  0.45782796863E+01  0.23740173066E+03  0.12500330328E+03 0.  0.
          2    1    1    2  501    0  0.12952545988E+03 -0.21226646303E+02 -0.29820794049E+03  0.32581496442E+03  0.00000000000E+00 0. -1.
          1    1    1    2  502    0  0.37945853886E+02 -0.91317364243E+02  0.10031201496E+04  0.10079825312E+04  0.00000000000E+00 0. -1.
         22    1    3    3    0    0 -0.86790564050E+02  0.51783826398E+02  0.64566656866E+02  0.11992922856E+03  0.00000000000E+00 0. -1.
         22    1    3    3    0    0 -0.80680749715E+02  0.60760184148E+02 -0.59988377180E+02  0.11747250210E+03  0.00000000000E+00 0. -1.
</event>
<event>
 7    1  0.1349448E-005  0.8083091E+02  0.7818608E-02  0.1352446E+00
          2   -1    0    0  502    0  0.00000000000E+00  0.00000000000E+00  0.16079944515E+04  0.16079944515E+04  0.00000000000E+00 0. -1.
          1   -1    0    0  501    0 -0.00000000000E+00 -0.00000000000E+00 -0.11292672335E+04  0.11292672335E+04  0.00000000000E+00 0. -1.
         25    2    1    2    0    0  0.14207455982E+03  0.11117410516E+02 -0.21413023040E+03  0.28597305551E+03  0.12498022060E+03 0.  0.
          2    1    1    2  501    0 -0.77728086714E+02 -0.46866832304E+01 -0.87682437971E+03  0.88027530541E+03  0.00000000000E+00 0. -1.
          1    1    1    2  502    0 -0.64346473106E+02 -0.64307272852E+01  0.15696818281E+04  0.15710133241E+04  0.00000000000E+00 0. -1.
         22    1    3    3    0    0  0.64125033555E+02  0.25722544037E+02 -0.13718579269E+02  0.70440532489E+02  0.00000000000E+00 0. -1.
         22    1    3    3    0    0  0.77949526265E+02 -0.14605133521E+02 -0.20041165113E+03  0.21553252302E+03  0.00000000000E+00 0. -1.
</event>
<event>
 7    1  0.5064652E-006  0.4242134E+02  0.7818608E-02  0.1541379E+00
          2   -1    0    0  502    0  0.00000000000E+00  0.00000000000E+00  0.76860327831E+03  0.76860327831E+03  0.00000000000E+00 0. -1.
          1   -1    0    0  501    0 -0.00000000000E+00 -0.00000000000E+00 -0.15864754366E+03  0.15864754366E+03  0.00000000000E+00 0. -1.
         25    2    1    2    0    0 -0.29213785051E+02  0.44516072087E+02  0.14533379239E+03  0.19894898691E+03  0.12499464896E+03 0.  0.
          2    1    1    2  501    0  0.30180526343E+02 -0.21539436695E+01 -0.12933917170E+03  0.13283118978E+03  0.00000000000E+00 0. -1.
          1    1    1    2  502    0 -0.96674129274E+00 -0.42362128418E+02  0.59396111395E+03  0.59547064529E+03  0.00000000000E+00 0. -1.
         22    1    3    3    0    0 -0.84912383774E+01  0.23583766187E+01  0.15133531518E+03  0.15159169070E+03  0.00000000000E+00 0.  1.
         22    1    3    3    0    0 -0.20722546673E+02  0.42157695468E+02 -0.60015227878E+01  0.47357296202E+02  0.00000000000E+00 0.  1.
</event>
<event>
 7    1  0.5064652E-006  0.5884167E+02  0.7818608E-02  0.1432522E+00
          2   -1    0    0  502    0  0.00000000000E+00  0.00000000000E+00  0.15382788445E+04  0.15382788445E+04  0.00000000000E+00 0. -1.
          1   -1    0    0  501    0 -0.00000000000E+00 -0.00000000000E+00 -0.98454273728E+02  0.98454273728E+02  0.00000000000E+00 0. -1.
         25    2    1    2    0    0 -0.20546302898E+02 -0.77220109157E+01  0.35588882043E+03  0.37784083579E+03  0.12500025867E+03 0.  0.
          2    1    1    2  501    0 -0.11426519419E+02 -0.45347900891E+02 -0.80345063749E+02  0.92964115281E+02  0.00000000000E+00 0. -1.
          1    1    1    2  502    0  0.31972822317E+02  0.53069911807E+02  0.11642808141E+04  0.11659281671E+04  0.00000000000E+00 0. -1.
         22    1    3    3    0    0  0.21391842523E+02  0.35432297608E+02  0.26890052833E+03  0.27206718431E+03  0.00000000000E+00 0. -1.
         22    1    3    3    0    0 -0.41938145420E+02 -0.43154308524E+02  0.86988292091E+02  0.10577365148E+03  0.00000000000E+00 0. -1.
</event>
<event>
 7    1  0.5064652E-006  0.7447088E+02  0.7818608E-02  0.1431082E+00
          2   -1    0    0  502    0  0.00000000000E+00  0.00000000000E+00  0.71489443808E+03  0.71489443808E+03  0.00000000000E+00 0. -1.
          1   -1    0    0  501    0 -0.00000000000E+00 -0.00000000000E+00 -0.39478695978E+03  0.39478695978E+03  0.00000000000E+00 0. -1.
         25    2    1    2    0    0  0.97194565378E+02 -0.52989740868E+02 -0.10990062540E+03  0.19989591571E+03  0.12500213389E+03 0.  0.
          2    1    1    2  501    0 -0.35131442069E+02  0.12695898629E+02 -0.23637408007E+03  0.23930756318E+03  0.00000000000E+00 0. -1.
          1    1    1    2  502    0 -0.62063123310E+02  0.40293842239E+02  0.66638218377E+03  0.67047791898E+03  0.00000000000E+00 0. -1.
         22    1    3    3    0    0  0.10265336891E+03 -0.35879782230E+02 -0.22987097136E+02  0.11114620801E+03  0.00000000000E+00 0. -1.
         22    1    3    3    0    0 -0.54588035310E+01 -0.17109958639E+02 -0.86913528262E+02  0.88749707693E+02  0.00000000000E+00 0. -1.
</event>
<event>
 7    1  0.5064652E-006  0.7224834E+02  0.7818608E-02  0.1385492E+00
          2   -1    0    0  502    0  0.00000000000E+00  0.00000000000E+00  0.16391672233E+04  0.16391672233E+04  0.00000000000E+00 0. -1.
          1   -1    0    0  501    0 -0.00000000000E+00 -0.00000000000E+00 -0.60516912672E+02  0.60516912672E+02  0.00000000000E+00 0. -1.
         25    2    1    2    0    0  0.93913116000E+01  0.94352035395E+02  0.52480659448E+03  0.54775678601E+03  0.12500012678E+03 0.  0.
          2    1    1    2  501    0  0.35505961016E+02 -0.62568362477E+02 -0.21572193090E+02  0.75105477600E+02  0.00000000000E+00 0. -1.
          1    1    1    2  502    0 -0.44897272616E+02 -0.31783672918E+02  0.10754159092E+04  0.10768218723E+04  0.00000000000E+00 0. -1.
         22    1    3    3    0    0  0.19899805230E+02  0.59885195636E+02  0.50010273752E+03  0.50406843482E+03  0.00000000000E+00 0.  1.
         22    1    3    3    0    0 -0.10508493630E+02  0.34466839759E+02  0.24703856958E+02  0.43688351193E+02  0.00000000000E+00 0.  1.
</event>
<event>
 7    1  0.5064652E-006  0.6568011E+02  0.7818608E-02  0.1387359E+00
          2   -1    0    0  502    0  0.00000000000E+00  0.00000000000E+00  0.26680652010E+03  0.26680652010E+03  0.00000000000E+00 0. -1.
          1   -1    0    0  501    0 -0.00000000000E+00 -0.00000000000E+00 -0.15834258815E+04  0.15834258815E+04  0.00000000000E+00 0. -1.
         25    2    1    2    0    0 -0.84623815315E+02  0.76202091591E+02 -0.73886151668E+03  0.75796496376E+03  0.12500638611E+03 0.  0.
          2    1    1    2  501    0  0.22644398880E+02 -0.55135205345E+02 -0.82976184209E+03  0.83189985831E+03  0.00000000000E+00 0. -1.
          1    1    1    2  502    0  0.61979416435E+02 -0.21066886245E+02  0.25200399739E+03  0.26036757951E+03  0.00000000000E+00 0. -1.
         22    1    3    3    0    0 -0.99513733919E+02  0.12161405240E+02 -0.51410577614E+03  0.52378968306E+03  0.00000000000E+00 0.  1.
         22    1    3    3    0    0  0.14889918604E+02  0.64040686350E+02 -0.22475574054E+03  0.23417528070E+03  0.00000000000E+00 0.  1.
</event>
<event>
 7    1  0.6328121E-006  0.1000689E+03  0.7818608E-02  0.1401665E+00
          2   -1    0    0  502    0  0.00000000000E+00  0.00000000000E+00  0.15038717739E+04  0.15038717739E+04  0.00000000000E+00 0. -1.
          1   -1    0    0  501    0 -0.00000000000E+00 -0.00000000000E+00 -0.50648137338E+03  0.50648137338E+03  0.00000000000E+00 0. -1.
         25    2    1    2    0    0 -0.30669658630E+02  0.10506984561E+03 -0.19912911546E+03  0.25934251047E+03  0.12500333073E+03 0.  0.
          2    1    1    2  501    0  0.34524097141E+02 -0.51033279653E+01 -0.27444152900E+03  0.27665160415E+03  0.00000000000E+00 0. -1.
          1    1    1    2  502    0 -0.38544385116E+01 -0.99966517644E+02  0.14709610450E+04  0.14743590327E+04  0.00000000000E+00 0. -1.
         22    1    3    3    0    0 -0.48968666384E+02  0.61034532946E+01 -0.12487237133E+03  0.13426947364E+03  0.00000000000E+00 0.  1.
         22    1    3    3    0    0  0.18299007754E+02  0.98966392315E+02 -0.74256744132E+02  0.12507303683E+03  0.00000000000E+00 0.  1.
</event>
<event>
 7    1  0.5064652E-006  0.8497477E+02  0.7818608E-02  0.1323649E+00
          2   -1    0    0  502    0  0.00000000000E+00  0.00000000000E+00  0.11912903766E+04  0.11912903766E+04  0.00000000000E+00 0. -1.
          1   -1    0    0  501    0 -0.00000000000E+00 -0.00000000000E+00 -0.38755227049E+03  0.38755227049E+03  0.00000000000E+00 0. -1.
         25    2    1    2    0    0 -0.10721136325E+02  0.75422433264E+02 -0.33079153389E+03  0.36173489030E+03  0.12500242304E+03 0.  0.
          2    1    1    2  501    0 -0.70268451927E+02 -0.10114008563E+03  0.56090374464E+02  0.13532591165E+03  0.00000000000E+00 0. -1.
          1    1    1    2  502    0  0.80989588251E+02  0.25717652362E+02  0.10784392655E+04  0.10817818451E+04  0.00000000000E+00 0. -1.
         22    1    3    3    0    0 -0.55058046016E+02 -0.24585671936E+01 -0.15322306552E+03  0.16283347564E+03  0.00000000000E+00 0.  1.
         22    1    3    3    0    0  0.44336909691E+02  0.77881000458E+02 -0.17756846837E+03  0.19890141466E+03  0.00000000000E+00 0.  1.
</event>
<event>
 7    1  0.5064652E-006  0.5708140E+02  0.7818608E-02  0.1451115E+00
          2   -1    0    0  502    0  0.00000000000E+00  0.00000000000E+00  0.27237655052E+04  0.27237655052E+04  0.00000000000E+00 0. -1.
          1   -1    0    0  501    0 -0.00000000000E+00 -0.00000000000E+00 -0.24539753969E+03  0.24539753969E+03  0.00000000000E+00 0. -1.
         25    2    1    2    0    0  0.29360995729E+02 -0.66525914000E+02  0.86169310913E+02  0.16834032648E+03  0.12500220027E+03 0.  0.
          2    1    1    2  501    0 -0.48850797462E+02  0.29357040105E+02 -0.20016427169E+03  0.20812009004E+03  0.00000000000E+00 0. -1.
          1    1    1    2  502    0  0.19489801733E+02  0.37168873895E+02  0.25923629263E+04  0.25927026284E+04  0.00000000000E+00 0. -1.
         22    1    3    3    0    0 -0.46686293685E+02 -0.53081181023E+01  0.28347718182E+02  0.54876035407E+02  0.00000000000E+00 0. -1.
         22    1    3    3    0    0  0.76047289414E+02 -0.61217795898E+02  0.57821592731E+02  0.11346429107E+03  0.00000000000E+00 0. -1.
</event>
<event>
 7    1  0.5064652E-006  0.2955219E+02  0.7818608E-02  0.1621322E+00
          2   -1    0    0  502    0  0.00000000000E+00  0.00000000000E+00  0.17403668407E+04  0.17403668407E+04  0.00000000000E+00 0. -1.
          1   -1    0    0  501    0 -0.00000000000E+00 -0.00000000000E+00 -0.32124503006E+03  0.32124503006E+03  0.00000000000E+00 0. -1.
         25    2    1    2    0    0  0.52192247616E+01 -0.16652774129E+02  0.59914625093E+03  0.61229535695E+03  0.12499927579E+03 0.  0.
          2    1    1    2  501    0  0.24346587958E+02  0.10533113599E+02 -0.31391008871E+03  0.31502896156E+03  0.00000000000E+00 0. -1.
          1    1    1    2  502    0 -0.29565812720E+02  0.61196605295E+01  0.11338856484E+04  0.11342875523E+04  0.00000000000E+00 0. -1.
         22    1    3    3    0    0  0.50613275725E+02 -0.44433044649E+02  0.24167088123E+03  0.25088007887E+03  0.00000000000E+00 0. -1.
         22    1    3    3    0    0 -0.45394050963E+02  0.27780270520E+02  0.35747536970E+03  0.36141527809E+03  0.00000000000E+00 0. -1.
</event>
<event>
 7    1  0.5064652E-006  0.1056986E+03  0.7818608E-02  0.1342452E+00
          2   -1    0    0  502    0  0.00000000000E+00  0.00000000000E+00  0.33631549311E+04  0.33631549311E+04  0.00000000000E+00 0. -1.
          1   -1    0    0  501    0 -0.00000000000E+00 -0.00000000000E+00 -0.46099438343E+03  0.46099438343E+03  0.00000000000E+00 0. -1.
         25    2    1    2    0    0  0.79054044246E+02  0.96070585650E+02  0.62723971868E+03  0.65156272840E+03  0.12500090002E+03 0.  0.
          2    1    1    2  501    0 -0.53554823864E+02  0.58426048460E+01 -0.44619907302E+03  0.44943950422E+03  0.00000000000E+00 0. -1.
          1    1    1    2  502    0 -0.25499220382E+02 -0.10191319050E+03  0.27211199020E+04  0.27231470819E+04  0.00000000000E+00 0. -1.
         22    1    3    3    0    0  0.62898059756E+02  0.10864679946E+03  0.61505729192E+03  0.62773861224E+03  0.00000000000E+00 0.  1.
         22    1    3    3    0    0  0.16155984490E+02 -0.12576213813E+02  0.12182426757E+02  0.23824116152E+02  0.00000000000E+00 0.  1.
</event>
<event>
 7    1  0.5064652E-006  0.2147925E+03  0.7818608E-02  0.1279042E+00
          2   -1    0    0  502    0  0.00000000000E+00  0.00000000000E+00  0.10332806174E+04  0.10332806174E+04  0.00000000000E+00 0. -1.
          1   -1    0    0  501    0 -0.00000000000E+00 -0.00000000000E+00 -0.43332807995E+03  0.43332807995E+03  0.00000000000E+00 0. -1.
         25    2    1    2    0    0  0.17759393177E+03 -0.40874371374E+02  0.20885322583E+03  0.30406444020E+03  0.12500078006E+03 0.  0.
          2    1    1    2  501    0 -0.20382067667E+03  0.80015629851E+02 -0.35384311546E+03  0.41611334948E+03  0.00000000000E+00 0. -1.
          1    1    1    2  502    0  0.26226744899E+02 -0.39141258477E+02  0.74494242704E+03  0.74643090763E+03  0.00000000000E+00 0. -1.
         22    1    3    3    0    0  0.18640946545E+02  0.28037498329E+02  0.12822217745E+01  0.33693178736E+02  0.00000000000E+00 0.  1.
         22    1    3    3    0    0  0.15895298522E+03 -0.68911869703E+02  0.20757100406E+03  0.27037126146E+03  0.00000000000E+00 0.  1.
</event>
<event>
 7    1  0.5064652E-006  0.4983442E+02  0.7818608E-02  0.1517963E+00
          2   -1    0    0  502    0  0.00000000000E+00  0.00000000000E+00  0.82296724723E+03  0.82296724723E+03  0.00000000000E+00 0. -1.
          1   -1    0    0  501    0 -0.00000000000E+00 -0.00000000000E+00 -0.39749098316E+03  0.39749098316E+03  0.00000000000E+00 0. -1.
         25    2    1    2    0    0 -0.56165312612E+02  0.55964884132E+02  0.78818582902E+02  0.16768710798E+03  0.12497994470E+03 0.  0.
          2    1    1    2  501    0  0.20500462021E+02 -0.21986568400E+02 -0.35154748905E+03  0.35283043405E+03  0.00000000000E+00 0. -1.
          1    1    1    2  502    0  0.35664850591E+02 -0.33978315732E+02  0.69820517021E+03  0.69994068836E+03  0.00000000000E+00 0. -1.
         22    1    3    3    0    0 -0.37704606933E+02  0.60750482058E+02 -0.14061244057E+02  0.72869589258E+02  0.00000000000E+00 0.  1.
         22    1    3    3    0    0 -0.18460705679E+02 -0.47855979255E+01  0.92879826959E+02  0.94817518727E+02  0.00000000000E+00 0.  1.
</event>
<event>
 7    1  0.5064652E-006  0.6785278E+02  0.7818608E-02  0.1379439E+00
          2   -1    0    0  502    0  0.00000000000E+00  0.00000000000E+00  0.90940757869E+03  0.90940757869E+03  0.00000000000E+00 0. -1.
          1   -1    0    0  501    0 -0.00000000000E+00 -0.00000000000E+00 -0.15981203422E+03  0.15981203422E+03  0.00000000000E+00 0. -1.
         25    2    1    2    0    0 -0.35132384712E+01 -0.12675706374E+03  0.68957045965E+02  0.19094420170E+03  0.12499967169E+03 0.  0.
          2    1    1    2  501    0 -0.70798684196E+01  0.61116387994E+02 -0.87664915448E+02  0.10710030261E+03  0.00000000000E+00 0. -1.
          1    1    1    2  502    0  0.10593106891E+02  0.65640675743E+02  0.76830341396E+03  0.77117510860E+03  0.00000000000E+00 0. -1.
         22    1    3    3    0    0  0.20108177977E+01 -0.12095679181E+03  0.10119991097E+03  0.15772130755E+03  0.00000000000E+00 0.  1.
         22    1    3    3    0    0 -0.55240562689E+01 -0.58002719216E+01 -0.32242865006E+02  0.33222894152E+02  0.00000000000E+00 0.  1.
</event>
<event>
 7    1  0.5064652E-006  0.3384466E+02  0.7818608E-02  0.1568392E+00
          2   -1    0    0  502    0  0.00000000000E+00  0.00000000000E+00  0.24523032574E+04  0.24523032574E+04  0.00000000000E+00 0. -1.
          1   -1    0    0  501    0 -0.00000000000E+00 -0.00000000000E+00 -0.25957039174E+03  0.25957039174E+03  0.00000000000E+00 0. -1.
         25    2    1    2    0    0 -0.61384774502E+01 -0.36197917844E+02 -0.17578838872E+03  0.21880303659E+03  0.12500096419E+03 0.  0.
          2    1    1    2  501    0  0.31161725003E+02  0.13409802403E+02 -0.57527713766E+02  0.66785580456E+02  0.00000000000E+00 0. -1.
          1    1    1    2  502    0 -0.25023247553E+02  0.22788115441E+02  0.24260489681E+04  0.24262850321E+04  0.00000000000E+00 0. -1.
         22    1    3    3    0    0 -0.63145994816E+01 -0.18910996173E+01  0.19468997659E+02  0.20554617346E+02  0.00000000000E+00 0.  1.
         22    1    3    3    0    0  0.17612203137E+00 -0.34306818227E+02 -0.19525738638E+03  0.19824841924E+03  0.00000000000E+00 0.  1.
</event>
<event>
 7    1  0.5064652E-006  0.7085376E+02  0.7818608E-02  0.1365680E+00
          2   -1    0    0  502    0  0.00000000000E+00  0.00000000000E+00  0.23759221922E+03  0.23759221922E+03  0.00000000000E+00 0. -1.
          1   -1    0    0  501    0 -0.00000000000E+00 -0.00000000000E+00 -0.48218578566E+03  0.48218578566E+03  0.00000000000E+00 0. -1.
         25    2    1    2    0    0  0.48790949704E+02 -0.10633618033E+03 -0.16802983772E+03  0.23988744132E+03  0.12499607241E+03 0.  0.
          2    1    1    2  501    0  0.79505168772E+01  0.65517793745E+02 -0.26804491442E+03  0.27605048118E+03  0.00000000000E+00 0. -1.
          1    1    1    2  502    0 -0.56741466581E+02  0.40818386581E+02  0.19148118570E+03  0.20384008239E+03  0.00000000000E+00 0. -1.
         22    1    3    3    0    0  0.82797075940E+02 -0.10855368814E+03 -0.12605001690E+03  0.18581675315E+03  0.00000000000E+00 0.  1.
         22    1    3    3    0    0 -0.34006126237E+02  0.22175078103E+01 -0.41979820820E+02  0.54070688164E+02  0.00000000000E+00 0.  1.
</event>
<event>
 7    1  0.5064652E-006  0.1333222E+03  0.7818608E-02  0.1416766E+00
          2   -1    0    0  502    0  0.00000000000E+00  0.00000000000E+00  0.74458387583E+03  0.74458387583E+03  0.00000000000E+00 0. -1.
          1   -1    0    0  501    0 -0.00000000000E+00 -0.00000000000E+00 -0.19745389903E+03  0.19745389903E+03  0.00000000000E+00 0. -1.
         25    2    1    2    0    0  0.11261784028E+03 -0.56240966971E+02  0.25175201867E+03  0.30797123770E+03  0.12498551929E+03 0.  0.
          2    1    1    2  501    0 -0.10836932897E+03  0.79129895138E+02 -0.14240525565E+03  0.19566478631E+03  0.00000000000E+00 0. -1.
          1    1    1    2  502    0 -0.42485113100E+01 -0.22888928168E+02  0.43778321377E+03  0.43840175084E+03  0.00000000000E+00 0. -1.
         22    1    3    3    0    0  0.31977647419E+02  0.40383408816E+02  0.75495335520E+02  0.91394394398E+02  0.00000000000E+00 0.  1.
         22    1    3    3    0    0  0.80640192862E+02 -0.96624375787E+02  0.17625668315E+03  0.21657684330E+03  0.00000000000E+00 0.  1.
</event>
<event>
 7    1  0.5064652E-006  0.6646921E+02  0.7818608E-02  0.1476691E+00
          2   -1    0    0  502    0  0.00000000000E+00  0.00000000000E+00  0.41445225656E+03  0.41445225656E+03  0.00000000000E+00 0. -1.
          1   -1    0    0  501    0 -0.00000000000E+00 -0.00000000000E+00 -0.46293251173E+03  0.46293251173E+03  0.00000000000E+00 0. -1.
         25    2    1    2    0    0 -0.38988910252E+02 -0.25415698459E+02  0.17554509118E+02  0.13453183124E+03  0.12499823989E+03 0.  0.
          2    1    1    2  501    0 -0.27473555282E+02  0.11952013360E+02 -0.40048148304E+03  0.40160062889E+03  0.00000000000E+00 0. -1.
          1    1    1    2  502    0  0.66462465535E+02  0.13463685100E+02  0.33444671876E+03  0.34125230817E+03  0.00000000000E+00 0. -1.
         22    1    3    3    0    0 -0.13918897454E+02 -0.97111140528E+01 -0.54265616456E+02  0.56857704596E+02  0.00000000000E+00 0.  1.
         22    1    3    3    0    0 -0.25070012798E+02 -0.15704584406E+02  0.71820125575E+02  0.77674126649E+02  0.00000000000E+00 0.  1.
</event>
<event>
 7    1  0.5064652E-006  0.9200734E+02  0.7818608E-02  0.1324598E+00
          2   -1    0    0  502    0  0.00000000000E+00  0.00000000000E+00  0.11160609742E+04  0.11160609742E+04  0.00000000000E+00 0. -1.
          1   -1    0    0  501    0 -0.00000000000E+00 -0.00000000000E+00 -0.19463852195E+03  0.19463852195E+03  0.00000000000E+00 0. -1.
         25    2    1    2    0    0 -0.28317804477E+02 -0.83772185491E+02  0.74781219503E+02  0.17040165050E+03  0.12499925836E+03 0.  0.
          2    1    1    2  501    0  0.86496004099E+02  0.40757780489E+02 -0.12977949872E+03  0.16120010447E+03  0.00000000000E+00 0. -1.
          1    1    1    2  502    0 -0.58178199622E+02  0.43014405003E+02  0.97642073147E+03  0.97909774118E+03  0.00000000000E+00 0. -1.
         22    1    3    3    0    0 -0.47975692336E+01 -0.10829943742E+03  0.26910806992E+02  0.11169591017E+03  0.00000000000E+00 0. -1.
         22    1    3    3    0    0 -0.23520235243E+02  0.24527251932E+02  0.47870412511E+02  0.58705740326E+02  0.00000000000E+00 0. -1.
</event>
<event>
 7    1  0.5064652E-006  0.1714590E+03  0.7818608E-02  0.1292900E+00
          2   -1    0    0  502    0  0.00000000000E+00  0.00000000000E+00  0.20625991031E+04  0.20625991031E+04  0.00000000000E+00 0. -1.
          1   -1    0    0  501    0 -0.00000000000E+00 -0.00000000000E+00 -0.10482163760E+04  0.10482163760E+04  0.00000000000E+00 0. -1.
         25    2    1    2    0    0  0.25875469264E+02  0.17733305840E+03  0.17542555230E+03  0.28019276801E+03  0.12496923354E+03 0.  0.
          2    1    1    2  501    0 -0.72731098121E+02 -0.15525624864E+03 -0.98808368969E+03  0.10028477916E+04  0.00000000000E+00 0. -1.
          1    1    1    2  502    0  0.46855628857E+02 -0.22076809759E+02  0.18270408645E+04  0.18277749194E+04  0.00000000000E+00 0. -1.
         22    1    3    3    0    0  0.44160951498E+02  0.50876425059E+02  0.55058517007E+01  0.67593747247E+02  0.00000000000E+00 0. -1.
         22    1    3    3    0    0 -0.18285482234E+02  0.12645663334E+03  0.16991970060E+03  0.21259902076E+03  0.00000000000E+00 0. -1.
</event>
<event>
 7    1  0.5064652E-006  0.7676594E+02  0.7818608E-02  0.1364859E+00
          2   -1    0    0  502    0  0.00000000000E+00  0.00000000000E+00  0.19776410968E+04  0.19776410968E+04  0.00000000000E+00 0. -1.
          1   -1    0    0  501    0 -0.00000000000E+00 -0.00000000000E+00 -0.12837764886E+02  0.12837764886E+02  0.00000000000E+00 0. -1.
         25    2    1    2    0    0 -0.44374382178E+01  0.45242443761E+01  0.75207356390E+03  0.76241731176E+03  0.12500140846E+03 0.  0.
          2    1    1    2  501    0  0.81028734521E+02 -0.96995309552E+01  0.26630133882E+03  0.27852493564E+03  0.00000000000E+00 0. -1.
          1    1    1    2  502    0 -0.76591296303E+02  0.51752865791E+01  0.94642842917E+03  0.94953661425E+03  0.00000000000E+00 0. -1.
         22    1    3    3    0    0  0.79830287035E-01 -0.57723390204E+02  0.46939741931E+03  0.47293332871E+03  0.00000000000E+00 0.  1.
         22    1    3    3    0    0 -0.45172685049E+01  0.62247634581E+02  0.28267614459E+03  0.28948398306E+03  0.00000000000E+00 0.  1.
</event>
<event>
 7    1  0.5064652E-006  0.1587751E+03  0.7818608E-02  0.1232371E+00
          2   -1    0    0  502    0  0.00000000000E+00  0.00000000000E+00  0.11214225101E+04  0.11214225101E+04  0.00000000000E+00 0. -1.
          1   -1    0    0  501    0 -0.00000000000E+00 -0.00000000000E+00 -0.23070292282E+04  0.23070292282E+04  0.00000000000E+00 0. -1.
         25    2    1    2    0    0 -0.17993580346E+03  0.80404274534E+02 -0.75060439420E+02  0.24515797336E+03  0.12500648626E+03 0.  0.
          2    1    1    2  501    0  0.22659401962E+02 -0.98602006913E+02 -0.21396709412E+04  0.21420615166E+04  0.00000000000E+00 0. -1.
          1    1    1    2  502    0  0.15727640150E+03  0.18197732379E+02  0.10291246625E+04  0.10412322483E+04  0.00000000000E+00 0. -1.
         22    1    3    3    0    0 -0.19770701369E+02  0.70034223662E+02 -0.26959739440E+02  0.77604772193E+02  0.00000000000E+00 0. -1.
         22    1    3    3    0    0 -0.16016510209E+03  0.10370050872E+02 -0.48100699980E+02  0.16755320117E+03  0.00000000000E+00 0. -1.
</event>
<event>
 7    1  0.5064652E-006  0.1674969E+03  0.7818608E-02  0.1350508E+00
          2   -1    0    0  502    0  0.00000000000E+00  0.00000000000E+00  0.38203275859E+03  0.38203275859E+03  0.00000000000E+00 0. -1.
          1   -1    0    0  501    0 -0.00000000000E+00 -0.00000000000E+00 -0.14355204217E+04  0.14355204217E+04  0.00000000000E+00 0. -1.
         25    2    1    2    0    0 -0.12603229152E+03  0.14418210787E+03 -0.30246644608E+03  0.37920009692E+03  0.12503656970E+03 0.  0.
          2    1    1    2  501    0  0.11807636237E+03 -0.11346943101E+03 -0.10878130249E+04  0.11000702325E+04  0.00000000000E+00 0. -1.
          1    1    1    2  502    0  0.79559291432E+01 -0.30712676856E+02  0.33679180792E+03  0.33828285090E+03  0.00000000000E+00 0. -1.
         22    1    3    3    0    0 -0.68468540541E+02  0.70633601214E+02 -0.50700547839E+02  0.11066884031E+03  0.00000000000E+00 0. -1.
         22    1    3    3    0    0 -0.57563750976E+02  0.73548506653E+02 -0.25176589824E+03  0.26853125661E+03  0.00000000000E+00 0. -1.
</event>
<event>
 7    1  0.5064652E-006  0.1424358E+03  0.7818608E-02  0.1265598E+00
          2   -1    0    0  502    0  0.00000000000E+00  0.00000000000E+00  0.22961736936E+04  0.22961736936E+04  0.00000000000E+00 0. -1.
          1   -1    0    0  501    0 -0.00000000000E+00 -0.00000000000E+00 -0.12748084268E+03  0.12748084268E+03  0.00000000000E+00 0. -1.
         25    2    1    2    0    0 -0.32041521256E+02 -0.12273620997E+03 -0.38837694495E+01  0.17813346713E+03  0.12500244848E+03 0.  0.
          2    1    1    2  501    0 -0.39739587555E+01  0.19514865883E+03  0.23169154218E+03  0.30295174882E+03  0.00000000000E+00 0. -1.
          1    1    1    2  502    0  0.36015480011E+02 -0.72412448861E+02  0.19408850782E+04  0.19425693203E+04  0.00000000000E+00 0. -1.
         22    1    3    3    0    0 -0.39494260514E+02 -0.80896712591E+02  0.55015731939E+02  0.10550263258E+03  0.00000000000E+00 0.  1.
         22    1    3    3    0    0  0.74527392577E+01 -0.41839497379E+02 -0.58899501388E+02  0.72630834548E+02  0.00000000000E+00 0.  1.
</event>
<event>
 7    1  0.5064652E-006  0.3991264E+03  0.7818608E-02  0.1067731E+00
          2   -1    0    0  502    0  0.00000000000E+00  0.00000000000E+00  0.10946896173E+04  0.10946896173E+04  0.00000000000E+00 0. -1.
          1   -1    0    0  501    0 -0.00000000000E+00 -0.00000000000E+00 -0.13663798660E+04  0.13663798660E+04  0.00000000000E+00 0. -1.
         25    2    1    2    0    0  0.15115384284E+02 -0.78875684828E+02 -0.56613854484E+02  0.15899600594E+03  0.12499901154E+03 0.  0.
          2    1    1    2  501    0 -0.22946786022E+03  0.41555790647E+03 -0.11724118993E+04  0.12648689790E+04  0.00000000000E+00 0. -1.
          1    1    1    2  502    0  0.21435247594E+03 -0.33668222164E+03  0.95733550500E+03  0.10372044984E+04  0.00000000000E+00 0. -1.
         22    1    3    3    0    0 -0.13456256605E+02 -0.10179927159E+03 -0.15361742765E+02  0.10382748036E+03  0.00000000000E+00 0. -1.
         22    1    3    3    0    0  0.28571640890E+02  0.22923586760E+02 -0.41252111719E+02  0.55168525577E+02  0.00000000000E+00 0. -1.
</event>
<event>
 7    1  0.5064652E-006  0.1468726E+03  0.7818608E-02  0.1212045E+00
          2   -1    0    0  502    0  0.00000000000E+00  0.00000000000E+00  0.13639750355E+04  0.13639750355E+04  0.00000000000E+00 0. -1.
          1   -1    0    0  501    0 -0.00000000000E+00 -0.00000000000E+00 -0.63717247258E+03  0.63717247258E+03  0.00000000000E+00 0. -1.
         25    2    1    2    0    0  0.83395702747E+02 -0.12163231897E+03  0.29508171422E+03  0.35277099157E+03  0.12499956068E+03 0.  0.
          2    1    1    2  501    0  0.73481351541E+02  0.11358564446E+03 -0.59475723093E+03  0.60994866292E+03  0.00000000000E+00 0. -1.
          1    1    1    2  502    0 -0.15687705429E+03  0.80466745089E+01  0.10264780796E+04  0.10384278536E+04  0.00000000000E+00 0. -1.
         22    1    3    3    0    0  0.52130786562E+01 -0.60019178825E+02  0.21996637253E+03  0.22806727749E+03  0.00000000000E+00 0. -1.
         22    1    3    3    0    0  0.78182624091E+02 -0.61613140148E+02  0.75115341683E+02  0.12470371408E+03  0.00000000000E+00 0. -1.
</event>
<event>
 7    1  0.5064652E-006  0.5040923E+02  0.7818608E-02  0.1451941E+00
          2   -1    0    0  502    0  0.00000000000E+00  0.00000000000E+00  0.31610319041E+04  0.31610319041E+04  0.00000000000E+00 0. -1.
          1   -1    0    0  501    0 -0.00000000000E+00 -0.00000000000E+00 -0.13939345870E+03  0.13939345870E+03  0.00000000000E+00 0. -1.
         25    2    1    2    0    0  0.75762610542E+01  0.82514563997E+02  0.11371996640E+03  0.18821095617E+03  0.12500032104E+03 0.  0.
          2    1    1    2  501    0  0.21968414411E+02 -0.41816871305E+02 -0.96465389017E+02  0.10740965150E+03  0.00000000000E+00 0. -1.
          1    1    1    2  502    0 -0.29544675465E+02 -0.40697692692E+02  0.30043838680E+04  0.30048047551E+04  0.00000000000E+00 0. -1.
         22    1    3    3    0    0  0.43335935921E+02  0.99388518247E+02  0.69008133891E+02  0.12852316307E+03  0.00000000000E+00 0. -1.
         22    1    3    3    0    0 -0.35759674867E+02 -0.16873954250E+02  0.44711832513E+02  0.59687793101E+02  0.00000000000E+00 0. -1.
</event>
<event>
 7    1  0.5064652E-006  0.9568413E+02  0.7818608E-02  0.1375611E+00
          2   -1    0    0  502    0  0.00000000000E+00  0.00000000000E+00  0.21774196136E+04  0.21774196136E+04  0.00000000000E+00 0. -1.
          1   -1    0    0  501    0 -0.00000000000E+00 -0.00000000000E+00 -0.13191492744E+04  0.13191492744E+04  0.00000000000E+00 0. -1.
         25    2    1    2    0    0 -0.52004610187E+02  0.29253995733E+02  0.83998440657E+02  0.16198908057E+03  0.12499779375E+03 0.  0.
          2    1    1    2  501    0  0.94962410520E+02 -0.15790286735E+02 -0.12780969878E+04  0.12817172476E+04  0.00000000000E+00 0. -1.
          1    1    1    2  502    0 -0.42957800333E+02 -0.13463708998E+02  0.20523688863E+04  0.20528625599E+04  0.00000000000E+00 0. -1.
         22    1    3    3    0    0  0.32278594595E+02 -0.52419722604E+00 -0.84725724747E+01  0.33376143218E+02  0.00000000000E+00 0.  1.
         22    1    3    3    0    0 -0.84283204782E+02  0.29778192959E+02  0.92471013132E+02  0.12861293735E+03  0.00000000000E+00 0.  1.
</event>
<event>
 7    1  0.5064652E-006  0.7301139E+02  0.7818608E-02  0.1380418E+00
          2   -1    0    0  502    0  0.00000000000E+00  0.00000000000E+00  0.51116173234E+03  0.51116173234E+03  0.00000000000E+00 0. -1.
          1   -1    0    0  501    0 -0.00000000000E+00 -0.00000000000E+00 -0.18999074729E+03  0.18999074729E+03  0.00000000000E+00 0. -1.
         25    2    1    2    0    0 -0.97082748225E+02 -0.31332290070E+02 -0.76131343202E+02  0.17840332752E+03  0.12499997379E+03 0.  0.
          2    1    1    2  501    0  0.50975329882E+02 -0.24880301619E+02 -0.46305129344E+02  0.73223484407E+02  0.00000000000E+00 0. -1.
          1    1    1    2  502    0  0.46107418343E+02  0.56212591689E+02  0.44360745760E+03  0.44952566771E+03  0.00000000000E+00 0. -1.
         22    1    3    3    0    0 -0.99675885218E+02  0.27386236581E+00 -0.41691106027E+01  0.99763413022E+02  0.00000000000E+00 0.  1.
         22    1    3    3    0    0  0.25931369930E+01 -0.31606152436E+02 -0.71962232599E+02  0.78639914496E+02  0.00000000000E+00 0.  1.
</event>
<event>
 7    1  0.5064652E-006  0.1255519E+03  0.7818608E-02  0.1280276E+00
          2   -1    0    0  502    0  0.00000000000E+00  0.00000000000E+00  0.59296041174E+03  0.59296041174E+03  0.00000000000E+00 0. -1.
          1   -1    0    0  501    0 -0.00000000000E+00 -0.00000000000E+00 -0.61540687118E+03  0.61540687118E+03  0.00000000000E+00 0. -1.
         25    2    1    2    0    0 -0.66282960725E+02  0.41050447099E+02 -0.55110452701E+02  0.15727391763E+03  0.12497741028E+03 0.  0.
          2    1    1    2  501    0  0.62464474959E+02 -0.12062239755E+03 -0.49712457691E+03  0.51534883176E+03  0.00000000000E+00 0. -1.
          1    1    1    2  502    0  0.38184857665E+01  0.79571950454E+02  0.52978857017E+03  0.53574453354E+03  0.00000000000E+00 0. -1.
         22    1    3    3    0    0 -0.14601956374E+02  0.62438159192E+02 -0.74298095156E+02  0.98142487217E+02  0.00000000000E+00 0.  1.
         22    1    3    3    0    0 -0.51681004352E+02 -0.21387712093E+02  0.19187642455E+02  0.59131430410E+02  0.00000000000E+00 0.  1.
</event>
<event>
 7    1  0.5064652E-006  0.3612585E+02  0.7818608E-02  0.1629345E+00
          2   -1    0    0  502    0  0.00000000000E+00  0.00000000000E+00  0.97365634461E+03  0.97365634461E+03  0.00000000000E+00 0. -1.
          1   -1    0    0  501    0 -0.00000000000E+00 -0.00000000000E+00 -0.20837782533E+04  0.20837782533E+04  0.00000000000E+00 0. -1.
         25    2    1    2    0    0 -0.42205426305E+02  0.17089780371E+02  0.31262528166E+03  0.33975546507E+03  0.12500340279E+03 0.  0.
          2    1    1    2  501    0  0.36024334207E+02  0.26758437314E+01 -0.20698899251E+04  0.20702051142E+04  0.00000000000E+00 0. -1.
          1    1    1    2  502    0  0.61810920983E+01 -0.19765624102E+02  0.64714273471E+03  0.64747401869E+03  0.00000000000E+00 0. -1.
         22    1    3    3    0    0  0.11890015863E+02 -0.44666938500E+02  0.15882898173E+03  0.16541811663E+03  0.00000000000E+00 0.  1.
         22    1    3    3    0    0 -0.54095442168E+02  0.61756718871E+02  0.15379629993E+03  0.17433734844E+03  0.00000000000E+00 0.  1.
</event>
<event>
 7    1  0.5064652E-006  0.9926268E+02  0.7818608E-02  0.1466939E+00
          2   -1    0    0  502    0  0.00000000000E+00  0.00000000000E+00  0.33333716252E+03  0.33333716252E+03  0.00000000000E+00 0. -1.
          1   -1    0    0  501    0 -0.00000000000E+00 -0.00000000000E+00 -0.88521144002E+03  0.88521144002E+03  0.00000000000E+00 0. -1.
         25    2    1    2    0    0  0.61165356830E+01 -0.82717292499E+02  0.11001435301E+03  0.18603132946E+03  0.12499974075E+03 0.  0.
          2    1    1    2  501    0 -0.22090324832E+02  0.97123278501E+02 -0.84363898021E+03  0.84949846534E+03  0.00000000000E+00 0. -1.
          1    1    1    2  502    0  0.15973789149E+02 -0.14405986002E+02  0.18175034970E+03  0.18301880775E+03  0.00000000000E+00 0. -1.
         22    1    3    3    0    0 -0.44549966219E+02 -0.26078374603E+02  0.95651412951E+02  0.10869210602E+03  0.00000000000E+00 0. -1.
         22    1    3    3    0    0  0.50666501902E+02 -0.56638917896E+02  0.14362940060E+02  0.77339223442E+02  0.00000000000E+00 0. -1.
</event>
<event>
 7    1  0.5064652E-006  0.5747515E+02  0.7818608E-02  0.1554338E+00
          2   -1    0    0  502    0  0.00000000000E+00  0.00000000000E+00  0.34040162335E+02  0.34040162335E+02  0.00000000000E+00 0. -1.
          1   -1    0    0  501    0 -0.00000000000E+00 -0.00000000000E+00 -0.69692267725E+03  0.69692267725E+03  0.00000000000E+00 0. -1.
         25    2    1    2    0    0 -0.54098319355E+00 -0.40974616851E+02 -0.26500802797E+03  0.29586126801E+03  0.12500169253E+03 0.  0.
          2    1    1    2  501    0  0.76350007434E+01 -0.19072482703E+02 -0.36632529590E+03  0.36690090658E+03  0.00000000000E+00 0. -1.
          1    1    1    2  502    0 -0.70940175499E+01  0.60047099554E+02 -0.31549191049E+02  0.68200664994E+02  0.00000000000E+00 0. -1.
         22    1    3    3    0    0  0.16024234090E+02 -0.64484669180E+02 -0.25778158089E+03  0.26620742304E+03  0.00000000000E+00 0. -1.
         22    1    3    3    0    0 -0.16565217284E+02  0.23510052329E+02 -0.72264470791E+01  0.29653844971E+02  0.00000000000E+00 0. -1.
</event>
<event>
 7    1  0.5064652E-006  0.5087305E+02  0.7818608E-02  0.1492164E+00
          2   -1    0    0  502    0  0.00000000000E+00  0.00000000000E+00  0.39291484568E+03  0.39291484568E+03  0.00000000000E+00 0. -1.
          1   -1    0    0  501    0 -0.00000000000E+00 -0.00000000000E+00 -0.13069957021E+04  0.13069957021E+04  0.00000000000E+00 0. -1.
         25    2    1    2    0    0 -0.49838655480E+02  0.77094079075E+01 -0.32914536719E+02  0.13874993958E+03  0.12499940983E+03 0.  0.
          2    1    1    2  501    0  0.43383331507E+02  0.26808539788E+02 -0.12197224562E+04  0.12207881395E+04  0.00000000000E+00 0. -1.
          1    1    1    2  502    0  0.64553239733E+01 -0.34517947696E+02  0.33855613650E+03  0.34037246875E+03  0.00000000000E+00 0. -1.
         22    1    3    3    0    0 -0.29997319282E+02 -0.50976300595E+02 -0.46609465988E+02  0.75305143956E+02  0.00000000000E+00 0.  1.
         22    1    3    3    0    0 -0.19841336198E+02  0.58685708503E+02  0.13694929269E+02  0.63444795628E+02  0.00000000000E+00 0.  1.
</event>
<event>
 7    1  0.6260675E-006  0.7704865E+02  0.7818608E-02  0.1448349E+00
          2   -1    0    0  502    0  0.00000000000E+00  0.00000000000E+00  0.61925586676E+03  0.61925586676E+03  0.00000000000E+00 0. -1.
          1   -1    0    0  501    0 -0.00000000000E+00 -0.00000000000E+00 -0.15609754784E+04  0.15609754784E+04  0.00000000000E+00 0. -1.
         25    2    1    2    0    0  0.46620519673E+02 -0.17393217705E+02 -0.23575632293E+03  0.27144377201E+03  0.12499872272E+03 0.  0.
          2    1    1    2  501    0  0.16720476720E+02 -0.26970305294E+02 -0.13046958094E+04  0.13050816552E+04  0.00000000000E+00 0. -1.
          1    1    1    2  502    0 -0.63340996394E+02  0.44363522999E+02  0.59873252070E+03  0.60370591793E+03  0.00000000000E+00 0. -1.
         22    1    3    3    0    0 -0.39297617535E+02  0.10109339136E+02 -0.46028938774E+02  0.61360937789E+02  0.00000000000E+00 0.  1.
         22    1    3    3    0    0  0.85918137208E+02 -0.27502556841E+02 -0.18972738416E+03  0.21008283422E+03  0.00000000000E+00 0.  1.
</event>
<event>
 7    1  0.5064652E-006  0.4321193E+02  0.7818608E-02  0.1517677E+00
          2   -1    0    0  502    0  0.00000000000E+00  0.00000000000E+00  0.30624832753E+04  0.30624832753E+04  0.00000000000E+00 0. -1.
          1   -1    0    0  501    0 -0.00000000000E+00 -0.00000000000E+00 -0.29375462411E+02  0.29375462411E+02  0.00000000000E+00 0. -1.
         25    2    1    2    0    0 -0.18909580430E+02 -0.15100226271E+02  0.23828327509E+04  0.23862308425E+04  0.12498050062E+03 0.  0.
          2    1    1    2  501    0 -0.15411686514E+02 -0.31128647151E+02 -0.15022002951E+02  0.37844065946E+02  0.00000000000E+00 0. -1.
          1    1    1    2  502    0  0.34321266943E+02  0.46228873423E+02  0.66529706493E+03  0.66778382932E+03  0.00000000000E+00 0. -1.
         22    1    3    3    0    0  0.61815914842E+01 -0.52633788186E+02  0.20064815934E+04  0.20071813352E+04  0.00000000000E+00 0.  1.
         22    1    3    3    0    0 -0.25091171914E+02  0.37533561915E+02  0.37635115758E+03  0.37904950730E+03  0.00000000000E+00 0.  1.
</event>
<event>
 7    1  0.5064652E-006  0.5163141E+02  0.7818608E-02  0.1460062E+00
          2   -1    0    0  502    0  0.00000000000E+00  0.00000000000E+00  0.21798814574E+04  0.21798814574E+04  0.00000000000E+00 0. -1.
          1   -1    0    0  501    0 -0.00000000000E+00 -0.00000000000E+00 -0.44666837817E+02  0.44666837817E+02  0.00000000000E+00 0. -1.
         25    2    1    2    0    0 -0.51056755064E+02  0.51784550045E+02  0.28978671697E+03  0.32386726054E+03  0.12500091703E+03 0.  0.
          2    1    1    2  501    0  0.50290874265E+02 -0.83296546806E+01 -0.36368329580E+01  0.51105593974E+02  0.00000000000E+00 0. -1.
          1    1    1    2  502    0  0.76588079907E+00 -0.43454895365E+02  0.18490647356E+04  0.18495754407E+04  0.00000000000E+00 0. -1.
         22    1    3    3    0    0 -0.42269874238E+02 -0.13389385599E+02  0.23238030081E+03  0.23657265717E+03  0.00000000000E+00 0.  1.
         22    1    3    3    0    0 -0.87868808268E+01  0.65173935645E+02  0.57406416157E+02  0.87294603373E+02  0.00000000000E+00 0.  1.
</event>
<event>
 7    1  0.5064652E-006  0.9370684E+02  0.7818608E-02  0.1348652E+00
          2   -1    0    0  502    0  0.00000000000E+00  0.00000000000E+00  0.16049935468E+03  0.16049935468E+03  0.00000000000E+00 0. -1.
          1   -1    0    0  501    0 -0.00000000000E+00 -0.00000000000E+00 -0.84313261424E+03  0.84313261424E+03  0.00000000000E+00 0. -1.
         25    2    1    2    0    0 -0.82077956871E+02  0.12218168454E+03 -0.31699090183E+03  0.37117866420E+03  0.12500085548E+03 0.  0.
          2    1    1    2  501    0  0.22428508352E+02 -0.53070296192E+02 -0.48150815781E+03  0.48494288361E+03  0.00000000000E+00 0. -1.
          1    1    1    2  502    0  0.59649448519E+02 -0.69111388352E+02  0.11586580008E+03  0.14751042111E+03  0.00000000000E+00 0. -1.
         22    1    3    3    0    0 -0.89186650377E+02  0.11723873306E+03 -0.17423341262E+03  0.22815885082E+03  0.00000000000E+00 0.  1.
         22    1    3    3    0    0  0.71086935060E+01  0.49429514864E+01 -0.14275748921E+03  0.14301981338E+03  0.00000000000E+00 0.  1.
</event>
<event>
 7    1  0.5064652E-006  0.9544444E+02  0.7818608E-02  0.1465904E+00
          2   -1    0    0  502    0  0.00000000000E+00  0.00000000000E+00  0.25307826603E+04  0.25307826603E+04  0.00000000000E+00 0. -1.
          1   -1    0    0  501    0 -0.00000000000E+00 -0.00000000000E+00 -0.91858904208E+03  0.91858904208E+03  0.00000000000E+00 0. -1.
         25    2    1    2    0    0  0.35649607031E+01 -0.78882449931E+02  0.10962963040E+04  0.11062215776E+04  0.12500177053E+03 0.  0.
          2    1    1    2  501    0 -0.10875854695E+01 -0.22511836109E+02 -0.91168794365E+03  0.91196648633E+03  0.00000000000E+00 0. -1.
          1    1    1    2  502    0 -0.24773752337E+01  0.10139428604E+03  0.14275852579E+04  0.14311836385E+04  0.00000000000E+00 0. -1.
         22    1    3    3    0    0  0.59674295087E+02 -0.50214924691E+02  0.43552289687E+03  0.44245084909E+03  0.00000000000E+00 0.  1.
         22    1    3    3    0    0 -0.56109334384E+02 -0.28667525240E+02  0.66077340715E+03  0.66377072849E+03  0.00000000000E+00 0.  1.
</event>
<event>
 7    1  0.5064652E-006  0.6229505E+02  0.7818608E-02  0.1440956E+00
          2   -1    0    0  502    0  0.00000000000E+00  0.00000000000E+00  0.26617441115E+04  0.26617441115E+04  0.00000000000E+00 0. -1.
          1   -1    0    0  501    0 -0.00000000000E+00 -0.00000000000E+00 -0.47506291011E+03  0.47506291011E+03  0.00000000000E+00 0. -1.
         25    2    1    2    0    0 -0.11758415845E+02  0.38352098601E+02  0.19090348437E+03  0.23168596191E+03  0.12500040315E+03 0.  0.
          2    1    1    2  501    0  0.52931227347E+02 -0.33459210224E+02 -0.45233921393E+03  0.45665303901E+03  0.00000000000E+00 0. -1.
          1    1    1    2  502    0 -0.41172811502E+02 -0.48928883771E+01  0.24481169310E+04  0.24484680207E+04  0.00000000000E+00 0. -1.
         22    1    3    3    0    0 -0.34701097848E+02  0.77114702444E+02  0.10623838966E+03  0.13578453138E+03  0.00000000000E+00 0.  1.
         22    1    3    3    0    0  0.22942682003E+02 -0.38762603843E+02  0.84665094708E+02  0.95901430521E+02  0.00000000000E+00 0.  1.
</event>
<event>
 7    1  0.5064652E-006  0.7656523E+02  0.7818608E-02  0.1403266E+00
          2   -1    0    0  502    0  0.00000000000E+00  0.00000000000E+00  0.14627282776E+04  0.14627282776E+04  0.00000000000E+00 0. -1.
          1   -1    0    0  501    0 -0.00000000000E+00 -0.00000000000E+00 -0.35811777767E+03  0.35811777767E+03  0.00000000000E+00 0. -1.
         25    2    1    2    0    0  0.31624598101E+02 -0.35836820250E+02 -0.73279201716E+02  0.15254152762E+03  0.12495872661E+03 0.  0.
          2    1    1    2  501    0 -0.76392436816E+02  0.30892937694E+02 -0.23791627983E+03  0.25178231513E+03  0.00000000000E+00 0. -1.
          1    1    1    2  502    0  0.44767838715E+02  0.49438825562E+01  0.14158059815E+04  0.14165222126E+04  0.00000000000E+00 0. -1.
         22    1    3    3    0    0 -0.77857711969E+01 -0.46734905143E+02 -0.95059969371E+02  0.10621283994E+03  0.00000000000E+00 0. -1.
         22    1    3    3    0    0  0.39410369298E+02  0.10898084893E+02  0.21780767656E+02  0.46328687680E+02  0.00000000000E+00 0. -1.
</event>
<event>
 7    1  0.5064652E-006  0.5434704E+02  0.7818608E-02  0.1529104E+00
          2   -1    0    0  502    0  0.00000000000E+00  0.00000000000E+00  0.99890748472E+01  0.99890748472E+01  0.00000000000E+00 0. -1.
          1   -1    0    0  501    0 -0.00000000000E+00 -0.00000000000E+00 -0.20129917748E+04  0.20129917748E+04  0.00000000000E+00 0. -1.
         25    2    1    2    0    0  0.71521654814E+02  0.16517488568E+01 -0.10861670042E+04  0.10956738903E+04  0.12499774940E+03 0.  0.
          2    1    1    2  501    0 -0.21424222610E+02  0.14004458308E+02 -0.78485938528E+03  0.78527662440E+03  0.00000000000E+00 0. -1.
          1    1    1    2  502    0 -0.50097432205E+02 -0.15656207165E+02 -0.13197631043E+03  0.14203033497E+03  0.00000000000E+00 0. -1.
         22    1    3    3    0    0  0.36302697479E+02  0.20001842525E+02 -0.94238506728E+02  0.10295074404E+03  0.00000000000E+00 0. -1.
         22    1    3    3    0    0  0.35218957336E+02 -0.18350093668E+02 -0.99192849752E+03  0.99272314624E+03  0.00000000000E+00 0. -1.
</event>
<event>
 7    1  0.5064652E-006  0.2993159E+03  0.7818608E-02  0.1293942E+00
          2   -1    0    0  502    0  0.00000000000E+00  0.00000000000E+00  0.38035411158E+03  0.38035411158E+03  0.00000000000E+00 0. -1.
          1   -1    0    0  501    0 -0.00000000000E+00 -0.00000000000E+00 -0.37365159136E+03  0.37365159136E+03  0.00000000000E+00 0. -1.
         25    2    1    2    0    0  0.36139812033E+02 -0.31240731666E+03 -0.74422429952E+02  0.34650767379E+03  0.12499780958E+03 0.  0.
          2    1    1    2  501    0 -0.29939761177E+02  0.28368468493E+03 -0.35287347210E+02  0.28743449103E+03  0.00000000000E+00 0. -1.
          1    1    1    2  502    0 -0.62000508559E+01  0.28722631738E+02  0.11641229738E+03  0.12006353812E+03  0.00000000000E+00 0. -1.
         22    1    3    3    0    0  0.10045444837E+01  0.10124073299E+02 -0.12660664101E+02  0.16241871359E+02  0.00000000000E+00 0.  1.
         22    1    3    3    0    0  0.35135267549E+02 -0.32253138996E+03 -0.61761765851E+02  0.33026580243E+03  0.00000000000E+00 0.  1.
</event>
<event>
 7    1  0.5064652E-006  0.6675820E+02  0.7818608E-02  0.1408448E+00
          2   -1    0    0  502    0  0.00000000000E+00  0.00000000000E+00  0.72477494964E+03  0.72477494964E+03  0.00000000000E+00 0. -1.
          1   -1    0    0  501    0 -0.00000000000E+00 -0.00000000000E+00 -0.70673384825E+03  0.70673384825E+03  0.00000000000E+00 0. -1.
         25    2    1    2    0    0 -0.89000242894E+02  0.67530439942E+02 -0.22981307414E+03  0.28446515852E+03  0.12499989526E+03 0.  0.
          2    1    1    2  501    0  0.28070185041E+02 -0.40889856922E+02 -0.44663377360E+03  0.44937917554E+03  0.00000000000E+00 0. -1.
          1    1    1    2  502    0  0.60930057853E+02 -0.26640583020E+02  0.69448794912E+03  0.69766446383E+03  0.00000000000E+00 0. -1.
         22    1    3    3    0    0 -0.46908921345E+02  0.98264165278E+02 -0.18957974392E+03  0.21862472958E+03  0.00000000000E+00 0.  1.
         22    1    3    3    0    0 -0.42091321549E+02 -0.30733725336E+02 -0.40233330213E+02  0.65840428938E+02  0.00000000000E+00 0.  1.
</event>
<event>
 7    1  0.5064652E-006  0.8711116E+02  0.7818608E-02  0.1426488E+00
          2   -1    0    0  502    0  0.00000000000E+00  0.00000000000E+00  0.19825355517E+04  0.19825355517E+04  0.00000000000E+00 0. -1.
          1   -1    0    0  501    0 -0.00000000000E+00 -0.00000000000E+00 -0.80307199508E+03  0.80307199508E+03  0.00000000000E+00 0. -1.
         25    2    1    2    0    0  0.51561640683E+02  0.31863662154E+02  0.96691583419E+03  0.97684402258E+03  0.12499647313E+03 0.  0.
          2    1    1    2  501    0 -0.83741360323E+02 -0.24248808384E+02 -0.79545513034E+03  0.80021839802E+03  0.00000000000E+00 0. -1.
          1    1    1    2  502    0  0.32179719641E+02 -0.76148537694E+01  0.10080028528E+04  0.10085451262E+04  0.00000000000E+00 0. -1.
         22    1    3    3    0    0  0.52233296156E+02  0.75249667468E+02  0.75461067325E+03  0.76015004957E+03  0.00000000000E+00 0.  1.
         22    1    3    3    0    0 -0.67165547360E+00 -0.43386005314E+02  0.21230516094E+03  0.21669397301E+03  0.00000000000E+00 0.  1.
</event>
<event>
 7    1  0.5064652E-006  0.3876737E+02  0.7818608E-02  0.1556091E+00
          2   -1    0    0  502    0  0.00000000000E+00  0.00000000000E+00  0.15075410087E+04  0.15075410087E+04  0.00000000000E+00 0. -1.
          1   -1    0    0  501    0 -0.00000000000E+00 -0.00000000000E+00 -0.66826856448E+03  0.66826856448E+03  0.00000000000E+00 0. -1.
         25    2    1    2    0    0 -0.55292548612E+02 -0.34248980563E+02 -0.18574830908E+03  0.23314725640E+03  0.12499980096E+03 0.  0.
          2    1    1    2  501    0  0.36403017821E+02  0.10789631248E+02 -0.45788211026E+03  0.45945361327E+03  0.00000000000E+00 0. -1.
          1    1    1    2  502    0  0.18889530791E+02  0.23459349316E+02  0.14829028636E+04  0.14832087036E+04  0.00000000000E+00 0. -1.
         22    1    3    3    0    0  0.66351037648E+01  0.40593408454E+02 -0.77239038898E+02  0.87508391264E+02  0.00000000000E+00 0. -1.
         22    1    3    3    0    0 -0.61927652377E+02 -0.74842389017E+02 -0.10850927018E+03  0.14563886513E+03  0.00000000000E+00 0. -1.
</event>
<event>
 7    1  0.5064652E-006  0.5674163E+02  0.7818608E-02  0.1495317E+00
          2   -1    0    0  502    0  0.00000000000E+00  0.00000000000E+00  0.14935126010E+03  0.14935126010E+03  0.00000000000E+00 0. -1.
          1   -1    0    0  501    0 -0.00000000000E+00 -0.00000000000E+00 -0.19013532213E+04  0.19013532213E+04  0.00000000000E+00 0. -1.
         25    2    1    2    0    0  0.14220948515E+02 -0.81172418525E+02 -0.33946433559E+02  0.15352002745E+03  0.12499936628E+03 0.  0.
          2    1    1    2  501    0 -0.23049445091E+02  0.51660814024E+02 -0.18045149913E+04  0.18054014707E+04  0.00000000000E+00 0. -1.
          1    1    1    2  502    0  0.88284965765E+01  0.29511604501E+02  0.86459463666E+02  0.91782983224E+02  0.00000000000E+00 0. -1.
         22    1    3    3    0    0  0.57446063584E+02 -0.71079209683E+02  0.89039797647E+01  0.91823663215E+02  0.00000000000E+00 0.  1.
         22    1    3    3    0    0 -0.43225115070E+02 -0.10093208842E+02 -0.42850413324E+02  0.61696364233E+02  0.00000000000E+00 0.  1.
</event>
<event>
 7    1  0.5064652E-006  0.3841380E+02  0.7818608E-02  0.1602184E+00
          2   -1    0    0  502    0  0.00000000000E+00  0.00000000000E+00  0.62907057339E+03  0.62907057339E+03  0.00000000000E+00 0. -1.
          1   -1    0    0  501    0 -0.00000000000E+00 -0.00000000000E+00 -0.24647350136E+02  0.24647350136E+02  0.00000000000E+00 0. -1.
         25    2    1    2    0    0 -0.20765221143E+02  0.37446515468E+02  0.23892724923E+03  0.27302880320E+03  0.12500024409E+03 0.  0.
          2    1    1    2  501    0 -0.20666634194E+01 -0.38560163354E+02  0.44658938722E+02  0.59038784738E+02  0.00000000000E+00 0. -1.
          1    1    1    2  502    0  0.22831884563E+02  0.11136478856E+01  0.32083703530E+03  0.32165033559E+03  0.00000000000E+00 0. -1.
         22    1    3    3    0    0  0.46867313267E+02 -0.83971615019E+01  0.11635846918E+03  0.12572331018E+03  0.00000000000E+00 0.  1.
         22    1    3    3    0    0 -0.67632534410E+02  0.45843676970E+02  0.12256878006E+03  0.14730549302E+03  0.00000000000E+00 0.  1.
</event>
<event>
 7    1  0.5064652E-006  0.5490765E+02  0.7818608E-02  0.1488115E+00
          2   -1    0    0  502    0  0.00000000000E+00  0.00000000000E+00  0.29321811528E+03  0.29321811528E+03  0.00000000000E+00 0. -1.
          1   -1    0    0  501    0 -0.00000000000E+00 -0.00000000000E+00 -0.20602016635E+03  0.20602016635E+03  0.00000000000E+00 0. -1.
         25    2    1    2    0    0  0.34656227403E+02 -0.80300164960E+02  0.12108947042E+03  0.19477353592E+03  0.12499959944E+03 0.  0.
          2    1    1    2  501    0 -0.20670095277E+02  0.49896113887E+02 -0.16267385624E+03  0.17140495479E+03  0.00000000000E+00 0. -1.
          1    1    1    2  502    0 -0.13986132125E+02  0.30404051072E+02  0.12878233476E+03  0.13305979092E+03  0.00000000000E+00 0. -1.
         22    1    3    3    0    0  0.79969332565E+02 -0.69412908138E+02  0.81484002700E+02  0.13361470227E+03  0.00000000000E+00 0.  1.
         22    1    3    3    0    0 -0.45313105163E+02 -0.10887256822E+02  0.39605467718E+02  0.61158833653E+02  0.00000000000E+00 0.  1.
</event>
<event>
 7    1  0.5064652E-006  0.1158011E+03  0.7818608E-02  0.1303142E+00
          2   -1    0    0  502    0  0.00000000000E+00  0.00000000000E+00  0.18442414113E+04  0.18442414113E+04  0.00000000000E+00 0. -1.
          1   -1    0    0  501    0 -0.00000000000E+00 -0.00000000000E+00 -0.21166648443E+03  0.21166648443E+03  0.00000000000E+00 0. -1.
         25    2    1    2    0    0 -0.36562490627E+02 -0.40552502920E+02 -0.55792965489E+02  0.14736488075E+03  0.12498892698E+03 0.  0.
          2    1    1    2  501    0 -0.69063206139E+02 -0.98449268504E+01 -0.96924110107E+02  0.11941914481E+03  0.00000000000E+00 0. -1.
          1    1    1    2  502    0  0.10562569677E+03  0.50397429770E+02  0.17852920024E+04  0.17891238701E+04  0.00000000000E+00 0. -1.
         22    1    3    3    0    0 -0.17228916623E+02 -0.74694841042E+02 -0.71760972463E+02  0.10500377143E+03  0.00000000000E+00 0. -1.
         22    1    3    3    0    0 -0.19333574004E+02  0.34142338122E+02  0.15968006974E+02  0.42361109321E+02  0.00000000000E+00 0. -1.
</event>
<event>
 7    1  0.5064652E-006  0.5989237E+02  0.7818608E-02  0.1470786E+00
          2   -1    0    0  502    0  0.00000000000E+00  0.00000000000E+00  0.33442085664E+03  0.33442085664E+03  0.00000000000E+00 0. -1.
          1   -1    0    0  501    0 -0.00000000000E+00 -0.00000000000E+00 -0.13974586731E+03  0.13974586731E+03  0.00000000000E+00 0. -1.
         25    2    1    2    0    0 -0.26163406086E+02  0.56053061799E+02  0.24722424870E+03  0.28385284297E+03  0.12500455095E+03 0.  0.
          2    1    1    2  501    0  0.50993206506E+02 -0.31842205407E+02 -0.10875778674E+03  0.12426781294E+03  0.00000000000E+00 0. -1.
          1    1    1    2  502    0 -0.24829800420E+02 -0.24210856393E+02  0.56208527363E+02  0.66046068047E+02  0.00000000000E+00 0. -1.
         22    1    3    3    0    0  0.31153787701E+02 -0.78034208922E+01  0.15332411517E+03  0.15665163950E+03  0.00000000000E+00 0. -1.
         22    1    3    3    0    0 -0.57317193787E+02  0.63856482692E+02  0.93900133535E+02  0.12720120347E+03  0.00000000000E+00 0. -1.
</event>
<event>
 7    1  0.5064652E-006  0.8294728E+02  0.7818608E-02  0.1339705E+00
          2   -1    0    0  502    0  0.00000000000E+00  0.00000000000E+00  0.10691343242E+04  0.10691343242E+04  0.00000000000E+00 0. -1.
          1   -1    0    0  501    0 -0.00000000000E+00 -0.00000000000E+00 -0.18958040356E+03  0.18958040356E+03  0.00000000000E+00 0. -1.
         25    2    1    2    0    0 -0.17080643393E+02 -0.27062469005E+02  0.34962122081E+03  0.37267239024E+03  0.12500234719E+03 0.  0.
          2    1    1    2  501    0 -0.62971884480E+02 -0.31249106085E+02 -0.16747838060E+03  0.18163417309E+03  0.00000000000E+00 0. -1.
          1    1    1    2  502    0  0.80052527873E+02  0.58311575089E+02  0.69741108045E+03  0.70440816445E+03  0.00000000000E+00 0. -1.
         22    1    3    3    0    0 -0.23381698400E+02 -0.65422741814E+02  0.11131952166E+03  0.13122071052E+03  0.00000000000E+00 0.  1.
         22    1    3    3    0    0  0.63010550069E+01  0.38360272809E+02  0.23830169915E+03  0.24145167972E+03  0.00000000000E+00 0.  1.
</event>
<event>
 7    1  0.5064652E-006  0.1502761E+03  0.7818608E-02  0.1315110E+00
          2   -1    0    0  502    0  0.00000000000E+00  0.00000000000E+00  0.24786392083E+04  0.24786392083E+04  0.00000000000E+00 0. -1.
          1   -1    0    0  501    0 -0.00000000000E+00 -0.00000000000E+00 -0.21447711477E+03  0.21447711477E+03  0.00000000000E+00 0. -1.
         25    2    1    2    0    0  0.40409962473E+02 -0.17350393277E+03  0.91718468486E+03  0.94264993537E+03  0.12499829899E+03 0.  0.
          2    1    1    2  501    0  0.14555698430E+01  0.14958195838E+03 -0.17358046597E+03  0.22914418850E+03  0.00000000000E+00 0. -1.
          1    1    1    2  502    0 -0.41865532316E+02  0.23921974385E+02  0.15205578746E+04  0.15213221992E+04  0.00000000000E+00 0. -1.
         22    1    3    3    0    0  0.44900391509E+02 -0.11638574055E+03  0.33192624641E+03  0.35459373770E+03  0.00000000000E+00 0. -1.
         22    1    3    3    0    0 -0.44904290360E+01 -0.57118192218E+02  0.58525843845E+03  0.58805619766E+03  0.00000000000E+00 0. -1.
</event>
<event>
 7    1  0.5064652E-006  0.6967944E+02  0.7818608E-02  0.1454805E+00
          2   -1    0    0  502    0  0.00000000000E+00  0.00000000000E+00  0.70558632438E+03  0.70558632438E+03  0.00000000000E+00 0. -1.
          1   -1    0    0  501    0 -0.00000000000E+00 -0.00000000000E+00 -0.13499537408E+04  0.13499537408E+04  0.00000000000E+00 0. -1.
         25    2    1    2    0    0  0.11978700569E+02 -0.94632269918E+02 -0.74291071976E+02  0.17390151493E+03  0.12499527088E+03 0.  0.
          2    1    1    2  501    0  0.14065316899E+02  0.30363068978E+02 -0.12237948636E+04  0.12242522687E+04  0.00000000000E+00 0. -1.
          1    1    1    2  502    0 -0.26044017467E+02  0.64269200940E+02  0.65371851913E+03  0.65738628164E+03  0.00000000000E+00 0. -1.
         22    1    3    3    0    0 -0.18535284918E+02 -0.11695675675E+03 -0.64511268411E+02  0.13484859468E+03  0.00000000000E+00 0.  1.
         22    1    3    3    0    0  0.30513985487E+02  0.22324486827E+02 -0.97798035649E+01  0.39052920251E+02  0.00000000000E+00 0.  1.
</event>
<event>
 7    1  0.5124894E-006  0.5244238E+02  0.7818608E-02  0.1498168E+00
          2   -1    0    0  502    0  0.00000000000E+00  0.00000000000E+00  0.52892993536E+03  0.52892993536E+03  0.00000000000E+00 0. -1.
          1   -1    0    0  501    0 -0.00000000000E+00 -0.00000000000E+00 -0.23458821587E+04  0.23458821587E+04  0.00000000000E+00 0. -1.
         25    2    1    2    0    0  0.39768731777E+02  0.53508171223E+02 -0.36075825345E+03  0.38757506330E+03  0.12499294320E+03 0.  0.
          2    1    1    2  501    0  0.79047571266E+01 -0.31709179904E+02 -0.19702470382E+04  0.19705180407E+04  0.00000000000E+00 0. -1.
          1    1    1    2  502    0 -0.47673488903E+02 -0.21798991319E+02  0.51405306834E+03  0.51671899001E+03  0.00000000000E+00 0. -1.
         22    1    3    3    0    0  0.75856203385E+02  0.32468373031E+02 -0.13682832567E+03  0.15978219408E+03  0.00000000000E+00 0. -1.
         22    1    3    3    0    0 -0.36087471608E+02  0.21039798192E+02 -0.22392992778E+03  0.22779286922E+03  0.00000000000E+00 0. -1.
</event>
<event>
 7    1  0.5064652E-006  0.3636535E+02  0.7818608E-02  0.1540543E+00
          2   -1    0    0  502    0  0.00000000000E+00  0.00000000000E+00  0.19159316381E+03  0.19159316381E+03  0.00000000000E+00 0. -1.
          1   -1    0    0  501    0 -0.00000000000E+00 -0.00000000000E+00 -0.71435880519E+03  0.71435880519E+03  0.00000000000E+00 0. -1.
         25    2    1    2    0    0 -0.65136256069E+01  0.71674278059E+01 -0.22552940900E+03  0.25803482089E+03  0.12499862049E+03 0.  0.
          2    1    1    2  501    0  0.31693478048E+02  0.19070204751E+02 -0.46995663148E+03  0.47140999643E+03  0.00000000000E+00 0. -1.
          1    1    1    2  502    0 -0.25179852441E+02 -0.26237632557E+02  0.17272039910E+03  0.17650715169E+03  0.00000000000E+00 0. -1.
         22    1    3    3    0    0  0.70854029523E+01  0.52509367875E+02 -0.19412855195E+03  0.20122954885E+03  0.00000000000E+00 0. -1.
         22    1    3    3    0    0 -0.13599028559E+02 -0.45341940069E+02 -0.31400857052E+02  0.56805272032E+02  0.00000000000E+00 0. -1.
</event>
<event>
 7    1  0.5064652E-006  0.5514278E+02  0.7818608E-02  0.1426019E+00
          2   -1    0    0  502    0  0.00000000000E+00  0.00000000000E+00  0.97421898445E+03  0.97421898445E+03  0.00000000000E+00 0. -1.
          1   -1    0    0  501    0 -0.00000000000E+00 -0.00000000000E+00 -0.48084834181E+03  0.48084834181E+03  0.00000000000E+00 0. -1.
         25    2    1    2    0    0  0.32238819012E+02 -0.73494779456E+02 -0.16131181623E+03  0.21928991254E+03  0.12500295847E+03 0.  0.
          2    1    1    2  501    0  0.17365419673E+02  0.49466910712E+02 -0.28737043454E+03  0.29211350483E+03  0.00000000000E+00 0. -1.
          1    1    1    2  502    0 -0.49604238685E+02  0.24027868744E+02  0.94205289341E+03  0.94366390890E+03  0.00000000000E+00 0. -1.
         22    1    3    3    0    0 -0.28144045236E+02 -0.60055194408E+02 -0.27361117171E+02  0.71744995578E+02  0.00000000000E+00 0.  1.
         22    1    3    3    0    0  0.60382864248E+02 -0.13439585048E+02 -0.13395069906E+03  0.14754491696E+03  0.00000000000E+00 0.  1.
</event>
<event>
 7    1  0.5064652E-006  0.7398212E+02  0.7818608E-02  0.1458252E+00
          2   -1    0    0  502    0  0.00000000000E+00  0.00000000000E+00  0.45155177794E+03  0.45155177794E+03  0.00000000000E+00 0. -1.
          1   -1    0    0  501    0 -0.00000000000E+00 -0.00000000000E+00 -0.16180210677E+04  0.16180210677E+04  0.00000000000E+00 0. -1.
         25    2    1    2    0    0  0.10132521851E+03  0.56396242603E+01 -0.47110762855E+02  0.16776098199E+03  0.12500287130E+03 0.  0.
          2    1    1    2  501    0 -0.29554819390E+02  0.84289036426E+01 -0.15070091121E+04  0.15073224597E+04  0.00000000000E+00 0. -1.
          1    1    1    2  502    0 -0.71770399122E+02 -0.14068527903E+02  0.38765058513E+03  0.39448940394E+03  0.00000000000E+00 0. -1.
         22    1    3    3    0    0  0.62011404066E+02  0.39962576505E+02 -0.77801537963E+02  0.10721707450E+03  0.00000000000E+00 0.  1.
         22    1    3    3    0    0  0.39313814447E+02 -0.34322952245E+02  0.30690775108E+02  0.60543907488E+02  0.00000000000E+00 0.  1.
</event>
<event>
 7    1  0.5064652E-006  0.7970787E+02  0.7818608E-02  0.1397068E+00
          2   -1    0    0  502    0  0.00000000000E+00  0.00000000000E+00  0.26817148067E+03  0.26817148067E+03  0.00000000000E+00 0. -1.
          1   -1    0    0  501    0 -0.00000000000E+00 -0.00000000000E+00 -0.93567141600E+02  0.93567141600E+02  0.00000000000E+00 0. -1.
         25    2    1    2    0    0 -0.64661626010E+02  0.96902078354E+02  0.82809271819E+02  0.18987671227E+03  0.12499860678E+03 0.  0.
          2    1    1    2  501    0  0.30858748199E+02 -0.33354358232E+02 -0.10637718431E+02  0.46668368376E+02  0.00000000000E+00 0. -1.
          1    1    1    2  502    0  0.33802877811E+02 -0.63547720123E+02  0.10243278568E+03  0.12519354162E+03  0.00000000000E+00 0. -1.
         22    1    3    3    0    0 -0.55904082303E+02  0.38547318868E+02 -0.20474427785E+02  0.70925061884E+02  0.00000000000E+00 0.  1.
         22    1    3    3    0    0 -0.87575437069E+01  0.58354759487E+02  0.10328369960E+03  0.11895165039E+03  0.00000000000E+00 0.  1.
</event>
<event>
 7    1  0.5064652E-006  0.1108192E+03  0.7818608E-02  0.1458809E+00
          2   -1    0    0  502    0  0.00000000000E+00  0.00000000000E+00  0.10133950789E+03  0.10133950789E+03  0.00000000000E+00 0. -1.
          1   -1    0    0  501    0 -0.00000000000E+00 -0.00000000000E+00 -0.12310306924E+04  0.12310306924E+04  0.00000000000E+00 0. -1.
         25    2    1    2    0    0  0.85703718577E+01  0.11534447687E+03 -0.77745069421E+02  0.18720519673E+03  0.12499476087E+03 0.  0.
          2    1    1    2  501    0  0.11177369176E+02 -0.11009203798E+03 -0.10933804145E+04  0.10989658417E+04  0.00000000000E+00 0. -1.
          1    1    1    2  502    0 -0.19747741033E+02 -0.52524388862E+01  0.41434299402E+02  0.46199161866E+02  0.00000000000E+00 0. -1.
         22    1    3    3    0    0  0.33102803414E+02  0.82769805082E+02  0.10727245785E+02  0.89787025952E+02  0.00000000000E+00 0. -1.
         22    1    3    3    0    0 -0.24532431556E+02  0.32574671788E+02 -0.88472315206E+02  0.97418170780E+02  0.00000000000E+00 0. -1.
</event>
<event>
 7    1  0.5064652E-006  0.1068535E+03  0.7818608E-02  0.1381908E+00
          2   -1    0    0  502    0  0.00000000000E+00  0.00000000000E+00  0.20156694948E+04  0.20156694948E+04  0.00000000000E+00 0. -1.
          1   -1    0    0  501    0 -0.00000000000E+00 -0.00000000000E+00 -0.25848014219E+03  0.25848014219E+03  0.00000000000E+00 0. -1.
         25    2    1    2    0    0  0.12221431885E+03  0.37303171547E+02 -0.15420741123E+03  0.23607557264E+03  0.12499553584E+03 0.  0.
          2    1    1    2  501    0 -0.84148170156E+02 -0.33160635294E+02 -0.30764542670E+02  0.95535330425E+02  0.00000000000E+00 0. -1.
          1    1    1    2  502    0 -0.38066148693E+02 -0.41425362528E+01  0.19421613066E+04  0.19425387340E+04  0.00000000000E+00 0. -1.
         22    1    3    3    0    0  0.11879257704E+03 -0.60384048628E+00 -0.15816580147E+03  0.19780915483E+03  0.00000000000E+00 0. -1.
         22    1    3    3    0    0  0.34217418127E+01  0.37907012033E+02  0.39583902376E+01  0.38266417804E+02  0.00000000000E+00 0. -1.
</event>
<event>
 7    1  0.5064652E-006  0.4524042E+02  0.7818608E-02  0.1538155E+00
          2   -1    0    0  502    0  0.00000000000E+00  0.00000000000E+00  0.16295409197E+04  0.16295409197E+04  0.00000000000E+00 0. -1.
          1   -1    0    0  501    0 -0.00000000000E+00 -0.00000000000E+00 -0.12435026425E+02  0.12435026425E+02  0.00000000000E+00 0. -1.
         25    2    1    2    0    0 -0.32849177161E+01  0.34194649470E+02  0.43942859803E+03  0.45815134654E+03  0.12500039535E+03 0.  0.
          2    1    1    2  501    0  0.30786040652E+02 -0.43314228862E+02  0.24497565083E+03  0.25067303848E+03  0.00000000000E+00 0. -1.
          1    1    1    2  502    0 -0.27501122936E+02  0.91195793923E+01  0.93270164439E+03  0.93315156108E+03  0.00000000000E+00 0. -1.
         22    1    3    3    0    0  0.19087478227E+02  0.74762823710E+02  0.33719022732E+03  0.34590614483E+03  0.00000000000E+00 0.  1.
         22    1    3    3    0    0 -0.22372395943E+02 -0.40568174240E+02  0.10223837071E+03  0.11224520171E+03  0.00000000000E+00 0.  1.
</event>
<event>
 7    1  0.5064652E-006  0.1001299E+03  0.7818608E-02  0.1378662E+00
          2   -1    0    0  502    0  0.00000000000E+00  0.00000000000E+00  0.23632732518E+04  0.23632732518E+04  0.00000000000E+00 0. -1.
          1   -1    0    0  501    0 -0.00000000000E+00 -0.00000000000E+00 -0.21201209535E+04  0.21201209535E+04  0.00000000000E+00 0. -1.
         25    2    1    2    0    0  0.97841848362E+02  0.33234717227E+02  0.12181372278E+03  0.20283640158E+03  0.12500579598E+03 0.  0.
          2    1    1    2  501    0 -0.99794029110E+02  0.86774862906E+01 -0.20782031704E+04  0.20806159099E+04  0.00000000000E+00 0. -1.
          1    1    1    2  502    0  0.19521807484E+01 -0.41912203517E+02  0.21995417460E+04  0.21999418938E+04  0.00000000000E+00 0. -1.
         22    1    3    3    0    0  0.12532970912E+03  0.29961582725E+02  0.76857655397E+02  0.15004109977E+03  0.00000000000E+00 0.  1.
         22    1    3    3    0    0 -0.27487860759E+02  0.32731345010E+01  0.44956067385E+02  0.52795301810E+02  0.00000000000E+00 0.  1.
</event>
<event>
 7    1  0.5064652E-006  0.6035980E+02  0.7818608E-02  0.1448216E+00
          2   -1    0    0  502    0  0.00000000000E+00  0.00000000000E+00  0.16878972618E+04  0.16878972618E+04  0.00000000000E+00 0. -1.
          1   -1    0    0  501    0 -0.00000000000E+00 -0.00000000000E+00 -0.13057266145E+02  0.13057266145E+02  0.00000000000E+00 0. -1.
         25    2    1    2    0    0 -0.11818296346E+02 -0.45957954772E+02  0.12024900501E+04  0.12099004955E+04  0.12500033103E+03 0.  0.
          2    1    1    2  501    0 -0.39262818514E+02 -0.10121694987E+02  0.64324654571E+02  0.76037351431E+02  0.00000000000E+00 0. -1.
          1    1    1    2  502    0  0.51081114860E+02  0.56079649759E+02  0.40802529102E+03  0.41501668102E+03  0.00000000000E+00 0. -1.
         22    1    3    3    0    0  0.13464745098E+02  0.39334259428E+02  0.51563729898E+03  0.51731064886E+03  0.00000000000E+00 0. -1.
         22    1    3    3    0    0 -0.25283041445E+02 -0.85292214199E+02  0.68685275109E+03  0.69258984664E+03  0.00000000000E+00 0. -1.
</event>
<event>
 7    1  0.5064652E-006  0.1780141E+03  0.7818608E-02  0.1192747E+00
          2   -1    0    0  502    0  0.00000000000E+00  0.00000000000E+00  0.12153831369E+04  0.12153831369E+04  0.00000000000E+00 0. -1.
          1   -1    0    0  501    0 -0.00000000000E+00 -0.00000000000E+00 -0.43502719081E+03  0.43502719081E+03  0.00000000000E+00 0. -1.
         25    2    1    2    0    0 -0.71198997918E+02  0.78270804431E+02  0.59316076619E+03  0.61535325490E+03  0.12499727049E+03 0.  0.
          2    1    1    2  501    0 -0.20969323448E+02 -0.18033746561E+03 -0.39612336709E+03  0.43574652722E+03  0.00000000000E+00 0. -1.
          1    1    1    2  502    0  0.92168321366E+02  0.10206666118E+03  0.58331854702E+03  0.59931054562E+03  0.00000000000E+00 0. -1.
         22    1    3    3    0    0  0.13006207316E+02  0.70853426990E+02  0.36490862777E+03  0.37195117443E+03  0.00000000000E+00 0.  1.
         22    1    3    3    0    0 -0.84205205234E+02  0.74173774414E+01  0.22825213843E+03  0.24340208046E+03  0.00000000000E+00 0.  1.
</event>
<event>
 7    1  0.5064652E-006  0.4195422E+02  0.7818608E-02  0.1561692E+00
          2   -1    0    0  502    0  0.00000000000E+00  0.00000000000E+00  0.12222487393E+04  0.12222487393E+04  0.00000000000E+00 0. -1.
          1   -1    0    0  501    0 -0.00000000000E+00 -0.00000000000E+00 -0.27997867589E+04  0.27997867589E+04  0.00000000000E+00 0. -1.
         25    2    1    2    0    0  0.57636874025E+02 -0.23101097477E+02  0.37520543254E+02  0.14453000837E+03  0.12500184879E+03 0.  0.
          2    1    1    2  501    0 -0.41904225977E+02  0.13320095270E+01 -0.27459625526E+04  0.27462825926E+04  0.00000000000E+00 0. -1.
          1    1    1    2  502    0 -0.15732648048E+02  0.21769087950E+02  0.11309039897E+04  0.11312228973E+04  0.00000000000E+00 0. -1.
         22    1    3    3    0    0  0.94341202234E+02  0.30852398908E+01  0.22886847974E+02  0.97126664486E+02  0.00000000000E+00 0.  1.
         22    1    3    3    0    0 -0.36704328209E+02 -0.26186337368E+02  0.14633695280E+02  0.47403343886E+02  0.00000000000E+00 0.  1.
</event>
<event>
 7    1  0.5064652E-006  0.8839616E+02  0.7818608E-02  0.1387644E+00
          2   -1    0    0  502    0  0.00000000000E+00  0.00000000000E+00  0.61642458763E+03  0.61642458763E+03  0.00000000000E+00 0. -1.
          1   -1    0    0  501    0 -0.00000000000E+00 -0.00000000000E+00 -0.40824395573E+03  0.40824395573E+03  0.00000000000E+00 0. -1.
         25    2    1    2    0    0  0.72123988370E+02  0.44510567467E+01 -0.12261602563E+03  0.18942344684E+03  0.12499948346E+03 0.  0.
          2    1    1    2  501    0 -0.81500720154E+02 -0.47629906495E+02 -0.24251187013E+03  0.26023639740E+03  0.00000000000E+00 0. -1.
          1    1    1    2  502    0  0.93767317839E+01  0.43178849749E+02  0.57330852767E+03  0.57500869912E+03  0.00000000000E+00 0. -1.
         22    1    3    3    0    0  0.10629598325E+01 -0.52374168111E+02 -0.55810454160E+02  0.76544040673E+02  0.00000000000E+00 0.  1.
         22    1    3    3    0    0  0.71061028538E+02  0.56825224858E+02 -0.66805571472E+02  0.11287940617E+03  0.00000000000E+00 0.  1.
</event>
<event>
 7    1  0.5064652E-006  0.1038821E+03  0.7818608E-02  0.1395029E+00
          2   -1    0    0  502    0  0.00000000000E+00  0.00000000000E+00  0.63225663680E+03  0.63225663680E+03  0.00000000000E+00 0. -1.
          1   -1    0    0  501    0 -0.00000000000E+00 -0.00000000000E+00 -0.27678729841E+03  0.27678729841E+03  0.00000000000E+00 0. -1.
         25    2    1    2    0    0 -0.25955010816E+02  0.68636667791E+02 -0.79093850658E+02  0.16512340714E+03  0.12500099048E+03 0.  0.
          2    1    1    2  501    0  0.69914703844E+01  0.34739860355E+02 -0.14788205131E+03  0.15206853605E+03  0.00000000000E+00 0. -1.
          1    1    1    2  502    0  0.18963540431E+02 -0.10337652815E+03  0.58244524036E+03  0.59185199202E+03  0.00000000000E+00 0. -1.
         22    1    3    3    0    0  0.14917095700E+02 -0.29550554605E+02 -0.39742162369E+02  0.51722282349E+02  0.00000000000E+00 0. -1.
         22    1    3    3    0    0 -0.40872106516E+02  0.98187222396E+02 -0.39351688289E+02  0.11340112479E+03  0.00000000000E+00 0. -1.
</event>
<event>
 7    1  0.5064652E-006  0.8729535E+02  0.7818608E-02  0.1327096E+00
          2   -1    0    0  502    0  0.00000000000E+00  0.00000000000E+00  0.32094127714E+04  0.32094127714E+04  0.00000000000E+00 0. -1.
          1   -1    0    0  501    0 -0.00000000000E+00 -0.00000000000E+00 -0.94242537407E+02  0.94242537407E+02  0.00000000000E+00 0. -1.
         25    2    1    2    0    0  0.12838409552E+03 -0.18707557312E+02  0.64501388251E+03  0.66970066294E+03  0.12499448243E+03 0.  0.
          2    1    1    2  501    0 -0.50448718550E+02  0.54941965004E+02 -0.64034845135E+02  0.98306429664E+02  0.00000000000E+00 0. -1.
          1    1    1    2  502    0 -0.77935376966E+02 -0.36234407691E+02  0.25341911966E+04  0.25356482162E+04  0.00000000000E+00 0. -1.
         22    1    3    3    0    0  0.64716606644E+02 -0.61363529098E+02  0.21259961685E+03  0.23054786697E+03  0.00000000000E+00 0.  1.
         22    1    3    3    0    0  0.63667488871E+02  0.42655971786E+02  0.43241426566E+03  0.43915279598E+03  0.00000000000E+00 0.  1.
</event>
<event>
 7    1  0.5064652E-006  0.2696227E+03  0.7818608E-02  0.1290997E+00
          2   -1    0    0  502    0  0.00000000000E+00  0.00000000000E+00  0.21013562885E+03  0.21013562885E+03  0.00000000000E+00 0. -1.
          1   -1    0    0  501    0 -0.00000000000E+00 -0.00000000000E+00 -0.14983302482E+04  0.14983302482E+04  0.00000000000E+00 0. -1.
         25    2    1    2    0    0 -0.24820023885E+03 -0.17159477273E+02 -0.69594739486E+03  0.74957728701E+03  0.12500210625E+03 0.  0.
          2    1    1    2  501    0 -0.24415888422E+02  0.22979058914E+02 -0.67352168170E+03  0.67435571361E+03  0.00000000000E+00 0. -1.
          1    1    1    2  502    0  0.27261612728E+03 -0.58195816412E+01  0.81274457192E+02  0.28453287644E+03  0.00000000000E+00 0. -1.
         22    1    3    3    0    0 -0.11777285156E+03 -0.24031453162E+02 -0.49889342136E+03  0.51316917403E+03  0.00000000000E+00 0.  1.
         22    1    3    3    0    0 -0.13042738730E+03  0.68719758896E+01 -0.19705397350E+03  0.23640811298E+03  0.00000000000E+00 0.  1.
</event>
<event>
 7    1  0.5064652E-006  0.6326724E+02  0.7818608E-02  0.1420335E+00
          2   -1    0    0  502    0  0.00000000000E+00  0.00000000000E+00  0.65535906075E+03  0.65535906075E+03  0.00000000000E+00 0. -1.
          1   -1    0    0  501    0 -0.00000000000E+00 -0.00000000000E+00 -0.49598076163E+03  0.49598076163E+03  0.00000000000E+00 0. -1.
         25    2    1    2    0    0  0.16716129184E+02 -0.13823100878E+02 -0.13703100184E+03  0.18674449661E+03  0.12500201781E+03 0.  0.
          2    1    1    2  501    0 -0.49514374648E+02  0.48494098941E+02 -0.32958052918E+03  0.33678877081E+03  0.00000000000E+00 0. -1.
          1    1    1    2  502    0  0.32798245465E+02 -0.34670998063E+02  0.62598983014E+03  0.62780655496E+03  0.00000000000E+00 0. -1.
         22    1    3    3    0    0 -0.18858721573E+02  0.26478859970E+02 -0.12821180413E+03  0.13226884789E+03  0.00000000000E+00 0.  1.
         22    1    3    3    0    0  0.35574850757E+02 -0.40301960848E+02 -0.88191977086E+01  0.54475648714E+02  0.00000000000E+00 0.  1.
</event>
<event>
 7    1  0.5064652E-006  0.7872125E+02  0.7818608E-02  0.1394704E+00
          2   -1    0    0  502    0  0.00000000000E+00  0.00000000000E+00  0.29709237945E+03  0.29709237945E+03  0.00000000000E+00 0. -1.
          1   -1    0    0  501    0 -0.00000000000E+00 -0.00000000000E+00 -0.15928940064E+04  0.15928940064E+04  0.00000000000E+00 0. -1.
         25    2    1    2    0    0 -0.53236976535E+02 -0.16676027598E+02  0.19318809070E+03  0.23676932349E+03  0.12500323432E+03 0.  0.
          2    1    1    2  501    0  0.74829305953E+02 -0.24939869215E+02 -0.15633348180E+04  0.15653233453E+04  0.00000000000E+00 0. -1.
          1    1    1    2  502    0 -0.21592329419E+02  0.41615896812E+02  0.74345100345E+02  0.87893717082E+02  0.00000000000E+00 0. -1.
         22    1    3    3    0    0  0.20152153271E+00  0.22400010169E+02  0.16208484491E+03  0.16362548095E+03  0.00000000000E+00 0.  1.
         22    1    3    3    0    0 -0.53438498067E+02 -0.39076037767E+02  0.31103245792E+02  0.73143842544E+02  0.00000000000E+00 0.  1.
</event>
<event>
 7    1  0.5064652E-006  0.1075798E+03  0.7818608E-02  0.1266785E+00
          2   -1    0    0  502    0  0.00000000000E+00  0.00000000000E+00  0.14694325223E+04  0.14694325223E+04  0.00000000000E+00 0. -1.
          1   -1    0    0  501    0 -0.00000000000E+00 -0.00000000000E+00 -0.18911430284E+04  0.18911430284E+04  0.00000000000E+00 0. -1.
         25    2    1    2    0    0 -0.12857088794E+03  0.46959979414E+02  0.51372748352E+02  0.19234039087E+03  0.12497981356E+03 0.  0.
          2    1    1    2  501    0  0.34421138815E+02 -0.10009570185E+03 -0.18169481807E+04  0.18200287513E+04  0.00000000000E+00 0. -1.
          1    1    1    2  502    0  0.94149749123E+02  0.53135722433E+02  0.13438649262E+04  0.13482064086E+04  0.00000000000E+00 0. -1.
         22    1    3    3    0    0 -0.39283367186E+02 -0.49982042102E+01 -0.38634936092E+02  0.55324707587E+02  0.00000000000E+00 0. -1.
         22    1    3    3    0    0 -0.89287520752E+02  0.51958183625E+02  0.90007684444E+02  0.13701568329E+03  0.00000000000E+00 0. -1.
</event>
<event>
 7    1  0.5064652E-006  0.1095475E+03  0.7818608E-02  0.1335028E+00
          2   -1    0    0  502    0  0.00000000000E+00  0.00000000000E+00  0.41447967268E+03  0.41447967268E+03  0.00000000000E+00 0. -1.
          1   -1    0    0  501    0 -0.00000000000E+00 -0.00000000000E+00 -0.16865544140E+04  0.16865544140E+04  0.00000000000E+00 0. -1.
         25    2    1    2    0    0 -0.68388986044E+02  0.10714795122E+03 -0.52783290996E+03  0.55712595876E+03  0.12499606484E+03 0.  0.
          2    1    1    2  501    0 -0.24747285165E+02 -0.49609175450E+02 -0.11358924415E+04  0.11372445370E+04  0.00000000000E+00 0. -1.
          1    1    1    2  502    0  0.93136271209E+02 -0.57538775773E+02  0.39165061013E+03  0.40666359088E+03  0.00000000000E+00 0. -1.
         22    1    3    3    0    0 -0.28426764832E+02  0.93348178749E+01 -0.34237874731E+03  0.34368361380E+03  0.00000000000E+00 0. -1.
         22    1    3    3    0    0 -0.39962221212E+02  0.97813133348E+02 -0.18545416265E+03  0.21344234497E+03  0.00000000000E+00 0. -1.
</event>
<event>
 7    1  0.5064652E-006  0.6246627E+02  0.7818608E-02  0.1431015E+00
          2   -1    0    0  502    0  0.00000000000E+00  0.00000000000E+00  0.17264712753E+04  0.17264712753E+04  0.00000000000E+00 0. -1.
          1   -1    0    0  501    0 -0.00000000000E+00 -0.00000000000E+00 -0.41807236357E+03  0.41807236357E+03  0.00000000000E+00 0. -1.
         25    2    1    2    0    0  0.41042622210E+02  0.87622693197E+02  0.22194682432E+03  0.27247823581E+03  0.12498705118E+03 0.  0.
          2    1    1    2  501    0 -0.36128992125E+02 -0.26076394808E+02 -0.39089624779E+03  0.39342745071E+03  0.00000000000E+00 0. -1.
          1    1    1    2  502    0 -0.49136300856E+01 -0.61546298390E+02  0.14773483352E+04  0.14786379523E+04  0.00000000000E+00 0. -1.
         22    1    3    3    0    0  0.28552891794E+02  0.33633608446E+02  0.41527412203E+00  0.44120966666E+02  0.00000000000E+00 0. -1.
         22    1    3    3    0    0  0.12489730416E+02  0.53989084751E+02  0.22153155020E+03  0.22835726915E+03  0.00000000000E+00 0. -1.
</event>
<event>
 7    1  0.5064652E-006  0.4224109E+02  0.7818608E-02  0.1603006E+00
          2   -1    0    0  502    0  0.00000000000E+00  0.00000000000E+00  0.37499570140E+04  0.37499570140E+04  0.00000000000E+00 0. -1.
          1   -1    0    0  501    0 -0.00000000000E+00 -0.00000000000E+00 -0.86167474597E+02  0.86167474597E+02  0.00000000000E+00 0. -1.
         25    2    1    2    0    0  0.33056111871E+02 -0.23478577286E+01  0.29147095423E+04  0.29175768409E+04  0.12499875135E+03 0.  0.
          2    1    1    2  501    0  0.12045564081E+02  0.16816609838E+02 -0.82787550152E+02  0.85332716121E+02  0.00000000000E+00 0. -1.
          1    1    1    2  502    0 -0.45101675952E+02 -0.14468752109E+02  0.83186754733E+03  0.83321493161E+03  0.00000000000E+00 0. -1.
         22    1    3    3    0    0 -0.44923950588E+02  0.38296778207E+01  0.15259837684E+04  0.15266496943E+04  0.00000000000E+00 0. -1.
         22    1    3    3    0    0  0.77980062459E+02 -0.61775355493E+01  0.13887257739E+04  0.13909271466E+04  0.00000000000E+00 0. -1.
</event>
<event>
 7    1  0.5064652E-006  0.1132599E+03  0.7818608E-02  0.1377446E+00
          2   -1    0    0  502    0  0.00000000000E+00  0.00000000000E+00  0.27488544971E+04  0.27488544971E+04  0.00000000000E+00 0. -1.
          1   -1    0    0  501    0 -0.00000000000E+00 -0.00000000000E+00 -0.46599085262E+02  0.46599085262E+02  0.00000000000E+00 0. -1.
         25    2    1    2    0    0 -0.10201592562E+03  0.33309985056E+02  0.43680514482E+03  0.46684069327E+03  0.12499877666E+03 0.  0.
          2    1    1    2  501    0  0.10942996382E+02  0.35830654022E+02 -0.18513125839E+02  0.41789002929E+02  0.00000000000E+00 0. -1.
          1    1    1    2  502    0  0.91072929238E+02 -0.69140639078E+02  0.22839633928E+04  0.22868238861E+04  0.00000000000E+00 0. -1.
         22    1    3    3    0    0 -0.12274910279E+01  0.35381160274E+02  0.26203686048E+02  0.44045049654E+02  0.00000000000E+00 0.  1.
         22    1    3    3    0    0 -0.10078843459E+03 -0.20711752176E+01  0.41060145877E+03  0.42279564361E+03  0.00000000000E+00 0.  1.
</event>
<event>
 7    1  0.5064652E-006  0.6040551E+02  0.7818608E-02  0.1396576E+00
          2   -1    0    0  502    0  0.00000000000E+00  0.00000000000E+00  0.13228840349E+04  0.13228840349E+04  0.00000000000E+00 0. -1.
          1   -1    0    0  501    0 -0.00000000000E+00 -0.00000000000E+00 -0.28932789161E+03  0.28932789161E+03  0.00000000000E+00 0. -1.
         25    2    1    2    0    0  0.72063026411E+01 -0.18990715444E+02 -0.99356314870E+02  0.16096272814E+03  0.12499897790E+03 0.  0.
          2    1    1    2  501    0  0.29905365725E+02  0.66384782617E+02 -0.15009911701E+03  0.16682630245E+03  0.00000000000E+00 0. -1.
          1    1    1    2  502    0 -0.37111668366E+02 -0.47394067173E+02  0.12830115752E+04  0.12844228959E+04  0.00000000000E+00 0. -1.
         22    1    3    3    0    0  0.21804202948E+02  0.39074669298E+02 -0.89802300115E+02  0.10033297640E+03  0.00000000000E+00 0. -1.
         22    1    3    3    0    0 -0.14597900307E+02 -0.58065384742E+02 -0.95540147550E+01  0.60629751744E+02  0.00000000000E+00 0. -1.
</event>
<event>
 7    1  0.5064652E-006  0.5894831E+02  0.7818608E-02  0.1406608E+00
          2   -1    0    0  502    0  0.00000000000E+00  0.00000000000E+00  0.33693213722E+04  0.33693213722E+04  0.00000000000E+00 0. -1.
          1   -1    0    0  501    0 -0.00000000000E+00 -0.00000000000E+00 -0.65575101445E+03  0.65575101445E+03  0.00000000000E+00 0. -1.
         25    2    1    2    0    0  0.47662005635E+01 -0.21070083985E+01  0.57464941115E+03  0.58811055946E+03  0.12499971301E+03 0.  0.
          2    1    1    2  501    0  0.56930786171E+02  0.24525428835E+01 -0.64742749925E+03  0.64993037793E+03  0.00000000000E+00 0. -1.
          1    1    1    2  502    0 -0.61696986734E+02 -0.34553448507E+00  0.27863484458E+04  0.27870314492E+04  0.00000000000E+00 0. -1.
         22    1    3    3    0    0  0.33635768049E+02  0.28579343050E+02  0.77565535090E+02  0.89244361028E+02  0.00000000000E+00 0.  1.
         22    1    3    3    0    0 -0.28869567486E+02 -0.30686351449E+02  0.49708387606E+03  0.49886619843E+03  0.00000000000E+00 0.  1.
</event>
<event>
 7    1  0.5064652E-006  0.1444095E+03  0.7818608E-02  0.1321268E+00
          2   -1    0    0  502    0  0.00000000000E+00  0.00000000000E+00  0.75558753393E+03  0.75558753393E+03  0.00000000000E+00 0. -1.
          1   -1    0    0  501    0 -0.00000000000E+00 -0.00000000000E+00 -0.36684797757E+03  0.36684797757E+03  0.00000000000E+00 0. -1.
         25    2    1    2    0    0  0.17309946276E+03 -0.22129585906E+02  0.29061853146E+03  0.36130012425E+03  0.12500202547E+03 0.  0.
          2    1    1    2  501    0 -0.14247455129E+03 -0.14158224684E+02 -0.31462297800E+03  0.34566901999E+03  0.00000000000E+00 0. -1.
          1    1    1    2  502    0 -0.30624911469E+02  0.36287810590E+02  0.41274400290E+03  0.41546636727E+03  0.00000000000E+00 0. -1.
         22    1    3    3    0    0  0.84614065054E+02  0.51923191795E+02  0.13418171545E+03  0.16691402162E+03  0.00000000000E+00 0. -1.
         22    1    3    3    0    0  0.88485397709E+02 -0.74052777701E+02  0.15643681601E+03  0.19438610263E+03  0.00000000000E+00 0. -1.
</event>
<event>
 7    1  0.5064652E-006  0.1111136E+03  0.7818608E-02  0.1283282E+00
          2   -1    0    0  502    0  0.00000000000E+00  0.00000000000E+00  0.16964974729E+03  0.16964974729E+03  0.00000000000E+00 0. -1.
          1   -1    0    0  501    0 -0.00000000000E+00 -0.00000000000E+00 -0.10231563182E+04  0.10231563182E+04  0.00000000000E+00 0. -1.
         25    2    1    2    0    0 -0.12225116054E+03  0.48590789969E+02 -0.21521558245E+03  0.28150187046E+03  0.12497657788E+03 0.  0.
          2    1    1    2  501    0  0.16670329646E+02 -0.85881160171E+02 -0.74885265968E+03  0.75394547513E+03  0.00000000000E+00 0. -1.
          1    1    1    2  502    0  0.10558083089E+03  0.37290370202E+02  0.11056167127E+03  0.15735871986E+03  0.00000000000E+00 0. -1.
         22    1    3    3    0    0 -0.32113317813E+02  0.76698695511E+02 -0.72154193364E+02  0.11009170129E+03  0.00000000000E+00 0.  1.
         22    1    3    3    0    0 -0.90137842726E+02 -0.28107905542E+02 -0.14306138908E+03  0.17141016916E+03  0.00000000000E+00 0.  1.
</event>
<event>
 7    1  0.5064652E-006  0.7462830E+02  0.7818608E-02  0.1516141E+00
          2   -1    0    0  502    0  0.00000000000E+00  0.00000000000E+00  0.21703860827E+04  0.21703860827E+04  0.00000000000E+00 0. -1.
          1   -1    0    0  501    0 -0.00000000000E+00 -0.00000000000E+00 -0.13993829187E+04  0.13993829187E+04  0.00000000000E+00 0. -1.
         25    2    1    2    0    0 -0.56540267597E+02  0.90191534392E+01 -0.52306006645E+02  0.14710275275E+03  0.12500061818E+03 0.  0.
          2    1    1    2  501    0 -0.18207382551E+02 -0.90238411633E+01 -0.12989411013E+04  0.12991000435E+04  0.00000000000E+00 0. -1.
          1    1    1    2  502    0  0.74747650148E+02  0.46877241510E-02  0.21222502719E+04  0.21235662052E+04  0.00000000000E+00 0. -1.
         22    1    3    3    0    0 -0.29394687377E+02  0.66746218785E+02 -0.35618373202E+02  0.81165102585E+02  0.00000000000E+00 0.  1.
         22    1    3    3    0    0 -0.27145580220E+02 -0.57727065346E+02 -0.16687633443E+02  0.65937650162E+02  0.00000000000E+00 0.  1.
</event>
<event>
 7    1  0.5064652E-006  0.1251468E+03  0.7818608E-02  0.1253623E+00
          2   -1    0    0  502    0  0.00000000000E+00  0.00000000000E+00  0.31722645132E+04  0.31722645132E+04  0.00000000000E+00 0. -1.
          1   -1    0    0  501    0 -0.00000000000E+00 -0.00000000000E+00 -0.26843090693E+02  0.26843090693E+02  0.00000000000E+00 0. -1.
         25    2    1    2    0    0 -0.85104435452E+01 -0.17812467860E+03  0.11216197456E+04  0.11425626634E+04  0.12497102583E+03 0.  0.
          2    1    1    2  501    0 -0.63114084798E+02  0.82093836737E+02  0.17124720581E+03  0.20012094150E+03  0.00000000000E+00 0. -1.
          1    1    1    2  502    0  0.71624528343E+02  0.96030841867E+02  0.18525544710E+04  0.18564239989E+04  0.00000000000E+00 0. -1.
         22    1    3    3    0    0  0.57472590084E+02 -0.69801315155E+02  0.50550195110E+03  0.51352462918E+03  0.00000000000E+00 0. -1.
         22    1    3    3    0    0 -0.65983033629E+02 -0.10832336345E+03  0.61611779452E+03  0.62903803424E+03  0.00000000000E+00 0. -1.
</event>
<event>
 7    1  0.5064652E-006  0.9295032E+02  0.7818608E-02  0.1466139E+00
          2   -1    0    0  502    0  0.00000000000E+00  0.00000000000E+00  0.12380021952E+04  0.12380021952E+04  0.00000000000E+00 0. -1.
          1   -1    0    0  501    0 -0.00000000000E+00 -0.00000000000E+00 -0.21734152464E+02  0.21734152464E+02  0.00000000000E+00 0. -1.
         25    2    1    2    0    0  0.97486225115E+02  0.51292456313E+02  0.57459514530E+03  0.59826299797E+03  0.12499821432E+03 0.  0.
          2    1    1    2  501    0 -0.22789075312E+02 -0.38000019139E+01  0.12821937165E+02  0.26423172421E+02  0.00000000000E+00 0. -1.
          1    1    1    2  502    0 -0.74697149803E+02 -0.47492454399E+02  0.62885096023E+03  0.63505017723E+03  0.00000000000E+00 0. -1.
         22    1    3    3    0    0  0.67657317807E+02  0.91909423625E+02  0.35217352716E+03  0.37020406270E+03  0.00000000000E+00 0. -1.
         22    1    3    3    0    0  0.29828907307E+02 -0.40616967313E+02  0.22242161814E+03  0.22805893528E+03  0.00000000000E+00 0. -1.
</event>
<event>
 7    1  0.5064652E-006  0.1821670E+03  0.7818608E-02  0.1270380E+00
          2   -1    0    0  502    0  0.00000000000E+00  0.00000000000E+00  0.27069417581E+03  0.27069417581E+03  0.00000000000E+00 0. -1.
          1   -1    0    0  501    0 -0.00000000000E+00 -0.00000000000E+00 -0.14985814772E+04  0.14985814772E+04  0.00000000000E+00 0. -1.
         25    2    1    2    0    0  0.21410563356E+02 -0.12429184404E+03  0.13326203163E+03  0.22201178799E+03  0.12499436073E+03 0.  0.
          2    1    1    2  501    0 -0.51277246226E+02  0.17675526878E+03 -0.14378919526E+04  0.14496223813E+04  0.00000000000E+00 0. -1.
          1    1    1    2  502    0  0.29866682870E+02 -0.52463424741E+02  0.76742619582E+02  0.97641483712E+02  0.00000000000E+00 0. -1.
         22    1    3    3    0    0 -0.28074519838E+02  0.10754912049E+01  0.65254547418E+02  0.71045698703E+02  0.00000000000E+00 0. -1.
         22    1    3    3    0    0  0.49485083194E+02 -0.12536733525E+03  0.68007484215E+02  0.15096608929E+03  0.00000000000E+00 0. -1.
</event>
<event>
 7    1  0.5064652E-006  0.6245262E+02  0.7818608E-02  0.1492036E+00
          2   -1    0    0  502    0  0.00000000000E+00  0.00000000000E+00  0.68867111954E+03  0.68867111954E+03  0.00000000000E+00 0. -1.
          1   -1    0    0  501    0 -0.00000000000E+00 -0.00000000000E+00 -0.15050373372E+04  0.15050373372E+04  0.00000000000E+00 0. -1.
         25    2    1    2    0    0  0.82871855714E+02  0.36577782547E+02  0.59736446728E+02  0.16552618700E+03  0.12499918747E+03 0.  0.
          2    1    1    2  501    0 -0.58342963026E+02 -0.21811115761E+02 -0.14511182188E+04  0.14524543749E+04  0.00000000000E+00 0. -1.
          1    1    1    2  502    0 -0.24528892688E+02 -0.14766666787E+02  0.57501555446E+03  0.57572789484E+03  0.00000000000E+00 0. -1.
         22    1    3    3    0    0  0.50713286796E+02 -0.97626055525E+01 -0.29858237298E+02  0.59654507453E+02  0.00000000000E+00 0.  1.
         22    1    3    3    0    0  0.32158568918E+02  0.46340388100E+02  0.89594684026E+02  0.10587167955E+03  0.00000000000E+00 0.  1.
</event>
<event>
 7    1  0.5064652E-006  0.6185945E+02  0.7818608E-02  0.1425517E+00
          2   -1    0    0  502    0  0.00000000000E+00  0.00000000000E+00  0.12150014224E+04  0.12150014224E+04  0.00000000000E+00 0. -1.
          1   -1    0    0  501    0 -0.00000000000E+00 -0.00000000000E+00 -0.80548314633E+03  0.80548314633E+03  0.00000000000E+00 0. -1.
         25    2    1    2    0    0 -0.15566644300E+02 -0.24578021191E+02  0.31442616081E+03  0.33960928101E+03  0.12499701437E+03 0.  0.
          2    1    1    2  501    0 -0.46744937049E+02  0.39727389400E+01 -0.79098296807E+03  0.79237297251E+03  0.00000000000E+00 0. -1.
          1    1    1    2  502    0  0.62311581349E+02  0.20605282251E+02  0.88607508333E+03  0.88850231521E+03  0.00000000000E+00 0. -1.
         22    1    3    3    0    0  0.18563680710E+02 -0.59031773999E+02  0.85154941145E+02  0.10526502071E+03  0.00000000000E+00 0. -1.
         22    1    3    3    0    0 -0.34130325011E+02  0.34453752808E+02  0.22927121967E+03  0.23434426030E+03  0.00000000000E+00 0. -1.
</event>
<event>
 7    1  0.5064652E-006  0.8409650E+02  0.7818608E-02  0.1491490E+00
          2   -1    0    0  502    0  0.00000000000E+00  0.00000000000E+00  0.15139420549E+04  0.15139420549E+04  0.00000000000E+00 0. -1.
          1   -1    0    0  501    0 -0.00000000000E+00 -0.00000000000E+00 -0.75826293345E+02  0.75826293345E+02  0.00000000000E+00 0. -1.
         25    2    1    2    0    0 -0.65403822249E+02  0.21878165793E+02  0.97226966361E+02  0.17272769962E+03  0.12500184448E+03 0.  0.
          2    1    1    2  501    0  0.84304579323E+02 -0.31791884655E+02  0.15431825893E+02  0.91411855222E+02  0.00000000000E+00 0. -1.
          1    1    1    2  502    0 -0.18900757074E+02  0.99137188618E+01  0.13254569693E+04  0.13256287934E+04  0.00000000000E+00 0. -1.
         22    1    3    3    0    0  0.25344039873E+02 -0.26663549802E+02  0.10808885677E+02  0.38341847305E+02  0.00000000000E+00 0.  1.
         22    1    3    3    0    0 -0.90747862122E+02  0.48541715595E+02  0.86418080684E+02  0.13438585231E+03  0.00000000000E+00 0.  1.
</event>
<event>
 7    1  0.5064652E-006  0.6718211E+02  0.7818608E-02  0.1411416E+00
          2   -1    0    0  502    0  0.00000000000E+00  0.00000000000E+00  0.14613213897E+04  0.14613213897E+04  0.00000000000E+00 0. -1.
          1   -1    0    0  501    0 -0.00000000000E+00 -0.00000000000E+00 -0.57523522767E+02  0.57523522767E+02  0.00000000000E+00 0. -1.
         25    2    1    2    0    0  0.24403031339E+02  0.55827668296E+01  0.86500970411E+03  0.87435526216E+03  0.12501464325E+03 0.  0.
          2    1    1    2  501    0 -0.65522836650E+02  0.19480734576E+02 -0.29294118119E+02  0.74369930070E+02  0.00000000000E+00 0. -1.
          1    1    1    2  502    0  0.41119805311E+02 -0.25063501406E+02  0.56808228098E+03  0.57011972029E+03  0.00000000000E+00 0. -1.
         22    1    3    3    0    0 -0.42354048731E+02  0.22448722611E+02  0.54048245736E+03  0.54260399676E+03  0.00000000000E+00 0. -1.
         22    1    3    3    0    0  0.66757080070E+02 -0.16865955781E+02  0.32452724676E+03  0.33175126540E+03  0.00000000000E+00 0. -1.
</event>
<event>
 7    1  0.5064652E-006  0.1546140E+03  0.7818608E-02  0.1258335E+00
          2   -1    0    0  502    0  0.00000000000E+00  0.00000000000E+00  0.16140353881E+04  0.16140353881E+04  0.00000000000E+00 0. -1.
          1   -1    0    0  501    0 -0.00000000000E+00 -0.00000000000E+00 -0.21239201057E+03  0.21239201057E+03  0.00000000000E+00 0. -1.
         25    2    1    2    0    0  0.38617288951E+02  0.17189080741E+03  0.48273059793E+02  0.22134334553E+03  0.12499937453E+03 0.  0.
          2    1    1    2  501    0  0.37496475886E+02 -0.14726345702E+03 -0.78459150396E+02  0.17102148917E+03  0.00000000000E+00 0. -1.
          1    1    1    2  502    0 -0.76113764837E+02 -0.24627350393E+02  0.14318294681E+04  0.14340625640E+04  0.00000000000E+00 0. -1.
         22    1    3    3    0    0  0.83327864682E+01  0.18045357713E+03  0.55640719673E+02  0.18902068277E+03  0.00000000000E+00 0.  1.
         22    1    3    3    0    0  0.30284502483E+02 -0.85627697224E+01 -0.73676598807E+01  0.32322662763E+02  0.00000000000E+00 0.  1.
</event>
<event>
 7    1  0.5064652E-006  0.3098594E+02  0.7818608E-02  0.1625313E+00
          2   -1    0    0  502    0  0.00000000000E+00  0.00000000000E+00  0.36567604851E+04  0.36567604851E+04  0.00000000000E+00 0. -1.
          1   -1    0    0  501    0 -0.00000000000E+00 -0.00000000000E+00 -0.17384534782E+03  0.17384534782E+03  0.00000000000E+00 0. -1.
         25    2    1    2    0    0  0.69146791887E+01  0.97568629441E+01  0.21235353512E+04  0.21272447213E+04  0.12499882848E+03 0.  0.
          2    1    1    2  501    0 -0.30810073050E+02 -0.34360673898E+01 -0.17049304674E+03  0.17328862094E+03  0.00000000000E+00 0. -1.
          1    1    1    2  502    0  0.23895393861E+02 -0.63207955543E+01  0.15298728327E+04  0.15300724907E+04  0.00000000000E+00 0. -1.
         22    1    3    3    0    0 -0.18819989573E+02 -0.56436272376E+01  0.20008645940E+04  0.20009610606E+04  0.00000000000E+00 0.  1.
         22    1    3    3    0    0  0.25734668761E+02  0.15400490182E+02  0.12267075728E+03  0.12628366072E+03  0.00000000000E+00 0.  1.
</event>
<event>
 7    1  0.5064652E-006  0.5515745E+02  0.7818608E-02  0.1537324E+00
          2   -1    0    0  502    0  0.00000000000E+00  0.00000000000E+00  0.17843276587E+04  0.17843276587E+04  0.00000000000E+00 0. -1.
          1   -1    0    0  501    0 -0.00000000000E+00 -0.00000000000E+00 -0.22653204282E+03  0.22653204282E+03  0.00000000000E+00 0. -1.
         25    2    1    2    0    0  0.24794733510E+02 -0.27773257522E+02  0.17959969279E+03  0.22196435143E+03  0.12500396398E+03 0.  0.
          2    1    1    2  501    0 -0.48666359192E+02  0.26746886609E+02 -0.20150337559E+03  0.20901536028E+03  0.00000000000E+00 0. -1.
          1    1    1    2  502    0  0.23871625682E+02  0.10263709129E+01  0.15796992986E+04  0.15798799898E+04  0.00000000000E+00 0. -1.
         22    1    3    3    0    0 -0.41357722927E+02 -0.50999908324E+01  0.17075083596E+02  0.45033649996E+02  0.00000000000E+00 0.  1.
         22    1    3    3    0    0  0.66152456437E+02 -0.22673266690E+02  0.16252460920E+03  0.17693070143E+03  0.00000000000E+00 0.  1.
</event>
<event>
 7    1  0.5064652E-006  0.3414923E+02  0.7818608E-02  0.1601850E+00
          2   -1    0    0  502    0  0.00000000000E+00  0.00000000000E+00  0.10273754723E+03  0.10273754723E+03  0.00000000000E+00 0. -1.
          1   -1    0    0  501    0 -0.00000000000E+00 -0.00000000000E+00 -0.13423422229E+04  0.13423422229E+04  0.00000000000E+00 0. -1.
         25    2    1    2    0    0  0.30643067493E+02 -0.83886814580E+01 -0.53071033625E+02  0.13947832076E+03  0.12501319847E+03 0.  0.
          2    1    1    2  501    0 -0.54328326581E+00  0.25759431400E+02 -0.12408507464E+04  0.12411182129E+04  0.00000000000E+00 0. -1.
          1    1    1    2  502    0 -0.30099784227E+02 -0.17370749942E+02  0.54317104352E+02  0.64483236498E+02  0.00000000000E+00 0. -1.
         22    1    3    3    0    0  0.11721070726E+02  0.52988156826E+02 -0.52120192194E+02  0.75243888105E+02  0.00000000000E+00 0. -1.
         22    1    3    3    0    0  0.18921996767E+02 -0.61376838284E+02 -0.95084143155E+00  0.64234432657E+02  0.00000000000E+00 0. -1.
</event>
<event>
 7    1  0.6990747E-006  0.7418795E+02  0.7818608E-02  0.1406387E+00
          2   -1    0    0  502    0  0.00000000000E+00  0.00000000000E+00  0.17692301424E+04  0.17692301424E+04  0.00000000000E+00 0. -1.
          1   -1    0    0  501    0 -0.00000000000E+00 -0.00000000000E+00 -0.10775085839E+04  0.10775085839E+04  0.00000000000E+00 0. -1.
         25    2    1    2    0    0 -0.42948720649E+02  0.39122682958E+02 -0.44259975480E+02  0.14476795495E+03  0.12499455357E+03 0.  0.
          2    1    1    2  501    0 -0.31218100549E+02 -0.32903591828E+02 -0.98166511852E+03  0.98271237963E+03  0.00000000000E+00 0. -1.
          1    1    1    2  502    0  0.74166821198E+02 -0.62190911293E+01  0.17176466526E+04  0.17192583917E+04  0.00000000000E+00 0. -1.
         22    1    3    3    0    0 -0.45591186794E+02 -0.26086257589E+02 -0.57814766404E+02  0.78112715755E+02  0.00000000000E+00 0.  1.
         22    1    3    3    0    0  0.26424661453E+01  0.65208940547E+02  0.13554790924E+02  0.66655239191E+02  0.00000000000E+00 0.  1.
</event>
<event>
 7    1  0.5064652E-006  0.5716323E+02  0.7818608E-02  0.1467765E+00
          2   -1    0    0  502    0  0.00000000000E+00  0.00000000000E+00  0.19111828308E+04  0.19111828308E+04  0.00000000000E+00 0. -1.
          1   -1    0    0  501    0 -0.00000000000E+00 -0.00000000000E+00 -0.19004842937E+03  0.19004842937E+03  0.00000000000E+00 0. -1.
         25    2    1    2    0    0 -0.58583198349E+02  0.12851341709E+02  0.62301743652E+03  0.63825839951E+03  0.12500364086E+03 0.  0.
          2    1    1    2  501    0  0.58463570254E+01 -0.36667854015E+02 -0.17987707568E+03  0.18366946878E+03  0.00000000000E+00 0. -1.
          1    1    1    2  502    0  0.52736841324E+02  0.23816512306E+02  0.12779940406E+04  0.12793033919E+04  0.00000000000E+00 0. -1.
         22    1    3    3    0    0 -0.10077346471E+02  0.33354655086E+02  0.40755587723E+02  0.53619994950E+02  0.00000000000E+00 0.  1.
         22    1    3    3    0    0 -0.48505851878E+02 -0.20503313376E+02  0.58226184879E+03  0.58463840456E+03  0.00000000000E+00 0.  1.
</event>
<event>
 7    1  0.5064652E-006  0.1061483E+03  0.7818608E-02  0.1413975E+00
          2   -1    0    0  502    0  0.00000000000E+00  0.00000000000E+00  0.24824358847E+03  0.24824358847E+03  0.00000000000E+00 0. -1.
          1   -1    0    0  501    0 -0.00000000000E+00 -0.00000000000E+00 -0.42366512841E+03  0.42366512841E+03  0.00000000000E+00 0. -1.
         25    2    1    2    0    0  0.66381768487E+02 -0.11454387316E+03 -0.61433555093E+02  0.19216135809E+03  0.12500027114E+03 0.  0.
          2    1    1    2  501    0 -0.52948157829E+02  0.87856081203E+02 -0.28668543893E+03  0.30448438271E+03  0.00000000000E+00 0. -1.
          1    1    1    2  502    0 -0.13433610658E+02  0.26687791959E+02  0.17269745409E+03  0.17526297608E+03  0.00000000000E+00 0. -1.
         22    1    3    3    0    0  0.99758490154E+02 -0.10829788557E+03 -0.57116585512E+02  0.15793192432E+03  0.00000000000E+00 0. -1.
         22    1    3    3    0    0 -0.33376721667E+02 -0.62459875887E+01 -0.43169695807E+01  0.34229433775E+02  0.00000000000E+00 0. -1.
</event>
<event>
 7    1  0.5064652E-006  0.1371965E+03  0.7818608E-02  0.1258197E+00
          2   -1    0    0  502    0  0.00000000000E+00  0.00000000000E+00  0.13933767088E+04  0.13933767088E+04  0.00000000000E+00 0. -1.
          1   -1    0    0  501    0 -0.00000000000E+00 -0.00000000000E+00 -0.14977860292E+03  0.14977860292E+03  0.00000000000E+00 0. -1.
         25    2    1    2    0    0 -0.45417351333E+02  0.77872591469E+02  0.51699149165E+03  0.53947446102E+03  0.12500246137E+03 0.  0.
          2    1    1    2  501    0  0.13190742592E+03 -0.51997849216E+02 -0.99143210006E+02  0.17301075523E+03  0.00000000000E+00 0. -1.
          1    1    1    2  502    0 -0.86490074585E+02 -0.25874742253E+02  0.82574982425E+03  0.83067009549E+03  0.00000000000E+00 0. -1.
         22    1    3    3    0    0  0.15560315799E+02 -0.13060519113E+02  0.25114632587E+03  0.25196661999E+03  0.00000000000E+00 0.  1.
         22    1    3    3    0    0 -0.60977667132E+02  0.90933110582E+02  0.26584516577E+03  0.28750784103E+03  0.00000000000E+00 0.  1.
</event>
<event>
 7    1  0.5064652E-006  0.8595716E+02  0.7818608E-02  0.1382361E+00
          2   -1    0    0  502    0  0.00000000000E+00  0.00000000000E+00  0.81773043369E+02  0.81773043369E+02  0.00000000000E+00 0. -1.
          1   -1    0    0  501    0 -0.00000000000E+00 -0.00000000000E+00 -0.89100749785E+03  0.89100749785E+03  0.00000000000E+00 0. -1.
         25    2    1    2    0    0  0.81788566537E+02  0.38272979457E+02 -0.33332532745E+03  0.36726258947E+03  0.12498737989E+03 0.  0.
          2    1    1    2  501    0 -0.86834447078E+02  0.88821444937E+01 -0.52794572062E+03  0.53511288305E+03  0.00000000000E+00 0. -1.
          1    1    1    2  502    0  0.50458805412E+01 -0.47155123951E+02  0.52036593589E+02  0.70405068693E+02  0.00000000000E+00 0. -1.
         22    1    3    3    0    0 -0.28755388495E+01 -0.10388120384E+02  0.72327987621E+01  0.12980568043E+02  0.00000000000E+00 0. -1.
         22    1    3    3    0    0  0.84664105386E+02  0.48661099841E+02 -0.34055812621E+03  0.35428202143E+03  0.00000000000E+00 0. -1.
</event>
<event>
 7    1  0.5064652E-006  0.5301035E+02  0.7818608E-02  0.1466949E+00
          2   -1    0    0  502    0  0.00000000000E+00  0.00000000000E+00  0.94025409169E+02  0.94025409169E+02  0.00000000000E+00 0. -1.
          1   -1    0    0  501    0 -0.00000000000E+00 -0.00000000000E+00 -0.25858643447E+04  0.25858643447E+04  0.00000000000E+00 0. -1.
         25    2    1    2    0    0  0.17840842525E+02 -0.73671879168E+01 -0.15388237621E+04  0.15440129106E+04  0.12499890560E+03 0.  0.
          2    1    1    2  501    0  0.32974632916E+02  0.23125189631E+02 -0.10362820426E+04  0.10370644014E+04  0.00000000000E+00 0. -1.
          1    1    1    2  502    0 -0.50815475441E+02 -0.15758001714E+02  0.83266869148E+02  0.98812441828E+02  0.00000000000E+00 0. -1.
         22    1    3    3    0    0  0.19304457186E+02  0.28285672152E+02 -0.12133445381E+03  0.12607454540E+03  0.00000000000E+00 0. -1.
         22    1    3    3    0    0 -0.14636146611E+01 -0.35652860069E+02 -0.14174893082E+04  0.14179383652E+04  0.00000000000E+00 0. -1.
</event>
<event>
 7    1  0.5064652E-006  0.1463841E+03  0.7818608E-02  0.1273997E+00
          2   -1    0    0  502    0  0.00000000000E+00  0.00000000000E+00  0.13618072092E+04  0.13618072092E+04  0.00000000000E+00 0. -1.
          1   -1    0    0  501    0 -0.00000000000E+00 -0.00000000000E+00 -0.40962807254E+03  0.40962807254E+03  0.00000000000E+00 0. -1.
         25    2    1    2    0    0 -0.20767289112E+03 -0.29960340373E+02  0.11099017509E+03  0.26827168976E+03  0.12500091543E+03 0.  0.
          2    1    1    2  501    0  0.64704038915E+02  0.32822387146E+02 -0.32258189615E+03  0.33064029016E+03  0.00000000000E+00 0. -1.
          1    1    1    2  502    0  0.14296885221E+03 -0.28620467728E+01  0.11637708577E+04  0.11725233018E+04  0.00000000000E+00 0. -1.
         22    1    3    3    0    0 -0.12918369474E+03 -0.77758609502E+02  0.83463332870E+02  0.17233965380E+03  0.00000000000E+00 0. -1.
         22    1    3    3    0    0 -0.78489196384E+02  0.47798269130E+02  0.27526842222E+02  0.95932035960E+02  0.00000000000E+00 0. -1.
</event>
<event>
 7    1  0.5064652E-006  0.1480087E+03  0.7818608E-02  0.1391815E+00
          2   -1    0    0  502    0  0.00000000000E+00  0.00000000000E+00  0.15897311478E+04  0.15897311478E+04  0.00000000000E+00 0. -1.
          1   -1    0    0  501    0 -0.00000000000E+00 -0.00000000000E+00 -0.26719065120E+03  0.26719065120E+03  0.00000000000E+00 0. -1.
         25    2    1    2    0    0 -0.94750525388E+02 -0.83905440190E+02  0.92279472432E+01  0.17812169605E+03  0.12499759453E+03 0.  0.
          2    1    1    2  501    0 -0.25107405945E+02 -0.45640121659E+01 -0.17812362996E+03  0.17994232295E+03  0.00000000000E+00 0. -1.
          1    1    1    2  502    0  0.11985793133E+03  0.88469452356E+02  0.14914361793E+04  0.14988577800E+04  0.00000000000E+00 0. -1.
         22    1    3    3    0    0  0.17237925516E+01  0.78368015385E+01  0.40565834894E+02  0.41351830428E+02  0.00000000000E+00 0.  1.
         22    1    3    3    0    0 -0.96474317940E+02 -0.91742241729E+02 -0.31337887650E+02  0.13676986562E+03  0.00000000000E+00 0.  1.
</event>
<event>
 7    1  0.5064652E-006  0.8595706E+02  0.7818608E-02  0.1317810E+00
          2   -1    0    0  502    0  0.00000000000E+00  0.00000000000E+00  0.11409360944E+04  0.11409360944E+04  0.00000000000E+00 0. -1.
          1   -1    0    0  501    0 -0.00000000000E+00 -0.00000000000E+00 -0.34443473554E+03  0.34443473554E+03  0.00000000000E+00 0. -1.
         25    2    1    2    0    0  0.10268504215E+03  0.40580360943E+02  0.58037923900E+03  0.60386761774E+03  0.12500022048E+03 0.  0.
          2    1    1    2  501    0 -0.77363131896E+02  0.37704457224E+02 -0.32395649109E+03  0.33519321054E+03  0.00000000000E+00 0. -1.
          1    1    1    2  502    0 -0.25321910249E+02 -0.78284818167E+02  0.54007861094E+03  0.54631000164E+03  0.00000000000E+00 0. -1.
         22    1    3    3    0    0  0.83386739677E+02  0.46988580234E+02  0.57489262761E+03  0.58280597827E+03  0.00000000000E+00 0. -1.
         22    1    3    3    0    0  0.19298302468E+02 -0.64082192909E+01  0.54866113860E+01  0.21061639469E+02  0.00000000000E+00 0. -1.
</event>
<event>
 7    1  0.5064652E-006  0.9028310E+02  0.7818608E-02  0.1324506E+00
          2   -1    0    0  502    0  0.00000000000E+00  0.00000000000E+00  0.16592544763E+04  0.16592544763E+04  0.00000000000E+00 0. -1.
          1   -1    0    0  501    0 -0.00000000000E+00 -0.00000000000E+00 -0.24837973927E+02  0.24837973927E+02  0.00000000000E+00 0. -1.
         25    2    1    2    0    0 -0.61632814442E+02 -0.16304091115E+02  0.41311776966E+03  0.43630135671E+03  0.12501261956E+03 0.  0.
          2    1    1    2  501    0  0.16678014550E+02 -0.71885033111E+02  0.11225304584E+03  0.13433674276E+03  0.00000000000E+00 0. -1.
          1    1    1    2  502    0  0.44954799892E+02  0.88189124226E+02  0.11090456868E+04  0.11134543507E+04  0.00000000000E+00 0. -1.
         22    1    3    3    0    0 -0.60256532008E+02 -0.50552125599E+02  0.13627111749E+03  0.15734098168E+03  0.00000000000E+00 0.  1.
         22    1    3    3    0    0 -0.13762824337E+01  0.34248034484E+02  0.27684665217E+03  0.27896037503E+03  0.00000000000E+00 0.  1.
</event>
<event>
 7    1  0.5064652E-006  0.5744826E+02  0.7818608E-02  0.1410714E+00
          2   -1    0    0  502    0  0.00000000000E+00  0.00000000000E+00  0.17592769894E+04  0.17592769894E+04  0.00000000000E+00 0. -1.
          1   -1    0    0  501    0 -0.00000000000E+00 -0.00000000000E+00 -0.22167417989E+03  0.22167417989E+03  0.00000000000E+00 0. -1.
         25    2    1    2    0    0 -0.22391852266E+02 -0.95972163318E+02 -0.33960228561E+02  0.16275847508E+03  0.12499989163E+03 0.  0.
          2    1    1    2  501    0 -0.16732790304E+02  0.54095697628E+02 -0.11630246753E+03  0.12935453114E+03  0.00000000000E+00 0. -1.
          1    1    1    2  502    0  0.39124642570E+02  0.41876465690E+02  0.16878655056E+04  0.16888381631E+04  0.00000000000E+00 0. -1.
         22    1    3    3    0    0 -0.36330426784E+02 -0.62580939713E+02  0.38353049437E+02  0.81897682060E+02  0.00000000000E+00 0.  1.
         22    1    3    3    0    0  0.13938574517E+02 -0.33391223605E+02 -0.72313277998E+02  0.80860793022E+02  0.00000000000E+00 0.  1.
</event>
<event>
 7    1  0.5150905E-006  0.1051256E+03  0.7818608E-02  0.1287909E+00
          2   -1    0    0  502    0  0.00000000000E+00  0.00000000000E+00  0.29770475206E+04  0.29770475206E+04  0.00000000000E+00 0. -1.
          1   -1    0    0  501    0 -0.00000000000E+00 -0.00000000000E+00 -0.48476828368E+03  0.48476828368E+03  0.00000000000E+00 0. -1.
         25    2    1    2    0    0 -0.29893041211E+01 -0.88221428960E+02 -0.35347244495E+02  0.15705118339E+03  0.12499476007E+03 0.  0.
          2    1    1    2  501    0  0.85634767840E+02  0.22411836961E+02 -0.38255679586E+03  0.39266436808E+03  0.00000000000E+00 0. -1.
          1    1    1    2  502    0 -0.82645463719E+02  0.65809591999E+02  0.29101832773E+04  0.29121002528E+04  0.00000000000E+00 0. -1.
         22    1    3    3    0    0 -0.38482901353E+02 -0.62878071064E+02  0.29082138215E+02  0.79248698920E+02  0.00000000000E+00 0.  1.
         22    1    3    3    0    0  0.35493597232E+02 -0.25343357896E+02 -0.64429382710E+02  0.77802484474E+02  0.00000000000E+00 0.  1.
</event>
<event>
 7    1  0.5064652E-006  0.8011507E+02  0.7818608E-02  0.1397251E+00
          2   -1    0    0  502    0  0.00000000000E+00  0.00000000000E+00  0.66079545089E+03  0.66079545089E+03  0.00000000000E+00 0. -1.
          1   -1    0    0  501    0 -0.00000000000E+00 -0.00000000000E+00 -0.32985559715E+03  0.32985559715E+03  0.00000000000E+00 0. -1.
         25    2    1    2    0    0  0.36294729103E+02  0.11726095827E+03  0.45050500975E+03  0.48336688902E+03  0.12498538273E+03 0.  0.
          2    1    1    2  501    0 -0.33674194346E+02 -0.72193784543E+02 -0.30561977586E+03  0.31583119113E+03  0.00000000000E+00 0. -1.
          1    1    1    2  502    0 -0.26205347568E+01 -0.45067173731E+02  0.18605461985E+03  0.19145296790E+03  0.00000000000E+00 0. -1.
         22    1    3    3    0    0  0.62006076641E+02  0.10288363751E+03  0.21716027897E+03  0.24817006904E+03  0.00000000000E+00 0. -1.
         22    1    3    3    0    0 -0.25711347538E+02  0.14377320769E+02  0.23334473078E+03  0.23519681998E+03  0.00000000000E+00 0. -1.
</event>
<event>
 7    1  0.5064652E-006  0.3114063E+02  0.7818608E-02  0.1656580E+00
          2   -1    0    0  502    0  0.00000000000E+00  0.00000000000E+00  0.10463362329E+04  0.10463362329E+04  0.00000000000E+00 0. -1.
          1   -1    0    0  501    0 -0.00000000000E+00 -0.00000000000E+00 -0.17068396778E+03  0.17068396778E+03  0.00000000000E+00 0. -1.
         25    2    1    2    0    0  0.51103280837E+02  0.44674855700E+01  0.10079587309E+03  0.16857034039E+03  0.12499859155E+03 0.  0.
          2    1    1    2  501    0 -0.20558762114E+02  0.73973213211E+00 -0.13575830836E+03  0.13730815050E+03  0.00000000000E+00 0. -1.
          1    1    1    2  502    0 -0.30544518723E+02 -0.52072177021E+01  0.91061470043E+03  0.91114170983E+03  0.00000000000E+00 0. -1.
         22    1    3    3    0    0  0.42841433401E+02 -0.57916000946E+02  0.57726189287E+02  0.92314487005E+02  0.00000000000E+00 0.  1.
         22    1    3    3    0    0  0.82618474361E+01  0.62383486516E+02  0.43069683803E+02  0.76255853387E+02  0.00000000000E+00 0.  1.
</event>
<event>
 7    1  0.5064652E-006  0.4937083E+02  0.7818608E-02  0.1449593E+00
          2   -1    0    0  502    0  0.00000000000E+00  0.00000000000E+00  0.17024456352E+03  0.17024456352E+03  0.00000000000E+00 0. -1.
          1   -1    0    0  501    0 -0.00000000000E+00 -0.00000000000E+00 -0.11138436253E+04  0.11138436253E+04  0.00000000000E+00 0. -1.
         25    2    1    2    0    0 -0.15614161354E+02 -0.43285030387E+02 -0.12191685626E+03  0.18056810078E+03  0.12499489304E+03 0.  0.
          2    1    1    2  501    0 -0.33105237507E+02  0.37429319135E+02 -0.95765819796E+03  0.95896096625E+03  0.00000000000E+00 0. -1.
          1    1    1    2  502    0  0.48719398861E+02  0.58557112519E+01  0.13597599243E+03  0.14455912180E+03  0.00000000000E+00 0. -1.
         22    1    3    3    0    0  0.26553505600E+02 -0.19048314540E+02  0.14491619871E+02  0.35748202654E+02  0.00000000000E+00 0. -1.
         22    1    3    3    0    0 -0.42167666954E+02 -0.24236715846E+02 -0.13640847613E+03  0.14481989812E+03  0.00000000000E+00 0. -1.
</event>
<event>
 7    1  0.5064652E-006  0.1623736E+03  0.7818608E-02  0.1298040E+00
          2   -1    0    0  502    0  0.00000000000E+00  0.00000000000E+00  0.47953490877E+03  0.47953490877E+03  0.00000000000E+00 0. -1.
          1   -1    0    0  501    0 -0.00000000000E+00 -0.00000000000E+00 -0.72927157252E+03  0.72927157252E+03  0.00000000000E+00 0. -1.
         25    2    1    2    0    0 -0.18558773735E+03 -0.84926864204E+02  0.85887203226E+02  0.25427782932E+03  0.12500088914E+03 0.  0.
          2    1    1    2  501    0  0.42886488242E+02  0.29663391663E+02 -0.62500521471E+03  0.62717675826E+03  0.00000000000E+00 0. -1.
          1    1    1    2  502    0  0.14270124911E+03  0.55263472541E+02  0.28938134774E+03  0.32735189371E+03  0.00000000000E+00 0. -1.
         22    1    3    3    0    0 -0.14989288866E+03 -0.57908920793E+02  0.37508956667E+01  0.16073391178E+03  0.00000000000E+00 0.  1.
         22    1    3    3    0    0 -0.35694848695E+02 -0.27017943411E+02  0.82136307559E+02  0.93543917541E+02  0.00000000000E+00 0.  1.
</event>
<event>
 7    1  0.5064652E-006  0.1635323E+03  0.7818608E-02  0.1257658E+00
          2   -1    0    0  502    0  0.00000000000E+00  0.00000000000E+00  0.23292143298E+04  0.23292143298E+04  0.00000000000E+00 0. -1.
          1   -1    0    0  501    0 -0.00000000000E+00 -0.00000000000E+00 -0.24324485659E+03  0.24324485659E+03  0.00000000000E+00 0. -1.
         25    2    1    2    0    0  0.86760638598E+02  0.52187830088E+02  0.18747584382E+03  0.24702038460E+03  0.12498360042E+03 0.  0.
          2    1    1    2  501    0  0.35799200694E+02  0.67202362113E+02 -0.20309365129E+03  0.21689806693E+03  0.00000000000E+00 0. -1.
          1    1    1    2  502    0 -0.12255983929E+03 -0.11939019220E+03  0.21015872807E+04  0.21085407349E+04  0.00000000000E+00 0. -1.
         22    1    3    3    0    0  0.10634797562E+03  0.59786574987E+02  0.19006502464E+03  0.22585180995E+03  0.00000000000E+00 0.  1.
         22    1    3    3    0    0 -0.19587337019E+02 -0.75987448994E+01 -0.25891808186E+01  0.21168574653E+02  0.00000000000E+00 0.  1.
</event>
<event>
 7    1  0.5064652E-006  0.7514542E+02  0.7818608E-02  0.1391710E+00
          2   -1    0    0  502    0  0.00000000000E+00  0.00000000000E+00  0.82748112180E+03  0.82748112180E+03  0.00000000000E+00 0. -1.
          1   -1    0    0  501    0 -0.00000000000E+00 -0.00000000000E+00 -0.76450236263E+02  0.76450236263E+02  0.00000000000E+00 0. -1.
         25    2    1    2    0    0 -0.49159730103E+02 -0.71375609682E+02  0.10395728060E+03  0.18423628970E+03  0.12499895012E+03 0.  0.
          2    1    1    2  501    0  0.50149601702E+02 -0.39535773121E+01 -0.15665438474E+02  0.52687942520E+02  0.00000000000E+00 0. -1.
          1    1    1    2  502    0 -0.98987159872E+00  0.75329186994E+02  0.66273904341E+03  0.66700712584E+03  0.00000000000E+00 0. -1.
         22    1    3    3    0    0 -0.12425829670E+02  0.87925990377E+01 -0.24248777362E+02  0.28630652182E+02  0.00000000000E+00 0.  1.
         22    1    3    3    0    0 -0.36733900433E+02 -0.80168208719E+02  0.12820605796E+03  0.15560563752E+03  0.00000000000E+00 0.  1.
</event>
<event>
 7    1  0.5064652E-006  0.1210118E+03  0.7818608E-02  0.1416022E+00
          2   -1    0    0  502    0  0.00000000000E+00  0.00000000000E+00  0.10703392384E+04  0.10703392384E+04  0.00000000000E+00 0. -1.
          1   -1    0    0  501    0 -0.00000000000E+00 -0.00000000000E+00 -0.10658763830E+03  0.10658763830E+03  0.00000000000E+00 0. -1.
         25    2    1    2    0    0  0.94570571276E+02 -0.76567587548E+02  0.55611184897E+03  0.58282969049E+03  0.12499548447E+03 0.  0.
          2    1    1    2  501    0 -0.10813004954E+03  0.54622751410E+02 -0.53361170388E+02  0.13237509996E+03  0.00000000000E+00 0. -1.
          1    1    1    2  502    0  0.13559478263E+02  0.21944836139E+02  0.46100092148E+03  0.46172208620E+03  0.00000000000E+00 0. -1.
         22    1    3    3    0    0  0.77968985242E+02 -0.83150275640E+02  0.23463993918E+03  0.26086209395E+03  0.00000000000E+00 0.  1.
         22    1    3    3    0    0  0.16601586034E+02  0.65826880916E+01  0.32147190979E+03  0.32196759655E+03  0.00000000000E+00 0.  1.
</event>
<event>
 7    1  0.5064652E-006  0.1458629E+03  0.7818608E-02  0.1265267E+00
          2   -1    0    0  502    0  0.00000000000E+00  0.00000000000E+00  0.48098691355E+03  0.48098691355E+03  0.00000000000E+00 0. -1.
          1   -1    0    0  501    0 -0.00000000000E+00 -0.00000000000E+00 -0.37558318341E+03  0.37558318341E+03  0.00000000000E+00 0. -1.
         25    2    1    2    0    0 -0.12182703266E+03 -0.29215344275E+02  0.22824349096E+03  0.28881975755E+03  0.12500559570E+03 0.  0.
          2    1    1    2  501    0  0.14040768446E+03 -0.47804506029E+02 -0.32139603138E+03  0.35397033440E+03  0.00000000000E+00 0. -1.
          1    1    1    2  502    0 -0.18580651800E+02  0.77019850304E+02  0.19855627056E+03  0.21378000501E+03  0.00000000000E+00 0. -1.
         22    1    3    3    0    0 -0.11759550737E+03 -0.46645462858E+02  0.23715765002E+03  0.26879035236E+03  0.00000000000E+00 0. -1.
         22    1    3    3    0    0 -0.42315252882E+01  0.17430118583E+02 -0.89141590676E+01  0.20029405182E+02  0.00000000000E+00 0. -1.
</event>
<event>
 7    1  0.5064652E-006  0.2865436E+02  0.7818608E-02  0.1666505E+00
          2   -1    0    0  502    0  0.00000000000E+00  0.00000000000E+00  0.15915143244E+04  0.15915143244E+04  0.00000000000E+00 0. -1.
          1   -1    0    0  501    0 -0.00000000000E+00 -0.00000000000E+00 -0.36110232428E+03  0.36110232428E+03  0.00000000000E+00 0. -1.
         25    2    1    2    0    0  0.46939873270E+02  0.16420957122E+02 -0.12948746720E+03  0.18673236748E+03  0.12501589247E+03 0.  0.
          2    1    1    2  501    0 -0.20343934113E+02 -0.58035897042E+01 -0.20230962581E+03  0.20341273806E+03  0.00000000000E+00 0. -1.
          1    1    1    2  502    0 -0.26595939157E+02 -0.10617367418E+02  0.15622090931E+04  0.15624715431E+04  0.00000000000E+00 0. -1.
         22    1    3    3    0    0  0.83388513323E+02 -0.56935622947E+01 -0.52425227493E+02  0.98663393838E+02  0.00000000000E+00 0.  1.
         22    1    3    3    0    0 -0.36448640053E+02  0.22114519417E+02 -0.77062239702E+02  0.88068973643E+02  0.00000000000E+00 0.  1.
</event>
<event>
 7    1  0.5064652E-006  0.1409535E+03  0.7818608E-02  0.1359498E+00
          2   -1    0    0  502    0  0.00000000000E+00  0.00000000000E+00  0.11034592276E+04  0.11034592276E+04  0.00000000000E+00 0. -1.
          1   -1    0    0  501    0 -0.00000000000E+00 -0.00000000000E+00 -0.12073728799E+04  0.12073728799E+04  0.00000000000E+00 0. -1.
         25    2    1    2    0    0 -0.12026987252E+03  0.79279678479E+02  0.40431681286E+03  0.44704348664E+03  0.12500273650E+03 0.  0.
          2    1    1    2  501    0  0.95379562808E+02 -0.10379712179E+03 -0.11813662617E+04  0.11897467578E+04  0.00000000000E+00 0. -1.
          1    1    1    2  502    0  0.24890309707E+02  0.24517443313E+02  0.67313579650E+03  0.67404186300E+03  0.00000000000E+00 0. -1.
         22    1    3    3    0    0 -0.12493181791E+02 -0.19805481312E+01  0.21037277186E+03  0.21075271125E+03  0.00000000000E+00 0.  1.
         22    1    3    3    0    0 -0.10777669072E+03  0.81260226611E+02  0.19394404101E+03  0.23629077539E+03  0.00000000000E+00 0.  1.
</event>
<event>
 7    1  0.5064652E-006  0.5052780E+02  0.7818608E-02  0.1560398E+00
          2   -1    0    0  502    0  0.00000000000E+00  0.00000000000E+00  0.16307121001E+04  0.16307121001E+04  0.00000000000E+00 0. -1.
          1   -1    0    0  501    0 -0.00000000000E+00 -0.00000000000E+00 -0.28756606856E+03  0.28756606856E+03  0.00000000000E+00 0. -1.
         25    2    1    2    0    0  0.33613695131E+02 -0.18598631928E+02  0.58469902415E+02  0.14324714420E+03  0.12500090089E+03 0.  0.
          2    1    1    2  501    0 -0.30415726317E+02  0.40855000941E+02 -0.24244851799E+03  0.24774085530E+03  0.00000000000E+00 0. -1.
          1    1    1    2  502    0 -0.31979688141E+01 -0.22256369013E+02  0.15271246472E+04  0.15272901692E+04  0.00000000000E+00 0. -1.
         22    1    3    3    0    0  0.17387739554E+02  0.40964385727E+02  0.67507125269E+02  0.80855589460E+02  0.00000000000E+00 0.  1.
         22    1    3    3    0    0  0.16225955577E+02 -0.59563017655E+02 -0.90372228539E+01  0.62391554745E+02  0.00000000000E+00 0.  1.
</event>
<event>
 7    1  0.5064652E-006  0.1569840E+03  0.7818608E-02  0.1354007E+00
          2   -1    0    0  502    0  0.00000000000E+00  0.00000000000E+00  0.11755760981E+03  0.11755760981E+03  0.00000000000E+00 0. -1.
          1   -1    0    0  501    0 -0.00000000000E+00 -0.00000000000E+00 -0.49901025121E+03  0.49901025121E+03  0.00000000000E+00 0. -1.
         25    2    1    2    0    0 -0.11951577178E+03  0.65418883513E+02 -0.88580603784E+02  0.20502403852E+03  0.12499873191E+03 0.  0.
          2    1    1    2  501    0  0.13392898007E+03 -0.94947639208E+02 -0.32592496374E+03  0.36493712867E+03  0.00000000000E+00 0. -1.
          1    1    1    2  502    0 -0.14413208286E+02  0.29528755696E+02  0.33052926120E+02  0.46606693845E+02  0.00000000000E+00 0. -1.
         22    1    3    3    0    0 -0.13578780913E+03  0.24873123126E+02 -0.50264640754E+02  0.14691336043E+03  0.00000000000E+00 0.  1.
         22    1    3    3    0    0  0.16272037349E+02  0.40545760387E+02 -0.38315963030E+02  0.58110678087E+02  0.00000000000E+00 0.  1.
</event>
<event>
 7    1  0.5064652E-006  0.9370375E+02  0.7818608E-02  0.1374533E+00
          2   -1    0    0  502    0  0.00000000000E+00  0.00000000000E+00  0.27068554514E+04  0.27068554514E+04  0.00000000000E+00 0. -1.
          1   -1    0    0  501    0 -0.00000000000E+00 -0.00000000000E+00 -0.13405620382E+03  0.13405620382E+03  0.00000000000E+00 0. -1.
         25    2    1    2    0    0  0.10554270718E+03 -0.82944331112E+02  0.16792982142E+03  0.24868738978E+03  0.12500387118E+03 0.  0.
          2    1    1    2  501    0 -0.44551295968E+02  0.12890104413E+02 -0.87018269251E+02  0.98606044174E+02  0.00000000000E+00 0. -1.
          1    1    1    2  502    0 -0.60991411216E+02  0.70054226700E+02  0.24918876954E+04  0.24936182213E+04  0.00000000000E+00 0. -1.
         22    1    3    3    0    0  0.21967017054E+02 -0.49355982038E+02 -0.44363694996E+01  0.54205573288E+02  0.00000000000E+00 0.  1.
         22    1    3    3    0    0  0.83575690129E+02 -0.33588349075E+02  0.17236619092E+03  0.19448181649E+03  0.00000000000E+00 0.  1.
</event>
<event>
 7    1  0.5064652E-006  0.5940454E+02  0.7818608E-02  0.1459355E+00
          2   -1    0    0  502    0  0.00000000000E+00  0.00000000000E+00  0.86934377002E+03  0.86934377002E+03  0.00000000000E+00 0. -1.
          1   -1    0    0  501    0 -0.00000000000E+00 -0.00000000000E+00 -0.48931574554E+02  0.48931574554E+02  0.00000000000E+00 0. -1.
         25    2    1    2    0    0 -0.49956254635E+02  0.16411604085E+02  0.50610529846E+03  0.52395941629E+03  0.12500371461E+03 0.  0.
          2    1    1    2  501    0 -0.11339640404E+02 -0.36236326290E+02 -0.27250668220E+02  0.46736042900E+02  0.00000000000E+00 0. -1.
          1    1    1    2  502    0  0.61295895039E+02  0.19824722205E+02  0.34155756523E+03  0.34757988539E+03  0.00000000000E+00 0. -1.
         22    1    3    3    0    0  0.32340234071E+02  0.38384999091E+02  0.20296513444E+03  0.20907927849E+03  0.00000000000E+00 0. -1.
         22    1    3    3    0    0 -0.82296488707E+02 -0.21973395006E+02  0.30314016402E+03  0.31488013780E+03  0.00000000000E+00 0. -1.
</event>
<event>
 7    1  0.5064652E-006  0.1095254E+03  0.7818608E-02  0.1273541E+00
          2   -1    0    0  502    0  0.00000000000E+00  0.00000000000E+00  0.18754594065E+03  0.18754594065E+03  0.00000000000E+00 0. -1.
          1   -1    0    0  501    0 -0.00000000000E+00 -0.00000000000E+00 -0.24266902527E+03  0.24266902527E+03  0.00000000000E+00 0. -1.
         25    2    1    2    0    0  0.55170241826E+00  0.40397074346E+02  0.26969392274E+01  0.13139173060E+03  0.12499714156E+03 0.  0.
          2    1    1    2  501    0 -0.18099208685E+02  0.10801956922E+03 -0.94812391187E+02  0.14486268744E+03  0.00000000000E+00 0. -1.
          1    1    1    2  502    0  0.17547506267E+02 -0.14841664356E+03  0.36992367338E+02  0.15396054788E+03  0.00000000000E+00 0. -1.
         22    1    3    3    0    0  0.56453679707E+02 -0.51034626228E+01 -0.11726496796E+02  0.57884142995E+02  0.00000000000E+00 0.  1.
         22    1    3    3    0    0 -0.55901977289E+02  0.45500536968E+02  0.14423436024E+02  0.73507587608E+02  0.00000000000E+00 0.  1.
</event>
<event>
 7    1  0.5064652E-006  0.3396183E+02  0.7818608E-02  0.1558779E+00
          2   -1    0    0  502    0  0.00000000000E+00  0.00000000000E+00  0.24967386892E+03  0.24967386892E+03  0.00000000000E+00 0. -1.
          1   -1    0    0  501    0 -0.00000000000E+00 -0.00000000000E+00 -0.25992527038E+04  0.25992527038E+04  0.00000000000E+00 0. -1.
         25    2    1    2    0    0 -0.36308468748E+01 -0.15850059157E+02 -0.97238549615E+03  0.98051960968E+03  0.12498297657E+03 0.  0.
          2    1    1    2  501    0  0.33797647602E+02  0.17147854307E+00 -0.16214466720E+04  0.16217988842E+04  0.00000000000E+00 0. -1.
          1    1    1    2  502    0 -0.30166800727E+02  0.15678580614E+02  0.24425333329E+03  0.24660807890E+03  0.00000000000E+00 0. -1.
         22    1    3    3    0    0  0.49111000021E+02 -0.36229691159E+02 -0.67886938669E+03  0.68160701656E+03  0.00000000000E+00 0. -1.
         22    1    3    3    0    0 -0.52741846896E+02  0.20379632002E+02 -0.29351610946E+03  0.29891259312E+03  0.00000000000E+00 0. -1.
</event>
<event>
 7    1  0.5064652E-006  0.7779508E+02  0.7818608E-02  0.1429430E+00
          2   -1    0    0  502    0  0.00000000000E+00  0.00000000000E+00  0.75563299849E+03  0.75563299849E+03  0.00000000000E+00 0. -1.
          1   -1    0    0  501    0 -0.00000000000E+00 -0.00000000000E+00 -0.60014050613E+03  0.60014050613E+03  0.00000000000E+00 0. -1.
         25    2    1    2    0    0  0.26352884113E+02 -0.68840790207E+02 -0.25803099533E+03  0.29601416489E+03  0.12494343668E+03 0.  0.
          2    1    1    2  501    0  0.31897248111E+02  0.17136968087E+02 -0.32003534281E+03  0.32207721242E+03  0.00000000000E+00 0. -1.
          1    1    1    2  502    0 -0.58250132224E+02  0.51703822120E+02  0.73355883051E+03  0.73768212730E+03  0.00000000000E+00 0. -1.
         22    1    3    3    0    0 -0.22687119612E+02 -0.86512606349E+02 -0.13015957803E+03  0.15792609729E+03  0.00000000000E+00 0. -1.
         22    1    3    3    0    0  0.49040003725E+02  0.17671816142E+02 -0.12787141730E+03  0.13808806760E+03  0.00000000000E+00 0. -1.
</event>
<event>
 7    1  0.5064652E-006  0.9808847E+02  0.7818608E-02  0.1334650E+00
          2   -1    0    0  502    0  0.00000000000E+00  0.00000000000E+00  0.95807456267E+03  0.95807456267E+03  0.00000000000E+00 0. -1.
          1   -1    0    0  501    0 -0.00000000000E+00 -0.00000000000E+00 -0.12361462091E+04  0.12361462091E+04  0.00000000000E+00 0. -1.
         25    2    1    2    0    0 -0.32051631201E+02  0.74522359675E+02  0.31617616238E+03  0.34953365915E+03  0.12500209625E+03 0.  0.
          2    1    1    2  501    0  0.54865158603E+02  0.29133055333E+02 -0.12141633105E+04  0.12157513994E+04  0.00000000000E+00 0. -1.
          1    1    1    2  502    0 -0.22813527402E+02 -0.10365541501E+03  0.61991550170E+03  0.62893571321E+03  0.00000000000E+00 0. -1.
         22    1    3    3    0    0 -0.52566055580E+02 -0.14955846264E+02  0.15063271343E+03  0.16024069986E+03  0.00000000000E+00 0. -1.
         22    1    3    3    0    0  0.20514424379E+02  0.89478205938E+02  0.16554344895E+03  0.18929295929E+03  0.00000000000E+00 0. -1.
</event>
<event>
 7    1  0.5064652E-006  0.6163252E+02  0.7818608E-02  0.1414660E+00
          2   -1    0    0  502    0  0.00000000000E+00  0.00000000000E+00  0.38307494297E+03  0.38307494297E+03  0.00000000000E+00 0. -1.
          1   -1    0    0  501    0 -0.00000000000E+00 -0.00000000000E+00 -0.16644390669E+03  0.16644390669E+03  0.00000000000E+00 0. -1.
         25    2    1    2    0    0 -0.16285856234E+02 -0.58891342288E+01  0.13657663827E+02  0.12693561091E+03  0.12500482599E+03 0.  0.
          2    1    1    2  501    0  0.64377476615E+02  0.23415458671E+02 -0.96735559710E+02  0.11853485442E+03  0.00000000000E+00 0. -1.
          1    1    1    2  502    0 -0.48091620381E+02 -0.17526324442E+02  0.29970893216E+03  0.30404838433E+03  0.00000000000E+00 0. -1.
         22    1    3    3    0    0  0.93455445191E+01  0.44124810837E+02  0.44049221203E+02  0.63044999979E+02  0.00000000000E+00 0.  1.
         22    1    3    3    0    0 -0.25631400753E+02 -0.50013945066E+02 -0.30391557377E+02  0.63890610933E+02  0.00000000000E+00 0.  1.
</event>
<event>
 7    1  0.5064652E-006  0.1451739E+03  0.7818608E-02  0.1306856E+00
          2   -1    0    0  502    0  0.00000000000E+00  0.00000000000E+00  0.13123053942E+04  0.13123053942E+04  0.00000000000E+00 0. -1.
          1   -1    0    0  501    0 -0.00000000000E+00 -0.00000000000E+00 -0.50308703518E+02  0.50308703518E+02  0.00000000000E+00 0. -1.
         25    2    1    2    0    0 -0.22830398495E+02 -0.10345581117E+03  0.71631070979E+03  0.73481103962E+03  0.12498759552E+03 0.  0.
          2    1    1    2  501    0  0.33647061587E+01  0.15359831739E+03  0.11035399339E+03  0.18916069415E+03  0.00000000000E+00 0. -1.
          1    1    1    2  502    0  0.19465692337E+02 -0.50142506218E+02  0.43533198753E+03  0.43864236398E+03  0.00000000000E+00 0. -1.
         22    1    3    3    0    0 -0.61776775540E+02 -0.61998728000E+02  0.24664771054E+03  0.26171607781E+03  0.00000000000E+00 0.  1.
         22    1    3    3    0    0  0.38946377045E+02 -0.41457083171E+02  0.46966299924E+03  0.47309496181E+03  0.00000000000E+00 0.  1.
</event>
<event>
 7    1  0.5064652E-006  0.1645510E+03  0.7818608E-02  0.1381321E+00
          2   -1    0    0  502    0  0.00000000000E+00  0.00000000000E+00  0.19223021713E+04  0.19223021713E+04  0.00000000000E+00 0. -1.
          1   -1    0    0  501    0 -0.00000000000E+00 -0.00000000000E+00 -0.55640982063E+03  0.55640982063E+03  0.00000000000E+00 0. -1.
         25    2    1    2    0    0  0.63553114469E+02  0.12889720667E+03  0.84310188015E+03  0.86434918128E+03  0.12500095451E+03 0.  0.
          2    1    1    2  501    0 -0.85398313011E+02 -0.14102064763E+03 -0.53318525267E+03  0.55809157724E+03  0.00000000000E+00 0. -1.
          1    1    1    2  502    0  0.21845198543E+02  0.12123440960E+02  0.10559757232E+04  0.10562712334E+04  0.00000000000E+00 0. -1.
         22    1    3    3    0    0  0.66274749527E+02  0.52303820926E+01  0.27229086498E+03  0.28028916224E+03  0.00000000000E+00 0.  1.
         22    1    3    3    0    0 -0.27216350587E+01  0.12366682457E+03  0.57081101517E+03  0.58406001904E+03  0.00000000000E+00 0.  1.
</event>
<event>
 7    1  0.5064652E-006  0.4419817E+02  0.7818608E-02  0.1521550E+00
          2   -1    0    0  502    0  0.00000000000E+00  0.00000000000E+00  0.79973039315E+03  0.79973039315E+03  0.00000000000E+00 0. -1.
          1   -1    0    0  501    0 -0.00000000000E+00 -0.00000000000E+00 -0.12057048531E+04  0.12057048531E+04  0.00000000000E+00 0. -1.
         25    2    1    2    0    0  0.13487296979E+01 -0.52114145788E+02 -0.97159821742E+02  0.16668044275E+03  0.12499854308E+03 0.  0.
          2    1    1    2  501    0  0.27414614823E+02  0.18532526604E+02 -0.10728904810E+04  0.10734006707E+04  0.00000000000E+00 0. -1.
          1    1    1    2  502    0 -0.28763344521E+02  0.33581619183E+02  0.76407584276E+03  0.76535413282E+03  0.00000000000E+00 0. -1.
         22    1    3    3    0    0  0.28927168890E+02  0.24982765506E+02  0.17673363765E+01  0.38262816810E+02  0.00000000000E+00 0.  1.
         22    1    3    3    0    0 -0.27578439192E+02 -0.77096911294E+02 -0.98927158118E+02  0.12841762594E+03  0.00000000000E+00 0.  1.
</event>
<event>
 7    1  0.5064652E-006  0.7380457E+02  0.7818608E-02  0.1384216E+00
          2   -1    0    0  502    0  0.00000000000E+00  0.00000000000E+00  0.11551132353E+04  0.11551132353E+04  0.00000000000E+00 0. -1.
          1   -1    0    0  501    0 -0.00000000000E+00 -0.00000000000E+00 -0.11646601388E+03  0.11646601388E+03  0.00000000000E+00 0. -1.
         25    2    1    2    0    0 -0.97839766892E+01  0.40012627289E+02  0.32288474663E+03  0.34867829059E+03  0.12500101672E+03 0.  0.
          2    1    1    2  501    0 -0.53686249986E+02  0.88340846747E+01 -0.94309969958E+02  0.10887894619E+03  0.00000000000E+00 0. -1.
          1    1    1    2  502    0  0.63470226675E+02 -0.48846711964E+02  0.81007244473E+03  0.81402201239E+03  0.00000000000E+00 0. -1.
         22    1    3    3    0    0  0.57641151569E+02  0.21096816986E+02  0.16053766309E+03  0.17187181069E+03  0.00000000000E+00 0. -1.
         22    1    3    3    0    0 -0.67425128258E+02  0.18915810303E+02  0.16234708354E+03  0.17680647990E+03  0.00000000000E+00 0. -1.
</event>
<event>
 7    1  0.5064652E-006  0.7969774E+02  0.7818608E-02  0.1364190E+00
          2   -1    0    0  502    0  0.00000000000E+00  0.00000000000E+00  0.58647473070E+03  0.58647473070E+03  0.00000000000E+00 0. -1.
          1   -1    0    0  501    0 -0.00000000000E+00 -0.00000000000E+00 -0.14924423900E+03  0.14924423900E+03  0.00000000000E+00 0. -1.
         25    2    1    2    0    0 -0.21974145452E+00  0.51127549363E+01 -0.17852707552E+02  0.12637601432E+03  0.12500395706E+03 0.  0.
          2    1    1    2  501    0 -0.51800104023E+02 -0.65492095160E+02 -0.50455029891E+02  0.97561136456E+02  0.00000000000E+00 0. -1.
          1    1    1    2  502    0  0.52019845478E+02  0.60379340224E+02  0.50553822914E+03  0.51178181892E+03  0.00000000000E+00 0. -1.
         22    1    3    3    0    0 -0.37668489970E+02 -0.17028391813E+02 -0.55252648351E+02  0.69005336128E+02  0.00000000000E+00 0.  1.
         22    1    3    3    0    0  0.37448748516E+02  0.22141146750E+02  0.37399940799E+02  0.57370678195E+02  0.00000000000E+00 0.  1.
</event>
<event>
 7    1  0.5064652E-006  0.1043739E+03  0.7818608E-02  0.1304089E+00
          2   -1    0    0  502    0  0.00000000000E+00  0.00000000000E+00  0.66357415843E+03  0.66357415843E+03  0.00000000000E+00 0. -1.
          1   -1    0    0  501    0 -0.00000000000E+00 -0.00000000000E+00 -0.43799062718E+03  0.43799062718E+03  0.00000000000E+00 0. -1.
         25    2    1    2    0    0 -0.59568721923E+02 -0.79266776290E+02 -0.18686056406E+03  0.24570936467E+03  0.12499826810E+03 0.  0.
          2    1    1    2  501    0 -0.79201509793E+01  0.11577452504E+03 -0.20397728181E+03  0.23467680102E+03  0.00000000000E+00 0. -1.
          1    1    1    2  502    0  0.67488872902E+02 -0.36507748753E+02  0.61642137712E+03  0.62117861993E+03  0.00000000000E+00 0. -1.
         22    1    3    3    0    0 -0.70773212634E+02  0.82988530286E+01 -0.84985885310E+02  0.11090680453E+03  0.00000000000E+00 0.  1.
         22    1    3    3    0    0  0.11204490711E+02 -0.87565629319E+02 -0.10187467875E+03  0.13480256014E+03  0.00000000000E+00 0.  1.
</event>
<event>
 7    1  0.5064652E-006  0.6989708E+02  0.7818608E-02  0.1406094E+00
          2   -1    0    0  502    0  0.00000000000E+00  0.00000000000E+00  0.55749988088E+03  0.55749988088E+03  0.00000000000E+00 0. -1.
          1   -1    0    0  501    0 -0.00000000000E+00 -0.00000000000E+00 -0.40832659244E+02  0.40832659244E+02  0.00000000000E+00 0. -1.
         25    2    1    2    0    0  0.44561685778E+02  0.24730920569E+02  0.18975886704E+03  0.23287441135E+03  0.12499880627E+03 0.  0.
          2    1    1    2  501    0 -0.81623368880E+02  0.61666350906E+01  0.82080357742E+02  0.11592060586E+03  0.00000000000E+00 0. -1.
          1    1    1    2  502    0  0.37061683102E+02 -0.30897555660E+02  0.24482799685E+03  0.24953752292E+03  0.00000000000E+00 0. -1.
         22    1    3    3    0    0  0.65953102738E+01 -0.49996279724E+02  0.59736196808E+02  0.78176334737E+02  0.00000000000E+00 0. -1.
         22    1    3    3    0    0  0.37966375504E+02  0.74727200294E+02  0.13002267023E+03  0.15469807661E+03  0.00000000000E+00 0. -1.
</event>
<event>
 7    1  0.5064652E-006  0.1075504E+03  0.7818608E-02  0.1416158E+00
          2   -1    0    0  502    0  0.00000000000E+00  0.00000000000E+00  0.66167393277E+03  0.66167393277E+03  0.00000000000E+00 0. -1.
          1   -1    0    0  501    0 -0.00000000000E+00 -0.00000000000E+00 -0.23065571006E+04  0.23065571006E+04  0.00000000000E+00 0. -1.
         25    2    1    2    0    0  0.61438644142E+02 -0.11135085000E+03  0.78687916573E+01  0.17849129128E+03  0.12499401742E+03 0.  0.
          2    1    1    2  501    0 -0.34079968532E+02  0.10175013775E+03 -0.22195791431E+04  0.22221714847E+04  0.00000000000E+00 0. -1.
          1    1    1    2  502    0 -0.27358675610E+02  0.96007122529E+01  0.56682718359E+03  0.56756825745E+03  0.00000000000E+00 0. -1.
         22    1    3    3    0    0 -0.30598848273E+02  0.14583239177E+01 -0.89943704627E+01  0.31926711768E+02  0.00000000000E+00 0.  1.
         22    1    3    3    0    0  0.92037492415E+02 -0.11280917392E+03  0.16863162120E+02  0.14656457951E+03  0.00000000000E+00 0.  1.
</event>
<event>
 7    1  0.5064652E-006  0.1086971E+03  0.7818608E-02  0.1413613E+00
          2   -1    0    0  502    0  0.00000000000E+00  0.00000000000E+00  0.17875838316E+03  0.17875838316E+03  0.00000000000E+00 0. -1.
          1   -1    0    0  501    0 -0.00000000000E+00 -0.00000000000E+00 -0.21671045533E+04  0.21671045533E+04  0.00000000000E+00 0. -1.
         25    2    1    2    0    0 -0.44551927716E+02 -0.75200983406E+02 -0.20720181882E+02  0.15393149873E+03  0.12500207277E+03 0.  0.
          2    1    1    2  501    0 -0.86580030510E+01 -0.27949315880E+02 -0.20496174330E+04  0.20498262724E+04  0.00000000000E+00 0. -1.
          1    1    1    2  502    0  0.53209930767E+02  0.10315029929E+03  0.81991444810E+02  0.14210516527E+03  0.00000000000E+00 0. -1.
         22    1    3    3    0    0  0.11488445151E+02 -0.92172818907E+02 -0.37237081819E+01  0.92960631021E+02  0.00000000000E+00 0.  1.
         22    1    3    3    0    0 -0.56040372867E+02  0.16971835500E+02 -0.16996473701E+02  0.60970867712E+02  0.00000000000E+00 0.  1.
</event>
<event>
 7    1  0.5064652E-006  0.4855947E+02  0.7818608E-02  0.1517633E+00
          2   -1    0    0  502    0  0.00000000000E+00  0.00000000000E+00  0.89971247585E+03  0.89971247585E+03  0.00000000000E+00 0. -1.
          1   -1    0    0  501    0 -0.00000000000E+00 -0.00000000000E+00 -0.36086013698E+03  0.36086013698E+03  0.00000000000E+00 0. -1.
         25    2    1    2    0    0  0.23220088440E+02 -0.12070072390E+02 -0.28772342547E+02  0.13091302618E+03  0.12500205427E+03 0.  0.
          2    1    1    2  501    0 -0.13236526982E+00 -0.30918607477E+02 -0.27946272060E+03  0.28116790360E+03  0.00000000000E+00 0. -1.
          1    1    1    2  502    0 -0.23087723170E+02  0.42988679867E+02  0.84708740202E+03  0.84849168306E+03  0.00000000000E+00 0. -1.
         22    1    3    3    0    0 -0.50032187092E+02  0.41401563228E+01  0.95865870514E+00  0.50212345753E+02  0.00000000000E+00 0. -1.
         22    1    3    3    0    0  0.73252275532E+02 -0.16210228713E+02 -0.29731001252E+02  0.80700680424E+02  0.00000000000E+00 0. -1.
</event>
<event>
 7    1  0.5064652E-006  0.7609827E+02  0.7818608E-02  0.1470454E+00
          2   -1    0    0  502    0  0.00000000000E+00  0.00000000000E+00  0.10385914722E+04  0.10385914722E+04  0.00000000000E+00 0. -1.
          1   -1    0    0  501    0 -0.00000000000E+00 -0.00000000000E+00 -0.41936275491E+03  0.41936275491E+03  0.00000000000E+00 0. -1.
         25    2    1    2    0    0  0.15858217851E+02  0.46515564513E+02 -0.84845516410E+02  0.15886498419E+03  0.12499656288E+03 0.  0.
          2    1    1    2  501    0  0.62819699610E+01  0.26628280032E+02 -0.29541673855E+03  0.29668093613E+03  0.00000000000E+00 0. -1.
          1    1    1    2  502    0 -0.22140187812E+02 -0.73143844546E+02  0.99949097229E+03  0.10024083068E+04  0.00000000000E+00 0. -1.
         22    1    3    3    0    0 -0.36332660142E+02  0.68271418253E+02 -0.42698879823E+02  0.88341627115E+02  0.00000000000E+00 0. -1.
         22    1    3    3    0    0  0.52190877992E+02 -0.21755853740E+02 -0.42146636587E+02  0.70523357075E+02  0.00000000000E+00 0. -1.
</event>
<event>
 7    1  0.5064652E-006  0.1893195E+03  0.7818608E-02  0.1194745E+00
          2   -1    0    0  502    0  0.00000000000E+00  0.00000000000E+00  0.13514540982E+04  0.13514540982E+04  0.00000000000E+00 0. -1.
          1   -1    0    0  501    0 -0.00000000000E+00 -0.00000000000E+00 -0.70920028717E+03  0.70920028717E+03  0.00000000000E+00 0. -1.
         25    2    1    2    0    0  0.21730996319E+03 -0.11873998764E+03  0.32686421117E+02  0.27931497501E+03  0.12500259346E+03 0.  0.
          2    1    1    2  501    0 -0.97412395472E+02  0.15909581962E+03 -0.56756082920E+03  0.59743279911E+03  0.00000000000E+00 0. -1.
          1    1    1    2  502    0 -0.11989756772E+03 -0.40355831978E+02  0.11771282191E+04  0.11839066112E+04  0.00000000000E+00 0. -1.
         22    1    3    3    0    0  0.50377076358E+02 -0.14521283160E+01 -0.38301260394E+02  0.63300434807E+02  0.00000000000E+00 0. -1.
         22    1    3    3    0    0  0.16693288684E+03 -0.11728785933E+03  0.70987681511E+02  0.21601454020E+03  0.00000000000E+00 0. -1.
</event>
<event>
 7    1  0.5064652E-006  0.7394671E+02  0.7818608E-02  0.1416394E+00
          2   -1    0    0  502    0  0.00000000000E+00  0.00000000000E+00  0.44932826105E+03  0.44932826105E+03  0.00000000000E+00 0. -1.
          1   -1    0    0  501    0 -0.00000000000E+00 -0.00000000000E+00 -0.68326387827E+02  0.68326387827E+02  0.00000000000E+00 0. -1.
         25    2    1    2    0    0  0.16108008590E+02  0.91499166198E+02  0.13818080828E+03  0.20819694418E+03  0.12498186443E+03 0.  0.
          2    1    1    2  501    0 -0.35942859127E+02 -0.21907602085E+02 -0.12636357818E+02  0.43948944131E+02  0.00000000000E+00 0. -1.
          1    1    1    2  502    0  0.19834850537E+02 -0.69591564113E+02  0.25545742276E+03  0.26550876056E+03  0.00000000000E+00 0. -1.
         22    1    3    3    0    0  0.39781467733E+01  0.50801966487E+02 -0.11811838564E+02  0.52308555524E+02  0.00000000000E+00 0. -1.
         22    1    3    3    0    0  0.12129861816E+02  0.40697199711E+02  0.14999264684E+03  0.15588838866E+03  0.00000000000E+00 0. -1.
</event>
<event>
 7    1  0.5064652E-006  0.4040066E+02  0.7818608E-02  0.1554489E+00
          2   -1    0    0  502    0  0.00000000000E+00  0.00000000000E+00  0.18039381538E+03  0.18039381538E+03  0.00000000000E+00 0. -1.
          1   -1    0    0  501    0 -0.00000000000E+00 -0.00000000000E+00 -0.69677502155E+03  0.69677502155E+03  0.00000000000E+00 0. -1.
         25    2    1    2    0    0 -0.30148973304E+02 -0.47442479879E+02 -0.52273804672E+03  0.54040886664E+03  0.12500771244E+03 0.  0.
          2    1    1    2  501    0 -0.55777290674E+01  0.28660541545E+02 -0.16150014673E+03  0.16411835698E+03  0.00000000000E+00 0. -1.
          1    1    1    2  502    0  0.35726702371E+02  0.18781938334E+02  0.16785698728E+03  0.17264161332E+03  0.00000000000E+00 0. -1.
         22    1    3    3    0    0 -0.72255109752E+02 -0.58702144844E+02 -0.33667940206E+03  0.34931327267E+03  0.00000000000E+00 0. -1.
         22    1    3    3    0    0  0.42106136448E+02  0.11259664964E+02 -0.18605864466E+03  0.19109559397E+03  0.00000000000E+00 0. -1.
</event>
<event>
 7    1  0.5064652E-006  0.6555162E+02  0.7818608E-02  0.1401779E+00
          2   -1    0    0  502    0  0.00000000000E+00  0.00000000000E+00  0.33218908051E+03  0.33218908051E+03  0.00000000000E+00 0. -1.
          1   -1    0    0  501    0 -0.00000000000E+00 -0.00000000000E+00 -0.17079526261E+04  0.17079526261E+04  0.00000000000E+00 0. -1.
         25    2    1    2    0    0  0.68882283936E+01  0.20636942623E+02 -0.67388751865E+03  0.68572808025E+03  0.12500112465E+03 0.  0.
          2    1    1    2  501    0  0.52741671004E+02  0.71799048956E+01 -0.10241291954E+04  0.10255115035E+04  0.00000000000E+00 0. -1.
          1    1    1    2  502    0 -0.59629899397E+02 -0.27816847519E+02  0.32225316842E+03  0.32890212292E+03  0.00000000000E+00 0. -1.
         22    1    3    3    0    0  0.94533363434E+01  0.66361198146E+02 -0.23246303948E+03  0.24193436902E+03  0.00000000000E+00 0.  1.
         22    1    3    3    0    0 -0.25651079498E+01 -0.45724255523E+02 -0.44142447917E+03  0.44379371123E+03  0.00000000000E+00 0.  1.
</event>
<event>
 7    1  0.6449060E-006  0.1020329E+03  0.7818608E-02  0.1335180E+00
          2   -1    0    0  502    0  0.00000000000E+00  0.00000000000E+00  0.27545217993E+04  0.27545217993E+04  0.00000000000E+00 0. -1.
          1   -1    0    0  501    0 -0.00000000000E+00 -0.00000000000E+00 -0.66515720294E+03  0.66515720294E+03  0.00000000000E+00 0. -1.
         25    2    1    2    0    0 -0.77888225833E+02  0.42219887219E+02 -0.64032834681E+02  0.16605520290E+03  0.12500012757E+03 0.  0.
          2    1    1    2  501    0  0.32787969449E+02  0.49582714647E+02 -0.54753655046E+03  0.55075382035E+03  0.00000000000E+00 0. -1.
          1    1    1    2  502    0  0.45100256384E+02 -0.91802601866E+02  0.27009339815E+04  0.27028699790E+04  0.00000000000E+00 0. -1.
         22    1    3    3    0    0  0.32517947491E+02  0.66353664738E+00 -0.15502117094E+01  0.32561639183E+02  0.00000000000E+00 0. -1.
         22    1    3    3    0    0 -0.11040617332E+03  0.41556350571E+02 -0.62482622972E+02  0.13349356372E+03  0.00000000000E+00 0. -1.
</event>
<event>
 7    1  0.5064652E-006  0.6861888E+02  0.7818608E-02  0.1484842E+00
          2   -1    0    0  502    0  0.00000000000E+00  0.00000000000E+00  0.39007055801E+03  0.39007055801E+03  0.00000000000E+00 0. -1.
          1   -1    0    0  501    0 -0.00000000000E+00 -0.00000000000E+00 -0.58982133874E+03  0.58982133874E+03  0.00000000000E+00 0. -1.
         25    2    1    2    0    0 -0.46161499037E+02  0.46219180093E+02  0.12632614245E+03  0.18934179321E+03  0.12499969516E+03 0.  0.
          2    1    1    2  501    0  0.20065943331E+02  0.18657963842E+02 -0.55270237922E+03  0.55338113601E+03  0.00000000000E+00 0. -1.
          1    1    1    2  502    0  0.26095555705E+02 -0.64877143935E+02  0.22662545604E+03  0.23716896753E+03  0.00000000000E+00 0. -1.
         22    1    3    3    0    0 -0.74857474197E+01 -0.27710481440E+02  0.96592223988E+02  0.10076688410E+03  0.00000000000E+00 0.  1.
         22    1    3    3    0    0 -0.38675751617E+02  0.73929661533E+02  0.29733918458E+02  0.88574909113E+02  0.00000000000E+00 0.  1.
</event>
<event>
 7    1  0.5064652E-006  0.8981092E+02  0.7818608E-02  0.1346707E+00
          2   -1    0    0  502    0  0.00000000000E+00  0.00000000000E+00  0.26524584356E+04  0.26524584356E+04  0.00000000000E+00 0. -1.
          1   -1    0    0  501    0 -0.00000000000E+00 -0.00000000000E+00 -0.65784085165E+02  0.65784085165E+02  0.00000000000E+00 0. -1.
         25    2    1    2    0    0  0.32776865863E+01  0.67934127649E+02  0.83918454817E+03  0.85116489159E+03  0.12500071149E+03 0.  0.
          2    1    1    2  501    0  0.57775815491E+02 -0.70859788395E+02 -0.24006135315E+02  0.94527503933E+02  0.00000000000E+00 0. -1.
          1    1    1    2  502    0 -0.61053502077E+02  0.29256607460E+01  0.17714959376E+04  0.17725501252E+04  0.00000000000E+00 0. -1.
         22    1    3    3    0    0  0.22335363092E+02  0.43615159321E+02  0.79887508477E+03  0.80037650618E+03  0.00000000000E+00 0. -1.
         22    1    3    3    0    0 -0.19057676505E+02  0.24318968329E+02  0.40309463394E+02  0.50788385419E+02  0.00000000000E+00 0. -1.
</event>
<event>
 7    1  0.5064652E-006  0.4976614E+02  0.7818608E-02  0.1535499E+00
          2   -1    0    0  502    0  0.00000000000E+00  0.00000000000E+00  0.16735420577E+04  0.16735420577E+04  0.00000000000E+00 0. -1.
          1   -1    0    0  501    0 -0.00000000000E+00 -0.00000000000E+00 -0.17938655966E+02  0.17938655966E+02  0.00000000000E+00 0. -1.
         25    2    1    2    0    0  0.72222953137E+02 -0.10908432548E+01  0.83654138832E+03  0.84890446287E+03  0.12497978962E+03 0.  0.
          2    1    1    2  501    0 -0.47570948367E+02 -0.94225018531E+01  0.39479659815E+02  0.62533368763E+02  0.00000000000E+00 0. -1.
          1    1    1    2  502    0 -0.24652004770E+02  0.10513345108E+02  0.77958235356E+03  0.78004288199E+03  0.00000000000E+00 0. -1.
         22    1    3    3    0    0  0.84972528096E+02 -0.46324286491E+02  0.59749977433E+03  0.60528691574E+03  0.00000000000E+00 0.  1.
         22    1    3    3    0    0 -0.12749574958E+02  0.45233443236E+02  0.23904161399E+03  0.24361754713E+03  0.00000000000E+00 0.  1.
</event>
<event>
 7    1  0.5064652E-006  0.8627200E+02  0.7818608E-02  0.1472945E+00
          2   -1    0    0  502    0  0.00000000000E+00  0.00000000000E+00  0.57072168528E+03  0.57072168528E+03  0.00000000000E+00 0. -1.
          1   -1    0    0  501    0 -0.00000000000E+00 -0.00000000000E+00 -0.10689051638E+04  0.10689051638E+04  0.00000000000E+00 0. -1.
         25    2    1    2    0    0  0.60033997224E+02 -0.81143915164E+02  0.76598802263E+02  0.17799674942E+03  0.12500820175E+03 0.  0.
          2    1    1    2  501    0 -0.23326491106E+02  0.42309329744E+01 -0.10139714917E+04  0.10142485948E+04  0.00000000000E+00 0. -1.
          1    1    1    2  502    0 -0.36707506118E+02  0.76912982189E+02  0.43918921097E+03  0.44738150484E+03  0.00000000000E+00 0. -1.
         22    1    3    3    0    0  0.96036134715E+02 -0.41462120788E+02  0.65067151413E+02  0.12319001918E+03  0.00000000000E+00 0. -1.
         22    1    3    3    0    0 -0.36002137491E+02 -0.39681794376E+02  0.11531650849E+02  0.54806730245E+02  0.00000000000E+00 0. -1.
</event>
<event>
 7    1  0.5064652E-006  0.6055176E+02  0.7818608E-02  0.1425819E+00
          2   -1    0    0  502    0  0.00000000000E+00  0.00000000000E+00  0.10574339137E+04  0.10574339137E+04  0.00000000000E+00 0. -1.
          1   -1    0    0  501    0 -0.00000000000E+00 -0.00000000000E+00 -0.27464605423E+02  0.27464605423E+02  0.00000000000E+00 0. -1.
         25    2    1    2    0    0 -0.44733317800E+02 -0.79093186948E+01  0.45463089558E+03  0.47368573273E+03  0.12500118055E+03 0.  0.
          2    1    1    2  501    0  0.79009848449E+01 -0.47158937686E+02  0.19825537542E+02  0.51763335519E+02  0.00000000000E+00 0. -1.
          1    1    1    2  502    0  0.36832332955E+02  0.55068256381E+02  0.55551287511E+03  0.55944945082E+03  0.00000000000E+00 0. -1.
         22    1    3    3    0    0 -0.47597358286E+02 -0.55224249392E+02  0.36584532870E+03  0.37303891321E+03  0.00000000000E+00 0. -1.
         22    1    3    3    0    0  0.28640404861E+01  0.47314930698E+02  0.88785566881E+02  0.10064681953E+03  0.00000000000E+00 0. -1.
</event>
<event>
 7    1  0.5064652E-006  0.8755697E+02  0.7818608E-02  0.1347450E+00
          2   -1    0    0  502    0  0.00000000000E+00  0.00000000000E+00  0.90469109583E+03  0.90469109583E+03  0.00000000000E+00 0. -1.
          1   -1    0    0  501    0 -0.00000000000E+00 -0.00000000000E+00 -0.31907265553E+03  0.31907265553E+03  0.00000000000E+00 0. -1.
         25    2    1    2    0    0 -0.30133263602E+02 -0.16612766788E+01 -0.84693717106E+02  0.15397837815E+03  0.12500216721E+03 0.  0.
          2    1    1    2  501    0 -0.52849958451E+02  0.32986433511E+02 -0.19254926629E+03  0.20237698203E+03  0.00000000000E+00 0. -1.
          1    1    1    2  502    0  0.82983222054E+02 -0.31325156832E+02  0.86286142369E+03  0.86740839118E+03  0.00000000000E+00 0. -1.
         22    1    3    3    0    0 -0.44259209593E+02  0.51840705133E+02 -0.25056130441E+02  0.72623315920E+02  0.00000000000E+00 0. -1.
         22    1    3    3    0    0  0.14125945991E+02 -0.53501981812E+02 -0.59637586666E+02  0.81355062235E+02  0.00000000000E+00 0. -1.
</event>
<event>
 7    1  0.5064652E-006  0.4902943E+03  0.7818608E-02  0.1188939E+00
          2   -1    0    0  502    0  0.00000000000E+00  0.00000000000E+00  0.15160174333E+04  0.15160174333E+04  0.00000000000E+00 0. -1.
          1   -1    0    0  501    0 -0.00000000000E+00 -0.00000000000E+00 -0.51486273386E+03  0.51486273386E+03  0.00000000000E+00 0. -1.
         25    2    1    2    0    0 -0.27840383213E+03 -0.43378640798E+03  0.46180869762E+03  0.70325855127E+03  0.12500390093E+03 0.  0.
          2    1    1    2  501    0 -0.83632975181E+01  0.51397878683E+02 -0.33078330154E+03  0.33485710274E+03  0.00000000000E+00 0. -1.
          1    1    1    2  502    0  0.28676712964E+03  0.38238852930E+03  0.87012930337E+03  0.99276451315E+03  0.00000000000E+00 0. -1.
         22    1    3    3    0    0 -0.21178388672E+03 -0.40497133224E+03  0.41124771300E+03  0.61479986667E+03  0.00000000000E+00 0.  1.
         22    1    3    3    0    0 -0.66619945402E+02 -0.28815075742E+02  0.50560984621E+02  0.88458684601E+02  0.00000000000E+00 0.  1.
</event>
<event>
 7    1  0.5064652E-006  0.5873555E+02  0.7818608E-02  0.1417111E+00
          2   -1    0    0  502    0  0.00000000000E+00  0.00000000000E+00  0.18954087282E+04  0.18954087282E+04  0.00000000000E+00 0. -1.
          1   -1    0    0  501    0 -0.00000000000E+00 -0.00000000000E+00 -0.13640973830E+03  0.13640973830E+03  0.00000000000E+00 0. -1.
         25    2    1    2    0    0 -0.92512803873E+02 -0.46281491679E+02  0.31394720513E+02  0.16526102890E+03  0.12499993538E+03 0.  0.
          2    1    1    2  501    0  0.52579762441E+02  0.35834619675E+01 -0.58934911930E+02  0.79061978613E+02  0.00000000000E+00 0. -1.
          1    1    1    2  502    0  0.39933041432E+02  0.42698029711E+02  0.17865391813E+04  0.17874954590E+04  0.00000000000E+00 0. -1.
         22    1    3    3    0    0 -0.91264655491E+02 -0.21107641074E+02 -0.30432861088E+02  0.98493293617E+02  0.00000000000E+00 0.  1.
         22    1    3    3    0    0 -0.12481483824E+01 -0.25173850605E+02  0.61827581601E+02  0.66767735286E+02  0.00000000000E+00 0.  1.
</event>
<event>
 7    1  0.5064652E-006  0.1895472E+03  0.7818608E-02  0.1237522E+00
          2   -1    0    0  502    0  0.00000000000E+00  0.00000000000E+00  0.37575475470E+04  0.37575475470E+04  0.00000000000E+00 0. -1.
          1   -1    0    0  501    0 -0.00000000000E+00 -0.00000000000E+00 -0.59810399358E+02  0.59810399358E+02  0.00000000000E+00 0. -1.
         25    2    1    2    0    0  0.20060349135E+03  0.47423735389E+02  0.51735433973E+03  0.57076366632E+03  0.12499951413E+03 0.  0.
          2    1    1    2  501    0 -0.18400078612E+03  0.31236185994E+02  0.23490967760E+03  0.30002424109E+03  0.00000000000E+00 0. -1.
          1    1    1    2  502    0 -0.16602705225E+02 -0.78659921383E+02  0.29454731303E+04  0.29465700390E+04  0.00000000000E+00 0. -1.
         22    1    3    3    0    0  0.15523746048E+02  0.10034334775E+02 -0.15734320568E+01  0.18551287130E+02  0.00000000000E+00 0.  1.
         22    1    3    3    0    0  0.18507974530E+03  0.37389400614E+02  0.51892777179E+03  0.55221237919E+03  0.00000000000E+00 0.  1.
</event>
<event>
 7    1  0.5064652E-006  0.1746031E+03  0.7818608E-02  0.1251023E+00
          2   -1    0    0  502    0  0.00000000000E+00  0.00000000000E+00  0.22208087319E+04  0.22208087319E+04  0.00000000000E+00 0. -1.
          1   -1    0    0  501    0 -0.00000000000E+00 -0.00000000000E+00 -0.42508800982E+03  0.42508800982E+03  0.00000000000E+00 0. -1.
         25    2    1    2    0    0 -0.14726324616E+03  0.19842455016E+02 -0.62854552226E+02  0.20409581732E+03  0.12499688484E+03 0.  0.
          2    1    1    2  501    0 -0.20031538761E+02 -0.73484511610E+02 -0.28298024020E+03  0.29305127936E+03  0.00000000000E+00 0. -1.
          1    1    1    2  502    0  0.16729478493E+03  0.53642056594E+02  0.21415555145E+04  0.21487496451E+04  0.00000000000E+00 0. -1.
         22    1    3    3    0    0 -0.90379080529E+02  0.22064781255E+02  0.27756624293E+02  0.97085853559E+02  0.00000000000E+00 0.  1.
         22    1    3    3    0    0 -0.56884165635E+02 -0.22223262389E+01 -0.90611176519E+02  0.10700996376E+03  0.00000000000E+00 0.  1.
</event>
<event>
 7    1  0.5064652E-006  0.1716323E+03  0.7818608E-02  0.1304588E+00
          2   -1    0    0  502    0  0.00000000000E+00  0.00000000000E+00  0.20595117384E+04  0.20595117384E+04  0.00000000000E+00 0. -1.
          1   -1    0    0  501    0 -0.00000000000E+00 -0.00000000000E+00 -0.11994422251E+03  0.11994422251E+03  0.00000000000E+00 0. -1.
         25    2    1    2    0    0 -0.15571025183E+02  0.16935392637E+03  0.27352118684E+03  0.34548724573E+03  0.12499755240E+03 0.  0.
          2    1    1    2  501    0  0.46447684990E+02  0.34091063790E+00 -0.72926730315E+02  0.86462776126E+02  0.00000000000E+00 0. -1.
          1    1    1    2  502    0 -0.30876659806E+02 -0.16969483701E+03  0.17389730593E+04  0.17475059390E+04  0.00000000000E+00 0. -1.
         22    1    3    3    0    0 -0.10373779476E+02  0.35332937353E+02 -0.42124271449E+01  0.37064488463E+02  0.00000000000E+00 0.  1.
         22    1    3    3    0    0 -0.51972457070E+01  0.13402098902E+03  0.27773361399E+03  0.30842275726E+03  0.00000000000E+00 0.  1.
</event>
<event>
 7    1  0.5064652E-006  0.1051619E+03  0.7818608E-02  0.1425870E+00
          2   -1    0    0  502    0  0.00000000000E+00  0.00000000000E+00  0.12011187636E+03  0.12011187636E+03  0.00000000000E+00 0. -1.
          1   -1    0    0  501    0 -0.00000000000E+00 -0.00000000000E+00 -0.24848242452E+03  0.24848242452E+03  0.00000000000E+00 0. -1.
         25    2    1    2    0    0 -0.29296530607E+02 -0.95931747550E+02 -0.83626524734E+02  0.18077513552E+03  0.12500026836E+03 0.  0.
          2    1    1    2  501    0 -0.27160514687E+02  0.44443903027E+01 -0.71857537101E+02  0.76947721223E+02  0.00000000000E+00 0. -1.
          1    1    1    2  502    0  0.56457045294E+02  0.91487357247E+02  0.27113513675E+02  0.11087144413E+03  0.00000000000E+00 0. -1.
         22    1    3    3    0    0 -0.48322093258E+02 -0.12007392916E+03 -0.65044205428E+02  0.14485690118E+03  0.00000000000E+00 0. -1.
         22    1    3    3    0    0  0.19025562650E+02  0.24142181610E+02 -0.18582319306E+02  0.35918234336E+02  0.00000000000E+00 0. -1.
</event>
<event>
 7    1  0.5064652E-006  0.4984799E+02  0.7818608E-02  0.1481862E+00
          2   -1    0    0  502    0  0.00000000000E+00  0.00000000000E+00  0.76249286536E+02  0.76249286536E+02  0.00000000000E+00 0. -1.
          1   -1    0    0  501    0 -0.00000000000E+00 -0.00000000000E+00 -0.33968064080E+04  0.33968064080E+04  0.00000000000E+00 0. -1.
         25    2    1    2    0    0  0.61038356427E+02 -0.36308882156E+02 -0.32501780445E+03  0.35538810497E+03  0.12498046273E+03 0.  0.
          2    1    1    2  501    0 -0.49698803598E+02 -0.50054103023E+00 -0.30503071970E+04  0.30507120837E+04  0.00000000000E+00 0. -1.
          1    1    1    2  502    0 -0.11339552828E+02  0.36809423187E+02  0.54767879956E+02  0.66955505887E+02  0.00000000000E+00 0. -1.
         22    1    3    3    0    0  0.48701971967E+02 -0.28488376024E+02 -0.38060546387E+02  0.68059347876E+02  0.00000000000E+00 0. -1.
         22    1    3    3    0    0  0.12336384459E+02 -0.78205061321E+01 -0.28695725806E+03  0.28732875709E+03  0.00000000000E+00 0. -1.
</event>
<event>
 7    1  0.5064652E-006  0.1278239E+03  0.7818608E-02  0.1242120E+00
          2   -1    0    0  502    0  0.00000000000E+00  0.00000000000E+00  0.84699549299E+03  0.84699549299E+03  0.00000000000E+00 0. -1.
          1   -1    0    0  501    0 -0.00000000000E+00 -0.00000000000E+00 -0.44323875569E+03  0.44323875569E+03  0.00000000000E+00 0. -1.
         25    2    1    2    0    0 -0.18936850752E+03  0.11423123199E+03  0.18843602553E+03  0.31629503918E+03  0.12500084034E+03 0.  0.
          2    1    1    2  501    0  0.72564175558E+02 -0.87628970625E+02 -0.36451486793E+03  0.38185793826E+03  0.00000000000E+00 0. -1.
          1    1    1    2  502    0  0.11680433197E+03 -0.26602261366E+02  0.57983557970E+03  0.59208127125E+03  0.00000000000E+00 0. -1.
         22    1    3    3    0    0 -0.88707610666E+02 -0.14055402142E+02  0.81612948301E+02  0.12135595515E+03  0.00000000000E+00 0. -1.
         22    1    3    3    0    0 -0.10066089686E+03  0.12828663413E+03  0.10682307723E+03  0.19493908403E+03  0.00000000000E+00 0. -1.
</event>
<event>
 7    1  0.5064652E-006  0.1275504E+03  0.7818608E-02  0.1367638E+00
          2   -1    0    0  502    0  0.00000000000E+00  0.00000000000E+00  0.20307295514E+04  0.20307295514E+04  0.00000000000E+00 0. -1.
          1   -1    0    0  501    0 -0.00000000000E+00 -0.00000000000E+00 -0.24013995738E+03  0.24013995738E+03  0.00000000000E+00 0. -1.
         25    2    1    2    0    0  0.98670326218E+02  0.12498787721E+03  0.92266060276E+03  0.94460858466E+03  0.12499995042E+03 0.  0.
          2    1    1    2  501    0 -0.89445548180E+02 -0.90118035841E+02 -0.21125407530E+03  0.24647525394E+03  0.00000000000E+00 0. -1.
          1    1    1    2  502    0 -0.92247780372E+01 -0.34869841370E+02  0.10791830665E+04  0.10797856702E+04  0.00000000000E+00 0. -1.
         22    1    3    3    0    0  0.48003194444E+02  0.12556839475E+03  0.80997285914E+03  0.82105283690E+03  0.00000000000E+00 0.  1.
         22    1    3    3    0    0  0.50667131774E+02 -0.58051753646E+00  0.11268774361E+03  0.12355574775E+03  0.00000000000E+00 0.  1.
</event>
<event>
 7    1  0.5064652E-006  0.1105149E+03  0.7818608E-02  0.1349266E+00
          2   -1    0    0  502    0  0.00000000000E+00  0.00000000000E+00  0.24443482542E+04  0.24443482542E+04  0.00000000000E+00 0. -1.
          1   -1    0    0  501    0 -0.00000000000E+00 -0.00000000000E+00 -0.20886161891E+02  0.20886161891E+02  0.00000000000E+00 0. -1.
         25    2    1    2    0    0  0.11505210850E+03  0.31767743950E+02  0.93488089852E+03  0.95072258236E+03  0.12499982782E+03 0.  0.
          2    1    1    2  501    0 -0.59721221860E+01 -0.48228498770E+02  0.43487383252E+02  0.65213547972E+02  0.00000000000E+00 0. -1.
          1    1    1    2  502    0 -0.10907998632E+03  0.16460754820E+02  0.14450938105E+04  0.14492982858E+04  0.00000000000E+00 0. -1.
         22    1    3    3    0    0  0.26707534622E+02  0.63131979438E+02  0.56513985453E+03  0.56928199902E+03  0.00000000000E+00 0.  1.
         22    1    3    3    0    0  0.88344573880E+02 -0.31364235488E+02  0.36974104400E+03  0.38144058334E+03  0.00000000000E+00 0.  1.
</event>
<event>
 7    1  0.5064652E-006  0.1084103E+03  0.7818608E-02  0.1404456E+00
          2   -1    0    0  502    0  0.00000000000E+00  0.00000000000E+00  0.24347814676E+04  0.24347814676E+04  0.00000000000E+00 0. -1.
          1   -1    0    0  501    0 -0.00000000000E+00 -0.00000000000E+00 -0.16561044037E+03  0.16561044037E+03  0.00000000000E+00 0. -1.
         25    2    1    2    0    0  0.79467369603E+02 -0.11579428283E+02  0.32939019928E+03  0.36133874124E+03  0.12497454360E+03 0.  0.
          2    1    1    2  501    0 -0.10654401321E+03  0.27701948270E+02 -0.12925244902E+03  0.16977991715E+03  0.00000000000E+00 0. -1.
          1    1    1    2  502    0  0.27076643605E+02 -0.16122519987E+02  0.20690332769E+04  0.20692732496E+04  0.00000000000E+00 0. -1.
         22    1    3    3    0    0  0.10342405546E+03 -0.38867691015E+02  0.22197636444E+03  0.24795309843E+03  0.00000000000E+00 0. -1.
         22    1    3    3    0    0 -0.23956685853E+02  0.27288262732E+02  0.10741383484E+03  0.11338564281E+03  0.00000000000E+00 0. -1.
</event>
<event>
 7    1  0.5064652E-006  0.1182412E+03  0.7818608E-02  0.1249719E+00
          2   -1    0    0  502    0  0.00000000000E+00  0.00000000000E+00  0.17875853778E+04  0.17875853778E+04  0.00000000000E+00 0. -1.
          1   -1    0    0  501    0 -0.00000000000E+00 -0.00000000000E+00 -0.17426580560E+03  0.17426580560E+03  0.00000000000E+00 0. -1.
         25    2    1    2    0    0 -0.68119566383E+02 -0.44762596636E+02  0.13954329412E+03  0.20430879467E+03  0.12500314901E+03 0.  0.
          2    1    1    2  501    0 -0.39460783210E+02  0.10689393925E+03 -0.11618544670E+03  0.16273452518E+03  0.00000000000E+00 0. -1.
          1    1    1    2  502    0  0.10758034959E+03 -0.62131342614E+02  0.15899617248E+04  0.15948078636E+04  0.00000000000E+00 0. -1.
         22    1    3    3    0    0 -0.48401487110E+02 -0.52857062494E+02  0.92276443822E+01  0.72261486497E+02  0.00000000000E+00 0. -1.
         22    1    3    3    0    0 -0.19718079273E+02  0.80944658582E+01  0.13031564974E+03  0.13204730817E+03  0.00000000000E+00 0. -1.
</event>
<event>
 7    1  0.5064652E-006  0.4730919E+02  0.7818608E-02  0.1464983E+00
          2   -1    0    0  502    0  0.00000000000E+00  0.00000000000E+00  0.72441331665E+03  0.72441331665E+03  0.00000000000E+00 0. -1.
          1   -1    0    0  501    0 -0.00000000000E+00 -0.00000000000E+00 -0.29835655576E+03  0.29835655576E+03  0.00000000000E+00 0. -1.
         25    2    1    2    0    0  0.73771608361E+02  0.28766461483E+02  0.89532212110E+02  0.17294715098E+03  0.12499976208E+03 0.  0.
          2    1    1    2  501    0 -0.27578878004E+02 -0.36531353880E+02 -0.25367290845E+03  0.25776942955E+03  0.00000000000E+00 0. -1.
          1    1    1    2  502    0 -0.46192730357E+02  0.77648923974E+01  0.59019745723E+03  0.59205329187E+03  0.00000000000E+00 0. -1.
         22    1    3    3    0    0  0.65253977428E+02 -0.16209802352E+02 -0.55030477487E+01  0.67462010028E+02  0.00000000000E+00 0. -1.
         22    1    3    3    0    0  0.85176309327E+01  0.44976263835E+02  0.95035259859E+02  0.10548514095E+03  0.00000000000E+00 0. -1.
</event>
<event>
 7    1  0.5064652E-006  0.8875734E+02  0.7818608E-02  0.1383284E+00
          2   -1    0    0  502    0  0.00000000000E+00  0.00000000000E+00  0.45784572216E+03  0.45784572216E+03  0.00000000000E+00 0. -1.
          1   -1    0    0  501    0 -0.00000000000E+00 -0.00000000000E+00 -0.99359812951E+03  0.99359812951E+03  0.00000000000E+00 0. -1.
         25    2    1    2    0    0  0.37642246883E+02  0.30602304457E+02  0.36316847626E+02  0.13891316048E+03  0.12499805177E+03 0.  0.
          2    1    1    2  501    0  0.41186081498E+02  0.19537833732E+02 -0.93584275621E+03  0.93695233849E+03  0.00000000000E+00 0. -1.
          1    1    1    2  502    0 -0.78828328381E+02 -0.50140138189E+02  0.36377350123E+03  0.37557835269E+03  0.00000000000E+00 0. -1.
         22    1    3    3    0    0 -0.99637784557E+01  0.10253217547E+01 -0.41680847224E+02  0.42867484077E+02  0.00000000000E+00 0. -1.
         22    1    3    3    0    0  0.47606025339E+02  0.29576982702E+02  0.77997694850E+02  0.96045676406E+02  0.00000000000E+00 0. -1.
</event>
<event>
 7    1  0.5064652E-006  0.6459750E+02  0.7818608E-02  0.1480147E+00
          2   -1    0    0  502    0  0.00000000000E+00  0.00000000000E+00  0.21736428694E+04  0.21736428694E+04  0.00000000000E+00 0. -1.
          1   -1    0    0  501    0 -0.00000000000E+00 -0.00000000000E+00 -0.21786958480E+04  0.21786958480E+04  0.00000000000E+00 0. -1.
         25    2    1    2    0    0  0.21725441567E+02  0.28109841009E+02  0.16055595734E+02  0.13093704867E+03  0.12499828234E+03 0.  0.
          2    1    1    2  501    0 -0.31795581038E+02 -0.56458197268E+02 -0.21206525243E+04  0.21216421979E+04  0.00000000000E+00 0. -1.
          1    1    1    2  502    0  0.10070139471E+02  0.28348356260E+02  0.20995439500E+04  0.20997594708E+04  0.00000000000E+00 0. -1.
         22    1    3    3    0    0  0.49977434596E+01  0.46526958302E+02  0.62602028277E+02  0.78158487914E+02  0.00000000000E+00 0.  1.
         22    1    3    3    0    0  0.16727698107E+02 -0.18417117293E+02 -0.46546432544E+02  0.52778560760E+02  0.00000000000E+00 0.  1.
</event>
<event>
 7    1  0.5064652E-006  0.1211657E+03  0.7818608E-02  0.1316744E+00
          2   -1    0    0  502    0  0.00000000000E+00  0.00000000000E+00  0.22913459994E+04  0.22913459994E+04  0.00000000000E+00 0. -1.
          1   -1    0    0  501    0 -0.00000000000E+00 -0.00000000000E+00 -0.41027132758E+03  0.41027132758E+03  0.00000000000E+00 0. -1.
         25    2    1    2    0    0 -0.15401354402E+03  0.55795303021E+02  0.53672261487E+03  0.57491670755E+03  0.12499907089E+03 0.  0.
          2    1    1    2  501    0  0.12033114019E+03 -0.74394916450E+01 -0.38137008424E+03  0.39997258717E+03  0.00000000000E+00 0. -1.
          1    1    1    2  502    0  0.33682403835E+02 -0.48355811376E+02  0.17257221411E+04  0.17267280322E+04  0.00000000000E+00 0. -1.
         22    1    3    3    0    0 -0.45839778429E+02 -0.35944507928E+02  0.22541192444E+03  0.23281715704E+03  0.00000000000E+00 0. -1.
         22    1    3    3    0    0 -0.10817376559E+03  0.91739810949E+02  0.31131069044E+03  0.34209955051E+03  0.00000000000E+00 0. -1.
</event>
<event>
 7    1  0.5064652E-006  0.5115702E+02  0.7818608E-02  0.1439728E+00
          2   -1    0    0  502    0  0.00000000000E+00  0.00000000000E+00  0.39444876833E+03  0.39444876833E+03  0.00000000000E+00 0. -1.
          1   -1    0    0  501    0 -0.00000000000E+00 -0.00000000000E+00 -0.83890199133E+03  0.83890199133E+03  0.00000000000E+00 0. -1.
         25    2    1    2    0    0 -0.11412632214E+01  0.13149828304E+02 -0.13361751332E+03  0.18347322360E+03  0.12503824794E+03 0.  0.
          2    1    1    2  501    0 -0.50246966558E+02 -0.96063938562E+01 -0.67759263438E+03  0.67952102146E+03  0.00000000000E+00 0. -1.
          1    1    1    2  502    0  0.51388229780E+02 -0.35434344474E+01  0.36675692470E+03  0.37035651460E+03  0.00000000000E+00 0. -1.
         22    1    3    3    0    0  0.42911671514E+02 -0.38637609867E+02 -0.61255501942E+02  0.84181428870E+02  0.00000000000E+00 0.  1.
         22    1    3    3    0    0 -0.44052934735E+02  0.51787438171E+02 -0.72362011375E+02  0.99291794733E+02  0.00000000000E+00 0.  1.
</event>
<event>
 7    1  0.5064652E-006  0.1109131E+03  0.7818608E-02  0.1309311E+00
          2   -1    0    0  502    0  0.00000000000E+00  0.00000000000E+00  0.89653011730E+03  0.89653011730E+03  0.00000000000E+00 0. -1.
          1   -1    0    0  501    0 -0.00000000000E+00 -0.00000000000E+00 -0.13803689371E+03  0.13803689371E+03  0.00000000000E+00 0. -1.
         25    2    1    2    0    0 -0.50122810631E+02  0.69127083755E+02  0.31515049817E+03  0.34962963434E+03  0.12502077770E+03 0.  0.
          2    1    1    2  501    0  0.10924590802E+03 -0.33850453100E+02 -0.91013476423E+02  0.14616420384E+03  0.00000000000E+00 0. -1.
          1    1    1    2  502    0 -0.59123097392E+02 -0.35276630655E+02  0.53435620184E+03  0.53877317283E+03  0.00000000000E+00 0. -1.
         22    1    3    3    0    0 -0.56511740366E+02  0.89933527371E+02  0.15436151379E+03  0.18737420603E+03  0.00000000000E+00 0. -1.
         22    1    3    3    0    0  0.63889297356E+01 -0.20806443616E+02  0.16078898438E+03  0.16225542831E+03  0.00000000000E+00 0. -1.
</event>
<event>
 7    1  0.5064652E-006  0.8797143E+02  0.7818608E-02  0.1488693E+00
          2   -1    0    0  502    0  0.00000000000E+00  0.00000000000E+00  0.31926854376E+03  0.31926854376E+03  0.00000000000E+00 0. -1.
          1   -1    0    0  501    0 -0.00000000000E+00 -0.00000000000E+00 -0.27726836090E+03  0.27726836090E+03  0.00000000000E+00 0. -1.
         25    2    1    2    0    0 -0.10527388099E+03 -0.16036512458E+02 -0.27030633860E+02  0.16644512955E+03  0.12503426024E+03 0.  0.
          2    1    1    2  501    0  0.19073775709E+02  0.83067660085E+01 -0.17238283375E+03  0.17363367373E+03  0.00000000000E+00 0. -1.
          1    1    1    2  502    0  0.86200105280E+02  0.77297464491E+01  0.24141365047E+03  0.25645810138E+03  0.00000000000E+00 0. -1.
         22    1    3    3    0    0 -0.74451936168E+02 -0.68948692105E+02 -0.58200575029E+01  0.10164096621E+03  0.00000000000E+00 0. -1.
         22    1    3    3    0    0 -0.30821944820E+02  0.52912179647E+02 -0.21210576357E+02  0.64804163345E+02  0.00000000000E+00 0. -1.
</event>
<event>
 7    1  0.5064652E-006  0.5763650E+02  0.7818608E-02  0.1452584E+00
          2   -1    0    0  502    0  0.00000000000E+00  0.00000000000E+00  0.24755004899E+04  0.24755004899E+04  0.00000000000E+00 0. -1.
          1   -1    0    0  501    0 -0.00000000000E+00 -0.00000000000E+00 -0.46284315365E+03  0.46284315365E+03  0.00000000000E+00 0. -1.
         25    2    1    2    0    0  0.65150571918E+02  0.67120688627E+02  0.73271948547E+03  0.74916815493E+03  0.12500118446E+03 0.  0.
          2    1    1    2  501    0 -0.36261785482E+02 -0.19385685962E+02 -0.45323921055E+03  0.45510054261E+03  0.00000000000E+00 0. -1.
          1    1    1    2  502    0 -0.28888786436E+02 -0.47735002665E+02  0.17331770614E+04  0.17340749460E+04  0.00000000000E+00 0. -1.
         22    1    3    3    0    0  0.30791844176E+02 -0.87575912615E-01  0.55790298720E+03  0.55875208139E+03  0.00000000000E+00 0. -1.
         22    1    3    3    0    0  0.34358727742E+02  0.67208264540E+02  0.17481649827E+03  0.19041607354E+03  0.00000000000E+00 0. -1.
</event>
<event>
 7    1  0.5064652E-006  0.1158103E+03  0.7818608E-02  0.1441324E+00
          2   -1    0    0  502    0  0.00000000000E+00  0.00000000000E+00  0.55790647852E+03  0.55790647852E+03  0.00000000000E+00 0. -1.
          1   -1    0    0  501    0 -0.00000000000E+00 -0.00000000000E+00 -0.78695631360E+02  0.78695631360E+02  0.00000000000E+00 0. -1.
         25    2    1    2    0    0 -0.79219267535E+02  0.61087379800E+02  0.18155318947E+03  0.24206430370E+03  0.12500482469E+03 0.  0.
          2    1    1    2  501    0  0.99878366593E+02 -0.69327514891E+02  0.29040467008E+02  0.12500136463E+03  0.00000000000E+00 0. -1.
          1    1    1    2  502    0 -0.20659099058E+02  0.82401350908E+01  0.26861719068E+03  0.26953644156E+03  0.00000000000E+00 0. -1.
         22    1    3    3    0    0 -0.48188270594E+02 -0.31426448638E+02  0.39734589432E+02  0.69918300138E+02  0.00000000000E+00 0.  1.
         22    1    3    3    0    0 -0.31030996940E+02  0.92513828438E+02  0.14181860004E+03  0.17214600356E+03  0.00000000000E+00 0.  1.
</event>
<event>
 7    1  0.5064652E-006  0.3693877E+02  0.7818608E-02  0.1562538E+00
          2   -1    0    0  502    0  0.00000000000E+00  0.00000000000E+00  0.17844635912E+04  0.17844635912E+04  0.00000000000E+00 0. -1.
          1   -1    0    0  501    0 -0.00000000000E+00 -0.00000000000E+00 -0.28141521224E+02  0.28141521224E+02  0.00000000000E+00 0. -1.
         25    2    1    2    0    0 -0.29383574707E+02 -0.45870666353E+02  0.60768840096E+03  0.62279824453E+03  0.12499979294E+03 0.  0.
          2    1    1    2  501    0 -0.36198078747E+01  0.30126443002E+02 -0.89579929186E+01  0.31637813043E+02  0.00000000000E+00 0. -1.
          1    1    1    2  502    0  0.33003382582E+02  0.15744223350E+02  0.11575916619E+04  0.11581690548E+04  0.00000000000E+00 0. -1.
         22    1    3    3    0    0 -0.35501285154E+01  0.19512713868E+02  0.12437583948E+02  0.23410316303E+02  0.00000000000E+00 0.  1.
         22    1    3    3    0    0 -0.25833446192E+02 -0.65383380220E+02  0.59525081701E+03  0.59938792822E+03  0.00000000000E+00 0.  1.
</event>
<event>
 7    1  0.5064652E-006  0.7882539E+02  0.7818608E-02  0.1497080E+00
          2   -1    0    0  502    0  0.00000000000E+00  0.00000000000E+00  0.10109848800E+04  0.10109848800E+04  0.00000000000E+00 0. -1.
          1   -1    0    0  501    0 -0.00000000000E+00 -0.00000000000E+00 -0.21290723823E+03  0.21290723823E+03  0.00000000000E+00 0. -1.
         25    2    1    2    0    0 -0.95722174428E+02 -0.27712576900E+02 -0.21501817925E+02  0.16129446467E+03  0.12499141796E+03 0.  0.
          2    1    1    2  501    0  0.19145600325E+02  0.10643943325E+02 -0.11887145114E+03  0.12087294750E+03  0.00000000000E+00 0. -1.
          1    1    1    2  502    0  0.76576574102E+02  0.17068633575E+02  0.93845091080E+03  0.94172470602E+03  0.00000000000E+00 0. -1.
         22    1    3    3    0    0 -0.11803446177E+03 -0.49982677567E+02 -0.20020087831E+02  0.12973513841E+03  0.00000000000E+00 0.  1.
         22    1    3    3    0    0  0.22312287340E+02  0.22270100667E+02 -0.14817300946E+01  0.31559326262E+02  0.00000000000E+00 0.  1.
</event>
<event>
 7    1  0.5064652E-006  0.1495452E+03  0.7818608E-02  0.1343878E+00
          2   -1    0    0  502    0  0.00000000000E+00  0.00000000000E+00  0.16969547991E+03  0.16969547991E+03  0.00000000000E+00 0. -1.
          1   -1    0    0  501    0 -0.00000000000E+00 -0.00000000000E+00 -0.27352344622E+04  0.27352344622E+04  0.00000000000E+00 0. -1.
         25    2    1    2    0    0  0.65295879889E+02  0.16982725819E+03 -0.23566730295E+03  0.32290634389E+03  0.12499831873E+03 0.  0.
          2    1    1    2  501    0 -0.88431499086E+01 -0.36557429223E+02 -0.24142148682E+04  0.24145078332E+04  0.00000000000E+00 0. -1.
          1    1    1    2  502    0 -0.56452729980E+02 -0.13326982897E+03  0.84343188810E+02  0.16751576503E+03  0.00000000000E+00 0. -1.
         22    1    3    3    0    0  0.93013948624E+02  0.16765891786E+03 -0.19353819806E+03  0.27243006715E+03  0.00000000000E+00 0. -1.
         22    1    3    3    0    0 -0.27718068735E+02  0.21683403299E+01 -0.42129104895E+02  0.50476276739E+02  0.00000000000E+00 0. -1.
</event>
<event>
 7    1  0.5064652E-006  0.9142861E+02  0.7818608E-02  0.1468451E+00
          2   -1    0    0  502    0  0.00000000000E+00  0.00000000000E+00  0.20304303991E+04  0.20304303991E+04  0.00000000000E+00 0. -1.
          1   -1    0    0  501    0 -0.00000000000E+00 -0.00000000000E+00 -0.13239673415E+03  0.13239673415E+03  0.00000000000E+00 0. -1.
         25    2    1    2    0    0  0.38140634115E+02  0.73618445603E+02  0.11076975258E+04  0.11178081262E+04  0.12500725881E+03 0.  0.
          2    1    1    2  501    0 -0.21034215938E+02 -0.89143398426E+02 -0.11070475339E+03  0.14368203140E+03  0.00000000000E+00 0. -1.
          1    1    1    2  502    0 -0.17106418177E+02  0.15524952822E+02  0.90104089247E+03  0.90133697561E+03  0.00000000000E+00 0. -1.
         22    1    3    3    0    0 -0.92949239271E+00  0.13311632387E+02  0.85469755238E+03  0.85480171359E+03  0.00000000000E+00 0.  1.
         22    1    3    3    0    0  0.39070126508E+02  0.60306813217E+02  0.25299997346E+03  0.26300641262E+03  0.00000000000E+00 0.  1.
</event>
<event>
 7    1  0.5064652E-006  0.3409415E+03  0.7818608E-02  0.1227142E+00
          2   -1    0    0  502    0  0.00000000000E+00  0.00000000000E+00  0.34210092264E+04  0.34210092264E+04  0.00000000000E+00 0. -1.
          1   -1    0    0  501    0 -0.00000000000E+00 -0.00000000000E+00 -0.59057595619E+03  0.59057595619E+03  0.00000000000E+00 0. -1.
         25    2    1    2    0    0 -0.33770457111E+03  0.74876462649E+02  0.53329391672E+03  0.64782546597E+03  0.12499828292E+03 0.  0.
          2    1    1    2  501    0 -0.19598622855E+01 -0.49691616954E+02 -0.52187759614E+03  0.52424166490E+03  0.00000000000E+00 0. -1.
          1    1    1    2  502    0  0.33966443340E+03 -0.25184845695E+02  0.28190169496E+04  0.28395180517E+04  0.00000000000E+00 0. -1.
         22    1    3    3    0    0 -0.67096380702E+02 -0.17269667666E+02  0.18309265557E+03  0.19576283163E+03  0.00000000000E+00 0. -1.
         22    1    3    3    0    0 -0.27060819041E+03  0.92146130315E+02  0.35020126116E+03  0.45206263434E+03  0.00000000000E+00 0. -1.
</event>
<event>
 7    1  0.5064652E-006  0.7406253E+02  0.7818608E-02  0.1470845E+00
          2   -1    0    0  502    0  0.00000000000E+00  0.00000000000E+00  0.34206566963E+03  0.34206566963E+03  0.00000000000E+00 0. -1.
          1   -1    0    0  501    0 -0.00000000000E+00 -0.00000000000E+00 -0.38892884907E+03  0.38892884907E+03  0.00000000000E+00 0. -1.
         25    2    1    2    0    0  0.87230497612E+02  0.26143946473E+02  0.24765888770E+03  0.29197839854E+03  0.12499517954E+03 0.  0.
          2    1    1    2  501    0 -0.25591947616E+02 -0.11440171665E+02 -0.35220917500E+03  0.35332298010E+03  0.00000000000E+00 0. -1.
          1    1    1    2  502    0 -0.61638549996E+02 -0.14703774808E+02  0.57687107859E+02  0.85693140054E+02  0.00000000000E+00 0. -1.
         22    1    3    3    0    0  0.86458926933E+02  0.96138090011E+01  0.65055791191E+02  0.10862701017E+03  0.00000000000E+00 0. -1.
         22    1    3    3    0    0  0.77157067856E+00  0.16530137472E+02  0.18260309651E+03  0.18335138838E+03  0.00000000000E+00 0. -1.
</event>
<event>
 7    1  0.5064652E-006  0.4938272E+02  0.7818608E-02  0.1490494E+00
          2   -1    0    0  502    0  0.00000000000E+00  0.00000000000E+00  0.54033950009E+03  0.54033950009E+03  0.00000000000E+00 0. -1.
          1   -1    0    0  501    0 -0.00000000000E+00 -0.00000000000E+00 -0.15299104657E+04  0.15299104657E+04  0.00000000000E+00 0. -1.
         25    2    1    2    0    0 -0.57712319316E+02  0.46340613068E+02 -0.78203338597E+03  0.79541138274E+03  0.12499954719E+03 0.  0.
          2    1    1    2  501    0  0.21355444687E+02 -0.42140609769E+02 -0.73980624860E+03  0.74131313996E+03  0.00000000000E+00 0. -1.
          1    1    1    2  502    0  0.36356874629E+02 -0.42000032989E+01  0.53226866901E+03  0.53352544304E+03  0.00000000000E+00 0. -1.
         22    1    3    3    0    0 -0.78593059398E+02  0.45385866763E+02 -0.31247622745E+03  0.32538921096E+03  0.00000000000E+00 0.  1.
         22    1    3    3    0    0  0.20880740082E+02  0.95474630442E+00 -0.46955715852E+03  0.47002217178E+03  0.00000000000E+00 0.  1.
</event>
<event>
 7    1  0.5064652E-006  0.8941983E+02  0.7818608E-02  0.1326683E+00
          2   -1    0    0  502    0  0.00000000000E+00  0.00000000000E+00  0.58696700376E+03  0.58696700376E+03  0.00000000000E+00 0. -1.
          1   -1    0    0  501    0 -0.00000000000E+00 -0.00000000000E+00 -0.70786054605E+03  0.70786054605E+03  0.00000000000E+00 0. -1.
         25    2    1    2    0    0 -0.97267729868E+02 -0.24442199380E+02 -0.27788193721E+03  0.32078334912E+03  0.12500061465E+03 0.  0.
          2    1    1    2  501    0  0.48366499875E+02  0.78756165165E+02 -0.40088658722E+03  0.41140236713E+03  0.00000000000E+00 0. -1.
          1    1    1    2  502    0  0.48901229993E+02 -0.54313965785E+02  0.55787498214E+03  0.56264183356E+03  0.00000000000E+00 0. -1.
         22    1    3    3    0    0  0.19891883947E+02  0.25763467893E+02 -0.49590183119E+02  0.59318037616E+02  0.00000000000E+00 0. -1.
         22    1    3    3    0    0 -0.11715961381E+03 -0.50205667272E+02 -0.22829175409E+03  0.26146531151E+03  0.00000000000E+00 0. -1.
</event>
<event>
 7    1  0.5064652E-006  0.1941070E+03  0.7818608E-02  0.1173371E+00
          2   -1    0    0  502    0  0.00000000000E+00  0.00000000000E+00  0.68706263291E+03  0.68706263291E+03  0.00000000000E+00 0. -1.
          1   -1    0    0  501    0 -0.00000000000E+00 -0.00000000000E+00 -0.18511881319E+04  0.18511881319E+04  0.00000000000E+00 0. -1.
         25    2    1    2    0    0 -0.15582476906E+03 -0.30346294654E+03  0.12675592663E+03  0.38478914045E+03  0.12499799637E+03 0.  0.
          2    1    1    2  501    0  0.11587358890E+03  0.15201256032E+03 -0.17024238023E+04  0.17131203430E+04  0.00000000000E+00 0. -1.
          1    1    1    2  502    0  0.39951180150E+02  0.15145038622E+03  0.41154237665E+03  0.44034128135E+03  0.00000000000E+00 0. -1.
         22    1    3    3    0    0  0.14113935710E+02 -0.44205980493E+01 -0.61916215403E+01  0.16033747087E+02  0.00000000000E+00 0.  1.
         22    1    3    3    0    0 -0.16993870477E+03 -0.29904234849E+03  0.13294754817E+03  0.36875539336E+03  0.00000000000E+00 0.  1.
</event>
<event>
 7    1  0.5064652E-006  0.1312814E+03  0.7818608E-02  0.1424631E+00
          2   -1    0    0  502    0  0.00000000000E+00  0.00000000000E+00  0.39862074056E+03  0.39862074056E+03  0.00000000000E+00 0. -1.
          1   -1    0    0  501    0 -0.00000000000E+00 -0.00000000000E+00 -0.26399221681E+03  0.26399221681E+03  0.00000000000E+00 0. -1.
         25    2    1    2    0    0 -0.10534763412E+03  0.38072627770E+02  0.89974437294E+02  0.19044012167E+03  0.12499756628E+03 0.  0.
          2    1    1    2  501    0  0.12691393413E+03 -0.43567966727E+02 -0.19212811782E+03  0.23434702485E+03  0.00000000000E+00 0. -1.
          1    1    1    2  502    0 -0.21566300012E+02  0.54953389571E+01  0.23678220427E+03  0.23782581085E+03  0.00000000000E+00 0. -1.
         22    1    3    3    0    0  0.68891810597E+01  0.22581397259E+02 -0.21181419197E+02  0.31718020699E+02  0.00000000000E+00 0.  1.
         22    1    3    3    0    0 -0.11223681518E+03  0.15491230511E+02  0.11115585649E+03  0.15872210097E+03  0.00000000000E+00 0.  1.
</event>
<event>
 7    1  0.5064652E-006  0.6736303E+02  0.7818608E-02  0.1381351E+00
          2   -1    0    0  502    0  0.00000000000E+00  0.00000000000E+00  0.11197422453E+04  0.11197422453E+04  0.00000000000E+00 0. -1.
          1   -1    0    0  501    0 -0.00000000000E+00 -0.00000000000E+00 -0.23298087325E+02  0.23298087325E+02  0.00000000000E+00 0. -1.
         25    2    1    2    0    0 -0.24926748020E+02  0.60244690863E+02  0.76721922401E+03  0.78006523046E+03  0.12500264214E+03 0.  0.
          2    1    1    2  501    0  0.68372891489E+02 -0.17406056360E+02  0.81265404446E+02  0.10761918532E+03  0.00000000000E+00 0. -1.
          1    1    1    2  502    0 -0.43446143468E+02 -0.42838634503E+02  0.24795952950E+03  0.25535591683E+03  0.00000000000E+00 0. -1.
         22    1    3    3    0    0 -0.45320607923E+02  0.62744481442E+02  0.23437007582E+03  0.24682009621E+03  0.00000000000E+00 0.  1.
         22    1    3    3    0    0  0.20393859903E+02 -0.24997905797E+01  0.53284914819E+03  0.53324513425E+03  0.00000000000E+00 0.  1.
</event>
<event>
 7    1  0.5064652E-006  0.2712197E+03  0.7818608E-02  0.1243376E+00
          2   -1    0    0  502    0  0.00000000000E+00  0.00000000000E+00  0.10755805024E+04  0.10755805024E+04  0.00000000000E+00 0. -1.
          1   -1    0    0  501    0 -0.00000000000E+00 -0.00000000000E+00 -0.23901747833E+04  0.23901747833E+04  0.00000000000E+00 0. -1.
         25    2    1    2    0    0  0.28678481242E+03  0.76903107436E+02 -0.40963304203E+02  0.32475099011E+03  0.12500238685E+03 0.  0.
          2    1    1    2  501    0 -0.41413125883E+02  0.32985390055E+02 -0.21876365861E+04  0.21882771570E+04  0.00000000000E+00 0. -1.
          1    1    1    2  502    0 -0.24537168654E+03 -0.10988849749E+03  0.91400560947E+03  0.95272713858E+03  0.00000000000E+00 0. -1.
         22    1    3    3    0    0  0.10158603541E+03 -0.66379870447E+01  0.35286471050E+02  0.10774470057E+03  0.00000000000E+00 0. -1.
         22    1    3    3    0    0  0.18519877702E+03  0.83541094481E+02 -0.76249775253E+02  0.21700628955E+03  0.00000000000E+00 0. -1.
</event>
<event>
 7    1  0.5064652E-006  0.3067933E+03  0.7818608E-02  0.1283261E+00
          2   -1    0    0  502    0  0.00000000000E+00  0.00000000000E+00  0.15872139311E+04  0.15872139311E+04  0.00000000000E+00 0. -1.
          1   -1    0    0  501    0 -0.00000000000E+00 -0.00000000000E+00 -0.10254531485E+04  0.10254531485E+04  0.00000000000E+00 0. -1.
         25    2    1    2    0    0 -0.29339434552E+03 -0.28931583758E+02  0.92523090899E+03  0.97907839234E+03  0.12499993948E+03 0.  0.
          2    1    1    2  501    0 -0.29478283332E+02 -0.11634248168E+02 -0.95656376566E+03  0.95708858664E+03  0.00000000000E+00 0. -1.
          1    1    1    2  502    0  0.32287262885E+03  0.40565831926E+02  0.59309363928E+03  0.67650010062E+03  0.00000000000E+00 0. -1.
         22    1    3    3    0    0 -0.19545770897E+02 -0.25789382672E+02  0.34967410576E+02  0.47642934638E+02  0.00000000000E+00 0.  1.
         22    1    3    3    0    0 -0.27384857462E+03 -0.31422010864E+01  0.89026349841E+03  0.93143545770E+03  0.00000000000E+00 0.  1.
</event>
<event>
 7    1  0.5064652E-006  0.1302638E+03  0.7818608E-02  0.1364158E+00
          2   -1    0    0  502    0  0.00000000000E+00  0.00000000000E+00  0.37953886678E+04  0.37953886678E+04  0.00000000000E+00 0. -1.
          1   -1    0    0  501    0 -0.00000000000E+00 -0.00000000000E+00 -0.65113247055E+02  0.65113247055E+02  0.00000000000E+00 0. -1.
         25    2    1    2    0    0 -0.14596986938E+03 -0.26161398247E+02  0.15659570507E+04  0.15779220946E+04  0.12500012210E+03 0.  0.
          2    1    1    2  501    0  0.12945889585E+03 -0.62298482307E+01  0.12230078117E+02  0.13018445197E+03  0.00000000000E+00 0. -1.
          1    1    1    2  502    0  0.16510973537E+02  0.32391246478E+02  0.21520882920E+04  0.21523953683E+04  0.00000000000E+00 0. -1.
         22    1    3    3    0    0 -0.35340962874E+01  0.27587142213E+02  0.91690199109E+02  0.95815619106E+02  0.00000000000E+00 0.  1.
         22    1    3    3    0    0 -0.14243577310E+03 -0.53748540460E+02  0.14742668516E+04  0.14821064755E+04  0.00000000000E+00 0.  1.
</event>
<event>
 7    1  0.5064652E-006  0.7611354E+02  0.7818608E-02  0.1412164E+00
          2   -1    0    0  502    0  0.00000000000E+00  0.00000000000E+00  0.81643073287E+03  0.81643073287E+03  0.00000000000E+00 0. -1.
          1   -1    0    0  501    0 -0.00000000000E+00 -0.00000000000E+00 -0.48466475783E+02  0.48466475783E+02  0.00000000000E+00 0. -1.
         25    2    1    2    0    0  0.32788038731E+02 -0.25226204202E+02  0.36059164882E+03  0.38387830664E+03  0.12499920100E+03 0.  0.
          2    1    1    2  501    0 -0.74791859956E+02  0.29859583646E+02  0.97078472632E+01  0.81115099393E+02  0.00000000000E+00 0. -1.
          1    1    1    2  502    0  0.42003821224E+02 -0.46333794437E+01  0.39766476100E+03  0.39990380261E+03  0.00000000000E+00 0. -1.
         22    1    3    3    0    0  0.40423008385E+01  0.37360736282E+02  0.25537210840E+03  0.25812221632E+03  0.00000000000E+00 0.  1.
         22    1    3    3    0    0  0.28745737893E+02 -0.62586940484E+02  0.10521954043E+03  0.12575609032E+03  0.00000000000E+00 0.  1.
</event>
<event>
 7    1  0.5064652E-006  0.1153328E+03  0.7818608E-02  0.1279559E+00
          2   -1    0    0  502    0  0.00000000000E+00  0.00000000000E+00  0.30739576546E+04  0.30739576546E+04  0.00000000000E+00 0. -1.
          1   -1    0    0  501    0 -0.00000000000E+00 -0.00000000000E+00 -0.24330171880E+03  0.24330171880E+03  0.00000000000E+00 0. -1.
         25    2    1    2    0    0  0.18337254188E+03 -0.10095864195E+02  0.10180028437E+04  0.10419602908E+04  0.12499616920E+03 0.  0.
          2    1    1    2  501    0 -0.82500384511E+02 -0.28595332953E+02 -0.22159860135E+03  0.23818049171E+03  0.00000000000E+00 0. -1.
          1    1    1    2  502    0 -0.10087215736E+03  0.38691197147E+02  0.20342516935E+04  0.20371185908E+04  0.00000000000E+00 0. -1.
         22    1    3    3    0    0  0.10164178663E+03  0.42448391484E+02  0.34987690779E+03  0.36680617406E+03  0.00000000000E+00 0. -1.
         22    1    3    3    0    0  0.81730755248E+02 -0.52544255679E+02  0.66812593588E+03  0.67515411674E+03  0.00000000000E+00 0. -1.
</event>
<event>
 7    1  0.5064652E-006  0.1162824E+03  0.7818608E-02  0.1309758E+00
          2   -1    0    0  502    0  0.00000000000E+00  0.00000000000E+00  0.76874227007E+03  0.76874227007E+03  0.00000000000E+00 0. -1.
          1   -1    0    0  501    0 -0.00000000000E+00 -0.00000000000E+00 -0.80532269518E+03  0.80532269518E+03  0.00000000000E+00 0. -1.
         25    2    1    2    0    0  0.16324951553E+02  0.55952362441E+02  0.47702887087E+02  0.14593342488E+03  0.12499531253E+03 0.  0.
          2    1    1    2  501    0  0.31241341730E+02  0.57458703732E+02 -0.74914335142E+03  0.75199287566E+03  0.00000000000E+00 0. -1.
          1    1    1    2  502    0 -0.47566293283E+02 -0.11341106617E+03  0.66486003922E+03  0.67613866472E+03  0.00000000000E+00 0. -1.
         22    1    3    3    0    0  0.27669019378E+02  0.72929089541E+02 -0.15489276689E+02  0.79524489480E+02  0.00000000000E+00 0. -1.
         22    1    3    3    0    0 -0.11344067825E+02 -0.16976727101E+02  0.63192163777E+02  0.66408935397E+02  0.00000000000E+00 0. -1.
</event>
<event>
 7    1  0.5064652E-006  0.3050855E+02  0.7818608E-02  0.1648781E+00
          2   -1    0    0  502    0  0.00000000000E+00  0.00000000000E+00  0.21252381882E+04  0.21252381882E+04  0.00000000000E+00 0. -1.
          1   -1    0    0  501    0 -0.00000000000E+00 -0.00000000000E+00 -0.76786274445E+02  0.76786274445E+02  0.00000000000E+00 0. -1.
         25    2    1    2    0    0  0.39499081215E+02 -0.94582302608E+01  0.16772416272E+03  0.21308623127E+03  0.12499884664E+03 0.  0.
          2    1    1    2  501    0 -0.18158322436E+02 -0.12314951573E+02 -0.51755758067E+02  0.56214243738E+02  0.00000000000E+00 0. -1.
          1    1    1    2  502    0 -0.21340758779E+02  0.21773181834E+02  0.19324835091E+04  0.19327239877E+04  0.00000000000E+00 0. -1.
         22    1    3    3    0    0 -0.54449026830E+01 -0.11327846327E+02  0.16763277477E+03  0.16810328445E+03  0.00000000000E+00 0. -1.
         22    1    3    3    0    0  0.44943983898E+02  0.18696160660E+01  0.91387954181E-01  0.44982946820E+02  0.00000000000E+00 0. -1.
</event>
<event>
 7    1  0.5064652E-006  0.1824656E+03  0.7818608E-02  0.1386687E+00
          2   -1    0    0  502    0  0.00000000000E+00  0.00000000000E+00  0.65123134961E+03  0.65123134961E+03  0.00000000000E+00 0. -1.
          1   -1    0    0  501    0 -0.00000000000E+00 -0.00000000000E+00 -0.28472339576E+03  0.28472339576E+03  0.00000000000E+00 0. -1.
         25    2    1    2    0    0  0.12567220926E+03  0.12720364992E+03  0.93436973405E+02  0.23734239819E+03  0.12500669281E+03 0.  0.
          2    1    1    2  501    0 -0.11300963372E+03 -0.14466781392E+03 -0.17286481224E+03  0.25215510506E+03  0.00000000000E+00 0. -1.
          1    1    1    2  502    0 -0.12662575544E+02  0.17464164003E+02  0.44593579268E+03  0.44645724211E+03  0.00000000000E+00 0. -1.
         22    1    3    3    0    0  0.91434917210E+02  0.27765564401E+02  0.91286471652E+02  0.13215328433E+03  0.00000000000E+00 0. -1.
         22    1    3    3    0    0  0.34237292052E+02  0.99438085518E+02  0.21505017522E+01  0.10518911387E+03  0.00000000000E+00 0. -1.
</event>
<event>
 7    1  0.5064652E-006  0.6064459E+02  0.7818608E-02  0.1530061E+00
          2   -1    0    0  502    0  0.00000000000E+00  0.00000000000E+00  0.28986317184E+04  0.28986317184E+04  0.00000000000E+00 0. -1.
          1   -1    0    0  501    0 -0.00000000000E+00 -0.00000000000E+00 -0.19914957379E+02  0.19914957379E+02  0.00000000000E+00 0. -1.
         25    2    1    2    0    0  0.73474248318E+02  0.36557912645E+02  0.69238797719E+03  0.70835035557E+03  0.12499667647E+03 0.  0.
          2    1    1    2  501    0 -0.18850756295E+02 -0.12812912105E+02 -0.26195625687E+00  0.22794524575E+02  0.00000000000E+00 0. -1.
          1    1    1    2  502    0 -0.54623492023E+02 -0.23745000540E+02  0.21865907401E+04  0.21874017956E+04  0.00000000000E+00 0. -1.
         22    1    3    3    0    0 -0.12787154622E+02  0.43509040666E+02  0.10165061696E+03  0.11130766313E+03  0.00000000000E+00 0. -1.
         22    1    3    3    0    0  0.86261402940E+02 -0.69511280214E+01  0.59073736023E+03  0.59704269244E+03  0.00000000000E+00 0. -1.
</event>
<event>
 7    1  0.5064652E-006  0.1052775E+03  0.7818608E-02  0.1347827E+00
          2   -1    0    0  502    0  0.00000000000E+00  0.00000000000E+00  0.30824569214E+03  0.30824569214E+03  0.00000000000E+00 0. -1.
          1   -1    0    0  501    0 -0.00000000000E+00 -0.00000000000E+00 -0.45729229758E+03  0.45729229758E+03  0.00000000000E+00 0. -1.
         25    2    1    2    0    0 -0.84574908696E+02 -0.12705847439E+03 -0.45052174576E+02  0.20237861242E+03  0.12502253092E+03 0.  0.
          2    1    1    2  501    0  0.28870668365E+02  0.42823055063E+02 -0.32030184436E+03  0.32443890185E+03  0.00000000000E+00 0. -1.
          1    1    1    2  502    0  0.55704240330E+02  0.84235419325E+02  0.21630741349E+03  0.23872047544E+03  0.00000000000E+00 0. -1.
         22    1    3    3    0    0  0.26325281947E+02  0.28455994043E+01 -0.51201409978E+01  0.26969125855E+02  0.00000000000E+00 0.  1.
         22    1    3    3    0    0 -0.11090019064E+03 -0.12990407379E+03 -0.39932033579E+02  0.17540948657E+03  0.00000000000E+00 0.  1.
</event>
<event>
 7    1  0.5064652E-006  0.1360252E+03  0.7818608E-02  0.1302343E+00
          2   -1    0    0  502    0  0.00000000000E+00  0.00000000000E+00  0.32952153980E+03  0.32952153980E+03  0.00000000000E+00 0. -1.
          1   -1    0    0  501    0 -0.00000000000E+00 -0.00000000000E+00 -0.42895144528E+03  0.42895144528E+03  0.00000000000E+00 0. -1.
         25    2    1    2    0    0 -0.96622280522E+02 -0.59807806938E+02 -0.27327445955E+02  0.17112977379E+03  0.12500308521E+03 0.  0.
          2    1    1    2  501    0  0.16346715271E+02 -0.57550102388E+02 -0.30699383185E+03  0.31276899172E+03  0.00000000000E+00 0. -1.
          1    1    1    2  502    0  0.80275565251E+02  0.11735790933E+03  0.23489137233E+03  0.27457421957E+03  0.00000000000E+00 0. -1.
         22    1    3    3    0    0  0.17470014087E+02 -0.37327342205E+02 -0.35723906973E+02  0.54541079910E+02  0.00000000000E+00 0.  1.
         22    1    3    3    0    0 -0.11409229461E+03 -0.22480464733E+02  0.83964610183E+01  0.11658869388E+03  0.00000000000E+00 0.  1.
</event>
<event>
 7    1  0.5064652E-006  0.4653603E+02  0.7818608E-02  0.1499966E+00
          2   -1    0    0  502    0  0.00000000000E+00  0.00000000000E+00  0.35101892002E+03  0.35101892002E+03  0.00000000000E+00 0. -1.
          1   -1    0    0  501    0 -0.00000000000E+00 -0.00000000000E+00 -0.52621716956E+03  0.52621716956E+03  0.00000000000E+00 0. -1.
         25    2    1    2    0    0  0.48563843981E+02 -0.53593315337E+02 -0.10184580762E+03  0.17671599639E+03  0.12500113782E+03 0.  0.
          2    1    1    2  501    0 -0.35174068392E+02  0.92685814282E+01 -0.38436365386E+03  0.38608100199E+03  0.00000000000E+00 0. -1.
          1    1    1    2  502    0 -0.13389775589E+02  0.44324733909E+02  0.31101121194E+03  0.31443909121E+03  0.00000000000E+00 0. -1.
         22    1    3    3    0    0 -0.34100741568E+02 -0.46009051830E+02 -0.62763024923E+02  0.84964055478E+02  0.00000000000E+00 0.  1.
         22    1    3    3    0    0  0.82664585549E+02 -0.75842635073E+01 -0.39082782700E+02  0.91751940908E+02  0.00000000000E+00 0.  1.
</event>
<event>
 7    1  0.5064652E-006  0.8697634E+02  0.7818608E-02  0.1333646E+00
          2   -1    0    0  502    0  0.00000000000E+00  0.00000000000E+00  0.21067708237E+03  0.21067708237E+03  0.00000000000E+00 0. -1.
          1   -1    0    0  501    0 -0.00000000000E+00 -0.00000000000E+00 -0.76855808510E+03  0.76855808510E+03  0.00000000000E+00 0. -1.
         25    2    1    2    0    0 -0.94781402547E+02 -0.51074823843E+02 -0.51494930302E+03  0.54073188092E+03  0.12500412177E+03 0.  0.
          2    1    1    2  501    0  0.97911284211E+01  0.69992774343E+02 -0.22545659765E+03  0.23627427300E+03  0.00000000000E+00 0. -1.
          1    1    1    2  502    0  0.84990274125E+02 -0.18917950500E+02  0.18252489795E+03  0.20222901354E+03  0.00000000000E+00 0. -1.
         22    1    3    3    0    0 -0.88209686927E+02 -0.21176539353E+02 -0.49707189519E+03  0.50528196452E+03  0.00000000000E+00 0. -1.
         22    1    3    3    0    0 -0.65717156191E+01 -0.29898284490E+02 -0.17877407835E+02  0.35449916396E+02  0.00000000000E+00 0. -1.
</event>
<event>
 7    1  0.5064652E-006  0.9181371E+02  0.7818608E-02  0.1473964E+00
          2   -1    0    0  502    0  0.00000000000E+00  0.00000000000E+00  0.62500315844E+03  0.62500315844E+03  0.00000000000E+00 0. -1.
          1   -1    0    0  501    0 -0.00000000000E+00 -0.00000000000E+00 -0.14958306947E+04  0.14958306947E+04  0.00000000000E+00 0. -1.
         25    2    1    2    0    0 -0.73218225018E+02  0.76198158263E+02 -0.44511633811E+03  0.47425848982E+03  0.12500197166E+03 0.  0.
          2    1    1    2  501    0 -0.85001183405E+00 -0.22098509943E+02 -0.10325787576E+04  0.10328155485E+04  0.00000000000E+00 0. -1.
          1    1    1    2  502    0  0.74068236852E+02 -0.54099648320E+02  0.60686755939E+03  0.61375981483E+03  0.00000000000E+00 0. -1.
         22    1    3    3    0    0  0.19989761534E+02  0.60604494845E+02 -0.24134572022E+03  0.24964024521E+03  0.00000000000E+00 0. -1.
         22    1    3    3    0    0 -0.93207986552E+02  0.15593663417E+02 -0.20377061789E+03  0.22461824461E+03  0.00000000000E+00 0. -1.
</event>
<event>
 7    1  0.5064652E-006  0.2602962E+02  0.7818608E-02  0.1684096E+00
          2   -1    0    0  502    0  0.00000000000E+00  0.00000000000E+00  0.53922732768E+03  0.53922732768E+03  0.00000000000E+00 0. -1.
          1   -1    0    0  501    0 -0.00000000000E+00 -0.00000000000E+00 -0.31201322054E+02  0.31201322054E+02  0.00000000000E+00 0. -1.
         25    2    1    2    0    0 -0.31953049350E+02 -0.27314336946E+02  0.22803070757E+03  0.26342027242E+03  0.12500066384E+03 0.  0.
          2    1    1    2  501    0  0.11304908010E+02  0.22727971957E+02 -0.82010778309E+00  0.25397524115E+02  0.00000000000E+00 0. -1.
          1    1    1    2  502    0  0.20648141340E+02  0.45863649892E+01  0.28081540584E+03  0.28161085320E+03  0.00000000000E+00 0. -1.
         22    1    3    3    0    0 -0.11168178093E+01 -0.74729137658E+02  0.14190467681E+03  0.16038275655E+03  0.00000000000E+00 0.  1.
         22    1    3    3    0    0 -0.30836231541E+02  0.47414800712E+02  0.86126030763E+02  0.10303751587E+03  0.00000000000E+00 0.  1.
</event>
<event>
 7    1  0.5064652E-006  0.6704505E+02  0.7818608E-02  0.1532766E+00
          2   -1    0    0  502    0  0.00000000000E+00  0.00000000000E+00  0.56251859971E+02  0.56251859971E+02  0.00000000000E+00 0. -1.
          1   -1    0    0  501    0 -0.00000000000E+00 -0.00000000000E+00 -0.25419012357E+03  0.25419012357E+03  0.00000000000E+00 0. -1.
         25    2    1    2    0    0 -0.17634533762E+02 -0.60277698535E+02 -0.13738606415E+03  0.19607260735E+03  0.12500063603E+03 0.  0.
          2    1    1    2  501    0  0.37857225275E+02  0.59169233578E+02 -0.62499191673E+02  0.94022958194E+02  0.00000000000E+00 0. -1.
          1    1    1    2  502    0 -0.20222691514E+02  0.11084649569E+01  0.19469922293E+01  0.20346417998E+02  0.00000000000E+00 0. -1.
         22    1    3    3    0    0 -0.44340340637E+02 -0.74044323362E+02 -0.14150359450E+03  0.16574647775E+03  0.00000000000E+00 0.  1.
         22    1    3    3    0    0  0.26705806875E+02  0.13766624828E+02  0.41175303502E+01  0.30326129594E+02  0.00000000000E+00 0.  1.
</event>
<event>
 7    1  0.5064652E-006  0.2068680E+03  0.7818608E-02  0.1188517E+00
          2   -1    0    0  502    0  0.00000000000E+00  0.00000000000E+00  0.88133136421E+03  0.88133136421E+03  0.00000000000E+00 0. -1.
          1   -1    0    0  501    0 -0.00000000000E+00 -0.00000000000E+00 -0.11989941309E+04  0.11989941309E+04  0.00000000000E+00 0. -1.
         25    2    1    2    0    0 -0.21880396294E+03 -0.12561262275E+03  0.75931292699E+02  0.29162258229E+03  0.12499785637E+03 0.  0.
          2    1    1    2  501    0  0.10586139841E+03  0.17678966193E+03 -0.10757811318E+04  0.10953384243E+04  0.00000000000E+00 0. -1.
          1    1    1    2  502    0  0.11294256453E+03 -0.51177039175E+02  0.68218707239E+03  0.69336448853E+03  0.00000000000E+00 0. -1.
         22    1    3    3    0    0 -0.11900162281E+03 -0.56544050991E+02 -0.24593117101E+02  0.13402774841E+03  0.00000000000E+00 0. -1.
         22    1    3    3    0    0 -0.99802340128E+02 -0.69068571760E+02  0.10052440980E+03  0.15759483388E+03  0.00000000000E+00 0. -1.
</event>
<event>
 7    1  0.5064652E-006  0.4670598E+02  0.7818608E-02  0.1504820E+00
          2   -1    0    0  502    0  0.00000000000E+00  0.00000000000E+00  0.82480290205E+02  0.82480290205E+02  0.00000000000E+00 0. -1.
          1   -1    0    0  501    0 -0.00000000000E+00 -0.00000000000E+00 -0.23534076042E+03  0.23534076042E+03  0.00000000000E+00 0. -1.
         25    2    1    2    0    0  0.58056744913E+02  0.40130678960E+02 -0.11022124252E+03  0.18098071645E+03  0.12499696157E+03 0.  0.
          2    1    1    2  501    0 -0.35036934898E+02 -0.11929133981E+01 -0.73942145885E+02  0.81831844580E+02  0.00000000000E+00 0. -1.
          1    1    1    2  502    0 -0.23019810015E+02 -0.38937765562E+02  0.31302918189E+02  0.55008489593E+02  0.00000000000E+00 0. -1.
         22    1    3    3    0    0 -0.37259583185E+02  0.23948643829E+02 -0.19478564598E+02  0.48386243491E+02  0.00000000000E+00 0.  1.
         22    1    3    3    0    0  0.95316328098E+02  0.16182035132E+02 -0.90742677918E+02  0.13259447296E+03  0.00000000000E+00 0.  1.
</event>
<event>
 7    1  0.5064652E-006  0.7468083E+02  0.7818608E-02  0.1506629E+00
          2   -1    0    0  502    0  0.00000000000E+00  0.00000000000E+00  0.22827832828E+04  0.22827832828E+04  0.00000000000E+00 0. -1.
          1   -1    0    0  501    0 -0.00000000000E+00 -0.00000000000E+00 -0.19167850165E+02  0.19167850165E+02  0.00000000000E+00 0. -1.
         25    2    1    2    0    0 -0.68617134205E+02  0.31321098636E+02  0.42717061148E+03  0.45142970001E+03  0.12499888167E+03 0.  0.
          2    1    1    2  501    0 -0.54807587065E+01 -0.20951337449E+02  0.12424622649E+02  0.24967348775E+02  0.00000000000E+00 0. -1.
          1    1    1    2  502    0  0.74097892912E+02 -0.10369761187E+02  0.18240201986E+04  0.18255540842E+04  0.00000000000E+00 0. -1.
         22    1    3    3    0    0 -0.21809653795E+02  0.51567617870E+02  0.65448006781E+02  0.86129680152E+02  0.00000000000E+00 0.  1.
         22    1    3    3    0    0 -0.46807480410E+02 -0.20246519234E+02  0.36172260470E+03  0.36530001986E+03  0.00000000000E+00 0.  1.
</event>
<event>
 7    1  0.5064652E-006  0.8521747E+02  0.7818608E-02  0.1400032E+00
          2   -1    0    0  502    0  0.00000000000E+00  0.00000000000E+00  0.74636861775E+03  0.74636861775E+03  0.00000000000E+00 0. -1.
          1   -1    0    0  501    0 -0.00000000000E+00 -0.00000000000E+00 -0.56718074474E+03  0.56718074474E+03  0.00000000000E+00 0. -1.
         25    2    1    2    0    0  0.12321716941E+03  0.24894835268E+02 -0.46755708048E+02  0.18333876667E+03  0.12499913387E+03 0.  0.
          2    1    1    2  501    0 -0.40152053700E+02 -0.10546339774E+02 -0.44855150840E+03  0.45046849878E+03  0.00000000000E+00 0. -1.
          1    1    1    2  502    0 -0.83065115713E+02 -0.14348495494E+02  0.67449508946E+03  0.67974209704E+03  0.00000000000E+00 0. -1.
         22    1    3    3    0    0  0.23701348023E+02  0.64732076761E+01  0.42044932814E+02  0.48697358152E+02  0.00000000000E+00 0. -1.
         22    1    3    3    0    0  0.99515821390E+02  0.18421627592E+02 -0.88800640862E+02  0.13464140852E+03  0.00000000000E+00 0. -1.
</event>
<event>
 7    1  0.6603677E-006  0.9563862E+02  0.7818608E-02  0.1294428E+00
          2   -1    0    0  502    0  0.00000000000E+00  0.00000000000E+00  0.25628579393E+04  0.25628579393E+04  0.00000000000E+00 0. -1.
          1   -1    0    0  501    0 -0.00000000000E+00 -0.00000000000E+00 -0.74348615839E+03  0.74348615839E+03  0.00000000000E+00 0. -1.
         25    2    1    2    0    0 -0.11993939516E+03 -0.81567496952E+02 -0.23711138632E+03  0.30477290952E+03  0.12500400707E+03 0.  0.
          2    1    1    2  501    0  0.92260042981E+02 -0.56953104212E+01 -0.46718569567E+03  0.47624240291E+03  0.00000000000E+00 0. -1.
          1    1    1    2  502    0  0.27679352179E+02  0.87262807373E+02  0.25236688629E+04  0.25253287853E+04  0.00000000000E+00 0. -1.
         22    1    3    3    0    0 -0.73405584063E+02 -0.39234106885E+02 -0.22606646311E+03  0.24090193162E+03  0.00000000000E+00 0.  1.
         22    1    3    3    0    0 -0.46533811097E+02 -0.42333390067E+02 -0.11044923217E+02  0.63870977906E+02  0.00000000000E+00 0.  1.
</event>
<event>
 7    1  0.5064652E-006  0.7909718E+02  0.7818608E-02  0.1387825E+00
          2   -1    0    0  502    0  0.00000000000E+00  0.00000000000E+00  0.58625411450E+03  0.58625411450E+03  0.00000000000E+00 0. -1.
          1   -1    0    0  501    0 -0.00000000000E+00 -0.00000000000E+00 -0.11743830618E+03  0.11743830618E+03  0.00000000000E+00 0. -1.
         25    2    1    2    0    0 -0.21634069010E+02 -0.84375232566E+02  0.87129116204E+02  0.17550883625E+03  0.12499862359E+03 0.  0.
          2    1    1    2  501    0 -0.26823234825E+02  0.75256303958E+02 -0.49632451575E+02  0.94055183064E+02  0.00000000000E+00 0. -1.
          1    1    1    2  502    0  0.48457303835E+02  0.91189286075E+01  0.43131914369E+03  0.43412840136E+03  0.00000000000E+00 0. -1.
         22    1    3    3    0    0  0.38982919048E+01 -0.70495865925E+02 -0.12523147512E+02  0.71705599613E+02  0.00000000000E+00 0. -1.
         22    1    3    3    0    0 -0.25532360915E+02 -0.13879366641E+02  0.99652263717E+02  0.10380323664E+03  0.00000000000E+00 0. -1.
</event>
<event>
 7    1  0.5064652E-006  0.1094392E+03  0.7818608E-02  0.1267373E+00
          2   -1    0    0  502    0  0.00000000000E+00  0.00000000000E+00  0.91766579335E+03  0.91766579335E+03  0.00000000000E+00 0. -1.
          1   -1    0    0  501    0 -0.00000000000E+00 -0.00000000000E+00 -0.53623030483E+02  0.53623030483E+02  0.00000000000E+00 0. -1.
         25    2    1    2    0    0  0.53034738165E+02  0.39804458897E+02  0.24746202079E+03  0.28505959687E+03  0.12499777452E+03 0.  0.
          2    1    1    2  501    0 -0.15526426904E+03 -0.78869271984E+02  0.48363417583E+03  0.51403246136E+03  0.00000000000E+00 0. -1.
          1    1    1    2  502    0  0.10222953088E+03  0.39064813087E+02  0.13294656625E+03  0.17219676560E+03  0.00000000000E+00 0. -1.
         22    1    3    3    0    0  0.87459221432E+02  0.37858761687E+01  0.18870803713E+03  0.20802444940E+03  0.00000000000E+00 0.  1.
         22    1    3    3    0    0 -0.34424483267E+02  0.36018582729E+02  0.58753983659E+02  0.77035147470E+02  0.00000000000E+00 0.  1.
</event>
<event>
 7    1  0.5064652E-006  0.4262122E+02  0.7818608E-02  0.1600800E+00
          2   -1    0    0  502    0  0.00000000000E+00  0.00000000000E+00  0.52681125372E+03  0.52681125372E+03  0.00000000000E+00 0. -1.
          1   -1    0    0  501    0 -0.00000000000E+00 -0.00000000000E+00 -0.12699145527E+04  0.12699145527E+04  0.00000000000E+00 0. -1.
         25    2    1    2    0    0 -0.34253268948E+02  0.50349144629E+02  0.21836798308E+02  0.14075139723E+03  0.12500314901E+03 0.  0.
          2    1    1    2  501    0  0.16797368519E+02 -0.39085704830E+02 -0.12098410059E+04  0.12105887425E+04  0.00000000000E+00 0. -1.
          1    1    1    2  502    0  0.17455900430E+02 -0.11263439799E+02  0.44490090865E+03  0.44538566665E+03  0.00000000000E+00 0. -1.
         22    1    3    3    0    0 -0.47886920396E+02 -0.11874534340E+02  0.50765448831E+02  0.70790483159E+02  0.00000000000E+00 0.  1.
         22    1    3    3    0    0  0.13633651448E+02  0.62223678969E+02 -0.28928650523E+02  0.69960914069E+02  0.00000000000E+00 0.  1.
</event>
<event>
 7    1  0.5064652E-006  0.8688516E+02  0.7818608E-02  0.1352766E+00
          2   -1    0    0  502    0  0.00000000000E+00  0.00000000000E+00  0.40210259510E+03  0.40210259510E+03  0.00000000000E+00 0. -1.
          1   -1    0    0  501    0 -0.00000000000E+00 -0.00000000000E+00 -0.92134556460E+03  0.92134556460E+03  0.00000000000E+00 0. -1.
         25    2    1    2    0    0 -0.43652662488E+02 -0.74282370167E+02 -0.14505734008E+03  0.20997658797E+03  0.12500044049E+03 0.  0.
          2    1    1    2  501    0  0.83462447172E+02  0.29394779308E+02 -0.73873612614E+03  0.74401686621E+03  0.00000000000E+00 0. -1.
          1    1    1    2  502    0 -0.39809784685E+02  0.44887590860E+02  0.36455049672E+03  0.36945470552E+03  0.00000000000E+00 0. -1.
         22    1    3    3    0    0  0.43297632376E+02 -0.13443925173E+02 -0.36940541696E+02  0.58481003020E+02  0.00000000000E+00 0. -1.
         22    1    3    3    0    0 -0.86950294864E+02 -0.60838444994E+02 -0.10811679838E+03  0.15149558495E+03  0.00000000000E+00 0. -1.
</event>
<event>
 7    1  0.5064652E-006  0.8117404E+02  0.7818608E-02  0.1352744E+00
          2   -1    0    0  502    0  0.00000000000E+00  0.00000000000E+00  0.79483028964E+03  0.79483028964E+03  0.00000000000E+00 0. -1.
          1   -1    0    0  501    0 -0.00000000000E+00 -0.00000000000E+00 -0.55848132275E+03  0.55848132275E+03  0.00000000000E+00 0. -1.
         25    2    1    2    0    0  0.51875459412E+02  0.36970494563E+02  0.15219479768E+03  0.20698400425E+03  0.12498496236E+03 0.  0.
          2    1    1    2  501    0 -0.57623074776E+01 -0.81683129433E+02 -0.52623514265E+03  0.53256808314E+03  0.00000000000E+00 0. -1.
          1    1    1    2  502    0 -0.46113151934E+02  0.44712634870E+02  0.61038931186E+03  0.61375952500E+03  0.00000000000E+00 0. -1.
         22    1    3    3    0    0  0.70405615614E+02 -0.14151108980E+02  0.39748281175E+02  0.82080024682E+02  0.00000000000E+00 0.  1.
         22    1    3    3    0    0 -0.18530156203E+02  0.51121603543E+02  0.11244651651E+03  0.12490397957E+03  0.00000000000E+00 0.  1.
</event>
<event>
 7    1  0.5064652E-006  0.4144964E+02  0.7818608E-02  0.1529675E+00
          2   -1    0    0  502    0  0.00000000000E+00  0.00000000000E+00  0.79809586677E+02  0.79809586677E+02  0.00000000000E+00 0. -1.
          1   -1    0    0  501    0 -0.00000000000E+00 -0.00000000000E+00 -0.22748958382E+04  0.22748958382E+04  0.00000000000E+00 0. -1.
         25    2    1    2    0    0 -0.44527916858E+01 -0.83683057354E+01 -0.52106550644E+02  0.13575852358E+03  0.12500171282E+03 0.  0.
          2    1    1    2  501    0  0.34064653520E+02  0.23889726791E+02 -0.21733684519E+04  0.21737666727E+04  0.00000000000E+00 0. -1.
          1    1    1    2  502    0 -0.29611861834E+02 -0.15521421055E+02  0.30388750982E+02  0.45180228631E+02  0.00000000000E+00 0. -1.
         22    1    3    3    0    0  0.46530796311E+02  0.27261742582E+02  0.10498384458E+01  0.53939037577E+02  0.00000000000E+00 0.  1.
         22    1    3    3    0    0 -0.50983587997E+02 -0.35630048317E+02 -0.53156389090E+02  0.81819485999E+02  0.00000000000E+00 0.  1.
</event>
<event>
 7    1  0.5064652E-006  0.1270499E+03  0.7818608E-02  0.1352077E+00
          2   -1    0    0  502    0  0.00000000000E+00  0.00000000000E+00  0.28293650277E+03  0.28293650277E+03  0.00000000000E+00 0. -1.
          1   -1    0    0  501    0 -0.00000000000E+00 -0.00000000000E+00 -0.20886894676E+04  0.20886894676E+04  0.00000000000E+00 0. -1.
         25    2    1    2    0    0  0.71143209727E+01  0.10022640303E+03  0.39689051620E+02  0.16521452891E+03  0.12499869726E+03 0.  0.
          2    1    1    2  501    0  0.21034581513E+02  0.35508785986E+02 -0.19990645170E+04  0.19994905027E+04  0.00000000000E+00 0. -1.
          1    1    1    2  502    0 -0.28148902486E+02 -0.13573518902E+03  0.15362250048E+03  0.20692093877E+03  0.00000000000E+00 0. -1.
         22    1    3    3    0    0  0.56758982154E+02  0.66945927711E+02  0.54921779028E+02  0.10353618258E+03  0.00000000000E+00 0.  1.
         22    1    3    3    0    0 -0.49644661181E+02  0.33280475319E+02 -0.15232727408E+02  0.61678346326E+02  0.00000000000E+00 0.  1.
</event>
<event>
 7    1  0.5064652E-006  0.2326329E+03  0.7818608E-02  0.1296543E+00
          2   -1    0    0  502    0  0.00000000000E+00  0.00000000000E+00  0.11901896869E+04  0.11901896869E+04  0.00000000000E+00 0. -1.
          1   -1    0    0  501    0 -0.00000000000E+00 -0.00000000000E+00 -0.11365637719E+04  0.11365637719E+04  0.00000000000E+00 0. -1.
         25    2    1    2    0    0 -0.16146601934E+03 -0.13456204315E+03  0.33849169577E+03  0.41758869999E+03  0.12500190155E+03 0.  0.
          2    1    1    2  501    0 -0.13408129584E+02 -0.34382965265E+02 -0.10784929144E+04  0.10791241507E+04  0.00000000000E+00 0. -1.
          1    1    1    2  502    0  0.17487414892E+03  0.16894500842E+03  0.79362713367E+03  0.83004060811E+03  0.00000000000E+00 0. -1.
         22    1    3    3    0    0 -0.76605751234E+02 -0.41552956498E+02  0.44677283778E+02  0.97934411734E+02  0.00000000000E+00 0.  1.
         22    1    3    3    0    0 -0.84860268102E+02 -0.93009086652E+02  0.29381441199E+03  0.31965428825E+03  0.00000000000E+00 0.  1.
</event>
<event>
 7    1  0.5064652E-006  0.4255626E+02  0.7818608E-02  0.1544703E+00
          2   -1    0    0  502    0  0.00000000000E+00  0.00000000000E+00  0.33054040477E+02  0.33054040477E+02  0.00000000000E+00 0. -1.
          1   -1    0    0  501    0 -0.00000000000E+00 -0.00000000000E+00 -0.24217040148E+04  0.24217040148E+04  0.00000000000E+00 0. -1.
         25    2    1    2    0    0 -0.13676373040E+02 -0.29597531986E+02 -0.44801053639E+03  0.46626507620E+03  0.12500649379E+03 0.  0.
          2    1    1    2  501    0 -0.13622242580E+02  0.40827910281E+02 -0.19551341480E+04  0.19556078391E+04  0.00000000000E+00 0. -1.
          1    1    1    2  502    0  0.27298615619E+02 -0.11230378295E+02  0.14494710053E+02  0.32885139971E+02  0.00000000000E+00 0. -1.
         22    1    3    3    0    0  0.15150152421E+02 -0.35574748328E+02 -0.34840640025E+02  0.52047670787E+02  0.00000000000E+00 0.  1.
         22    1    3    3    0    0 -0.28826525460E+02  0.59772163421E+01 -0.41316989637E+03  0.41421740542E+03  0.00000000000E+00 0.  1.
</event>
<event>
 7    1  0.5064652E-006  0.4329275E+02  0.7818608E-02  0.1600834E+00
          2   -1    0    0  502    0  0.00000000000E+00  0.00000000000E+00  0.28459722136E+03  0.28459722136E+03  0.00000000000E+00 0. -1.
          1   -1    0    0  501    0 -0.00000000000E+00 -0.00000000000E+00 -0.18384207075E+04  0.18384207075E+04  0.00000000000E+00 0. -1.
         25    2    1    2    0    0 -0.42132724349E+02  0.43156058690E+02 -0.12214286205E+03  0.18487715781E+03  0.12499229122E+03 0.  0.
          2    1    1    2  501    0  0.22737603616E+02 -0.36679387260E+02 -0.16842210624E+04  0.16847738612E+04  0.00000000000E+00 0. -1.
          1    1    1    2  502    0  0.19395120733E+02 -0.64766714306E+01  0.25254043840E+03  0.25336690985E+03  0.00000000000E+00 0. -1.
         22    1    3    3    0    0 -0.64181139690E+02  0.51748491978E+01 -0.10934507848E+02  0.65311264097E+02  0.00000000000E+00 0. -1.
         22    1    3    3    0    0  0.22048415341E+02  0.37981209492E+02 -0.11120835420E+03  0.11956589371E+03  0.00000000000E+00 0. -1.
</event>
<event>
 7    1  0.5064652E-006  0.9363717E+02  0.7818608E-02  0.1346179E+00
          2   -1    0    0  502    0  0.00000000000E+00  0.00000000000E+00  0.23360909614E+04  0.23360909614E+04  0.00000000000E+00 0. -1.
          1   -1    0    0  501    0 -0.00000000000E+00 -0.00000000000E+00 -0.71032132441E+03  0.71032132441E+03  0.00000000000E+00 0. -1.
         25    2    1    2    0    0 -0.25520463994E+02 -0.54692400547E+02  0.13300333960E+03  0.19224327256E+03  0.12500013897E+03 0.  0.
          2    1    1    2  501    0  0.83499620794E+02  0.44361671764E+02 -0.67701645734E+03  0.68358717666E+03  0.00000000000E+00 0. -1.
          1    1    1    2  502    0 -0.57979156800E+02  0.10330728783E+02  0.21697827547E+04  0.21705818366E+04  0.00000000000E+00 0. -1.
         22    1    3    3    0    0  0.43558947914E+02 -0.32138926441E+02  0.97146533106E+02  0.11121034768E+03  0.00000000000E+00 0. -1.
         22    1    3    3    0    0 -0.69079411908E+02 -0.22553474106E+02  0.35856806492E+02  0.81032924886E+02  0.00000000000E+00 0. -1.
</event>
<event>
 7    1  0.5064652E-006  0.7566391E+02  0.7818608E-02  0.1431027E+00
          2   -1    0    0  502    0  0.00000000000E+00  0.00000000000E+00  0.54276998230E+03  0.54276998230E+03  0.00000000000E+00 0. -1.
          1   -1    0    0  501    0 -0.00000000000E+00 -0.00000000000E+00 -0.15391904314E+03  0.15391904314E+03  0.00000000000E+00 0. -1.
         25    2    1    2    0    0 -0.10739291645E+03 -0.12303079317E+02  0.69161631250E+02  0.17914566760E+03  0.12500093886E+03 0.  0.
          2    1    1    2  501    0  0.70697447128E+02  0.14814589510E+02 -0.84794934912E+02  0.11139022434E+03  0.00000000000E+00 0. -1.
          1    1    1    2  502    0  0.36695469326E+02 -0.25115101926E+01  0.40448424282E+03  0.40615313349E+03  0.00000000000E+00 0. -1.
         22    1    3    3    0    0  0.25982680876E+02 -0.17386485675E+02  0.76746415581E+01  0.32191454031E+02  0.00000000000E+00 0. -1.
         22    1    3    3    0    0 -0.13337559733E+03  0.50834063577E+01  0.61486989692E+02  0.14695421357E+03  0.00000000000E+00 0. -1.
</event>
<event>
 7    1  0.5064652E-006  0.8307945E+02  0.7818608E-02  0.1482490E+00
          2   -1    0    0  502    0  0.00000000000E+00  0.00000000000E+00  0.11844188924E+03  0.11844188924E+03  0.00000000000E+00 0. -1.
          1   -1    0    0  501    0 -0.00000000000E+00 -0.00000000000E+00 -0.76197333404E+03  0.76197333404E+03  0.00000000000E+00 0. -1.
         25    2    1    2    0    0 -0.35092930213E+02  0.65456009671E+02 -0.21054148490E+03  0.25584161216E+03  0.12494483061E+03 0.  0.
          2    1    1    2  501    0  0.57829323598E+02 -0.61930812608E+02 -0.52394566948E+03  0.53075297530E+03  0.00000000000E+00 0. -1.
          1    1    1    2  502    0 -0.22736393385E+02 -0.35251970622E+01  0.90955709583E+02  0.93820635812E+02  0.00000000000E+00 0. -1.
         22    1    3    3    0    0 -0.47616150769E+02  0.95126150026E+02 -0.18967013453E+03  0.21746503665E+03  0.00000000000E+00 0. -1.
         22    1    3    3    0    0  0.12523220556E+02 -0.29670140355E+02 -0.20871350376E+02  0.38376575516E+02  0.00000000000E+00 0. -1.
</event>
<event>
 7    1  0.5064652E-006  0.6329065E+02  0.7818608E-02  0.1457532E+00
          2   -1    0    0  502    0  0.00000000000E+00  0.00000000000E+00  0.32346201158E+03  0.32346201158E+03  0.00000000000E+00 0. -1.
          1   -1    0    0  501    0 -0.00000000000E+00 -0.00000000000E+00 -0.45307918030E+03  0.45307918030E+03  0.00000000000E+00 0. -1.
         25    2    1    2    0    0  0.50904446793E+02  0.68984145177E+02 -0.20766043498E+03  0.25709477141E+03  0.12499916096E+03 0.  0.
          2    1    1    2  501    0  0.28382905972E+01 -0.36002343349E+02 -0.21585737149E+03  0.21885755516E+03  0.00000000000E+00 0. -1.
          1    1    1    2  502    0 -0.53742737390E+02 -0.32981801828E+02  0.29390063776E+03  0.30058886531E+03  0.00000000000E+00 0. -1.
         22    1    3    3    0    0  0.49582344083E+01  0.95765172546E+02 -0.15491268504E+03  0.18219081302E+03  0.00000000000E+00 0.  1.
         22    1    3    3    0    0  0.45946212385E+02 -0.26781027369E+02 -0.52747749942E+02  0.74903958396E+02  0.00000000000E+00 0.  1.
</event>
<event>
 7    1  0.5064652E-006  0.9472357E+02  0.7818608E-02  0.1350556E+00
          2   -1    0    0  502    0  0.00000000000E+00  0.00000000000E+00  0.19199333826E+04  0.19199333826E+04  0.00000000000E+00 0. -1.
          1   -1    0    0  501    0 -0.00000000000E+00 -0.00000000000E+00 -0.40876857113E+03  0.40876857113E+03  0.00000000000E+00 0. -1.
         25    2    1    2    0    0 -0.13644133846E+03 -0.16556202970E+02  0.53111138391E+03  0.56266774677E+03  0.12500137771E+03 0.  0.
          2    1    1    2  501    0  0.46550870560E+02  0.31268539490E+02 -0.38946929961E+03  0.39348575635E+03  0.00000000000E+00 0. -1.
          1    1    1    2  502    0  0.89890467895E+02 -0.14712336520E+02  0.13695227272E+04  0.13725484506E+04  0.00000000000E+00 0. -1.
         22    1    3    3    0    0  0.51124204109E+01 -0.41573215951E+02  0.12953424954E+03  0.13613813180E+03  0.00000000000E+00 0.  1.
         22    1    3    3    0    0 -0.14155375887E+03  0.25017012981E+02  0.40157713438E+03  0.42652961496E+03  0.00000000000E+00 0.  1.
</event>
<event>
 7    1  0.5064652E-006  0.1750988E+03  0.7818608E-02  0.1215381E+00
          2   -1    0    0  502    0  0.00000000000E+00  0.00000000000E+00  0.81598428145E+03  0.81598428145E+03  0.00000000000E+00 0. -1.
          1   -1    0    0  501    0 -0.00000000000E+00 -0.00000000000E+00 -0.20034771097E+04  0.20034771097E+04  0.00000000000E+00 0. -1.
         25    2    1    2    0    0 -0.20105582248E+03 -0.19906332633E+03 -0.13381089857E+04  0.13733937076E+04  0.12499986692E+03 0.  0.
          2    1    1    2  501    0  0.69521728221E+02  0.84635656202E+02 -0.63345156824E+03  0.64285095808E+03  0.00000000000E+00 0. -1.
          1    1    1    2  502    0  0.13153409426E+03  0.11442767013E+03  0.78406772569E+03  0.80321672549E+03  0.00000000000E+00 0. -1.
         22    1    3    3    0    0 -0.13266495338E+03 -0.19355928253E+03 -0.90725888591E+03  0.93711465242E+03  0.00000000000E+00 0.  1.
         22    1    3    3    0    0 -0.68390869102E+02 -0.55040437974E+01 -0.43085009981E+03  0.43627905517E+03  0.00000000000E+00 0.  1.
</event>
<event>
 7    1  0.5064652E-006  0.7295970E+02  0.7818608E-02  0.1372021E+00
          2   -1    0    0  502    0  0.00000000000E+00  0.00000000000E+00  0.12198941016E+04  0.12198941016E+04  0.00000000000E+00 0. -1.
          1   -1    0    0  501    0 -0.00000000000E+00 -0.00000000000E+00 -0.20151105309E+03  0.20151105309E+03  0.00000000000E+00 0. -1.
         25    2    1    2    0    0 -0.11567572422E+03 -0.65100830151E+02  0.54149225206E+03  0.57136419934E+03  0.12499679190E+03 0.  0.
          2    1    1    2  501    0  0.60705477832E+02  0.39097398251E+02 -0.17812745258E+03  0.19220601174E+03  0.00000000000E+00 0. -1.
          1    1    1    2  502    0  0.54970246393E+02  0.26003431900E+02  0.65501824903E+03  0.65783494360E+03  0.00000000000E+00 0. -1.
         22    1    3    3    0    0 -0.33239827838E+02 -0.84848804839E+02  0.35501812948E+03  0.36652704961E+03  0.00000000000E+00 0.  1.
         22    1    3    3    0    0 -0.82435896386E+02  0.19747974688E+02  0.18647412259E+03  0.20483714973E+03  0.00000000000E+00 0.  1.
</event>
<event>
 7    1  0.5064652E-006  0.1064889E+03  0.7818608E-02  0.1443793E+00
          2   -1    0    0  502    0  0.00000000000E+00  0.00000000000E+00  0.32948437369E+03  0.32948437369E+03  0.00000000000E+00 0. -1.
          1   -1    0    0  501    0 -0.00000000000E+00 -0.00000000000E+00 -0.32093147409E+03  0.32093147409E+03  0.00000000000E+00 0. -1.
         25    2    1    2    0    0 -0.90179933439E+02  0.88748522957E+01 -0.89025288549E+02  0.17822565896E+03  0.12501079998E+03 0.  0.
          2    1    1    2  501    0  0.11068846478E+03 -0.20848499776E+02 -0.16979902851E+03  0.20376041387E+03  0.00000000000E+00 0. -1.
          1    1    1    2  502    0 -0.20508531339E+02  0.11973647481E+02  0.26737721666E+03  0.26842977495E+03  0.00000000000E+00 0. -1.
         22    1    3    3    0    0 -0.10244667702E+03  0.47897922247E+02 -0.59588613513E+02  0.12782932156E+03  0.00000000000E+00 0. -1.
         22    1    3    3    0    0  0.12266743585E+02 -0.39023069951E+02 -0.29436675036E+02  0.50396337404E+02  0.00000000000E+00 0. -1.
</event>
<event>
 7    1  0.5064652E-006  0.9264427E+02  0.7818608E-02  0.1355661E+00
          2   -1    0    0  502    0  0.00000000000E+00  0.00000000000E+00  0.14660076366E+04  0.14660076366E+04  0.00000000000E+00 0. -1.
          1   -1    0    0  501    0 -0.00000000000E+00 -0.00000000000E+00 -0.12394057872E+04  0.12394057872E+04  0.00000000000E+00 0. -1.
         25    2    1    2    0    0 -0.69933498738E+02 -0.54061573295E+01  0.70342066316E+03  0.71787988511E+03  0.12502391496E+03 0.  0.
          2    1    1    2  501    0 -0.29561739574E+02  0.46265856954E+02 -0.12277306277E+04  0.12289576560E+04  0.00000000000E+00 0. -1.
          1    1    1    2  502    0  0.99495238312E+02 -0.40859699625E+02  0.75091181393E+03  0.75857588269E+03  0.00000000000E+00 0. -1.
         22    1    3    3    0    0  0.74454134318E+01 -0.36773057298E+02  0.74227773171E+02  0.83171234416E+02  0.00000000000E+00 0.  1.
         22    1    3    3    0    0 -0.77378912169E+02  0.31366899969E+02  0.62919288999E+03  0.63470865070E+03  0.00000000000E+00 0.  1.
</event>
<event>
 7    1  0.5064652E-006  0.9235346E+02  0.7818608E-02  0.1316485E+00
          2   -1    0    0  502    0  0.00000000000E+00  0.00000000000E+00  0.22155672902E+03  0.22155672902E+03  0.00000000000E+00 0. -1.
          1   -1    0    0  501    0 -0.00000000000E+00 -0.00000000000E+00 -0.32267507490E+03  0.32267507490E+03  0.00000000000E+00 0. -1.
         25    2    1    2    0    0 -0.67732330852E+02 -0.23091913052E+02 -0.72951100357E+02  0.16145595872E+03  0.12500103388E+03 0.  0.
          2    1    1    2  501    0  0.92335415168E+02 -0.50394236105E+02 -0.18217801127E+03  0.21036690738E+03  0.00000000000E+00 0. -1.
          1    1    1    2  502    0 -0.24603084316E+02  0.73486149156E+02  0.15401076575E+03  0.17240893782E+03  0.00000000000E+00 0. -1.
         22    1    3    3    0    0 -0.14813190785E+01 -0.60356903173E+02 -0.58528061816E+02  0.84087359852E+02  0.00000000000E+00 0. -1.
         22    1    3    3    0    0 -0.66251011774E+02  0.37264990122E+02 -0.14423038541E+02  0.77368598866E+02  0.00000000000E+00 0. -1.
</event>
<event>
 7    1  0.5064652E-006  0.1566573E+03  0.7818608E-02  0.1293535E+00
          2   -1    0    0  502    0  0.00000000000E+00  0.00000000000E+00  0.30889004235E+03  0.30889004235E+03  0.00000000000E+00 0. -1.
          1   -1    0    0  501    0 -0.00000000000E+00 -0.00000000000E+00 -0.11619353820E+04  0.11619353820E+04  0.00000000000E+00 0. -1.
         25    2    1    2    0    0 -0.74416309672E+02  0.13299964129E+03  0.59214608719E+01  0.19719749156E+03  0.12500038100E+03 0.  0.
          2    1    1    2  501    0  0.12079557778E+03 -0.10098498712E+03 -0.10565232734E+04  0.10681905103E+04  0.00000000000E+00 0. -1.
          1    1    1    2  502    0 -0.46379268111E+02 -0.32014654168E+02  0.19755647282E+03  0.20543742246E+03  0.00000000000E+00 0. -1.
         22    1    3    3    0    0  0.12989241696E+02  0.53220783830E+02  0.46743002443E+02  0.72014446528E+02  0.00000000000E+00 0. -1.
         22    1    3    3    0    0 -0.87405551368E+02  0.79778857459E+02 -0.40821541571E+02  0.12518304503E+03  0.00000000000E+00 0. -1.
</event>
<event>
 7    1  0.5064652E-006  0.6564087E+02  0.7818608E-02  0.1396549E+00
          2   -1    0    0  502    0  0.00000000000E+00  0.00000000000E+00  0.10165469295E+03  0.10165469295E+03  0.00000000000E+00 0. -1.
          1   -1    0    0  501    0 -0.00000000000E+00 -0.00000000000E+00 -0.10963291439E+04  0.10963291439E+04  0.00000000000E+00 0. -1.
         25    2    1    2    0    0  0.73604649479E+01  0.86927697142E+02 -0.49126103999E+03  0.51436600669E+03  0.12499751377E+03 0.  0.
          2    1    1    2  501    0 -0.45239648121E+02 -0.46492554576E+02 -0.58302554946E+03  0.58662336700E+03  0.00000000000E+00 0. -1.
          1    1    1    2  502    0  0.37879183173E+02 -0.40435142566E+02  0.79612138543E+02  0.96994463118E+02  0.00000000000E+00 0. -1.
         22    1    3    3    0    0  0.31507948403E+02  0.28737539672E+02 -0.39163163419E+02  0.57899485040E+02  0.00000000000E+00 0.  1.
         22    1    3    3    0    0 -0.24147483455E+02  0.58190157470E+02 -0.45209787657E+03  0.45646652165E+03  0.00000000000E+00 0.  1.
</event>
<event>
 7    1  0.5064652E-006  0.1557160E+03  0.7818608E-02  0.1290768E+00
          2   -1    0    0  502    0  0.00000000000E+00  0.00000000000E+00  0.36599532098E+03  0.36599532098E+03  0.00000000000E+00 0. -1.
          1   -1    0    0  501    0 -0.00000000000E+00 -0.00000000000E+00 -0.18310785029E+03  0.18310785029E+03  0.00000000000E+00 0. -1.
         25    2    1    2    0    0  0.97647941296E+02  0.81031678809E+02  0.10370790811E+03  0.20611160248E+03  0.12500163623E+03 0.  0.
          2    1    1    2  501    0  0.57628466029E+02  0.79914929356E+01 -0.83066078461E+02  0.10141438481E+03  0.00000000000E+00 0. -1.
          1    1    1    2  502    0 -0.15527640733E+03 -0.89023171744E+02  0.16224564104E+03  0.24157718397E+03  0.00000000000E+00 0. -1.
         22    1    3    3    0    0  0.41949751942E+02  0.90870888638E+02  0.15430621326E+02  0.10126896940E+03  0.00000000000E+00 0.  1.
         22    1    3    3    0    0  0.55698189354E+02 -0.98392098290E+01  0.88277286788E+02  0.10484263308E+03  0.00000000000E+00 0.  1.
</event>
<event>
 7    1  0.5064652E-006  0.8488649E+02  0.7818608E-02  0.1350110E+00
          2   -1    0    0  502    0  0.00000000000E+00  0.00000000000E+00  0.87255980796E+03  0.87255980796E+03  0.00000000000E+00 0. -1.
          1   -1    0    0  501    0 -0.00000000000E+00 -0.00000000000E+00 -0.11952983705E+03  0.11952983705E+03  0.00000000000E+00 0. -1.
         25    2    1    2    0    0 -0.54142241801E+02 -0.52628385912E+02  0.48128004113E+02  0.15375308077E+03  0.12499030249E+03 0.  0.
          2    1    1    2  501    0  0.53017474307E+02 -0.33687698418E+02 -0.48901950554E+02  0.79605994589E+02  0.00000000000E+00 0. -1.
          1    1    1    2  502    0  0.11247674943E+01  0.86316084329E+02  0.75380391734E+03  0.75873056965E+03  0.00000000000E+00 0. -1.
         22    1    3    3    0    0 -0.90974942359E+02 -0.12957815548E+02  0.30364011921E+02  0.96779741377E+02  0.00000000000E+00 0. -1.
         22    1    3    3    0    0  0.36832700559E+02 -0.39670570364E+02  0.17763992192E+02  0.56973339397E+02  0.00000000000E+00 0. -1.
</event>
<event>
 7    1  0.5064652E-006  0.8995756E+02  0.7818608E-02  0.1312874E+00
          2   -1    0    0  502    0  0.00000000000E+00  0.00000000000E+00  0.28043192103E+04  0.28043192103E+04  0.00000000000E+00 0. -1.
          1   -1    0    0  501    0 -0.00000000000E+00 -0.00000000000E+00 -0.17688724376E+03  0.17688724376E+03  0.00000000000E+00 0. -1.
         25    2    1    2    0    0 -0.56122290711E+02 -0.11736175795E+03  0.74927466021E+03  0.77068912452E+03  0.12500286593E+03 0.  0.
          2    1    1    2  501    0 -0.20416082501E+02  0.87410305467E+02 -0.15316658820E+03  0.17753135404E+03  0.00000000000E+00 0. -1.
          1    1    1    2  502    0  0.76538373212E+02  0.29951452480E+02  0.20313238946E+04  0.20329859755E+04  0.00000000000E+00 0. -1.
         22    1    3    3    0    0  0.15832728993E+02 -0.38875227625E+01  0.96209383985E+01  0.18930150455E+02  0.00000000000E+00 0. -1.
         22    1    3    3    0    0 -0.71955019704E+02 -0.11347423518E+03  0.73965372181E+03  0.75175897407E+03  0.00000000000E+00 0. -1.
</event>
<event>
 7    1  0.5064652E-006  0.4417880E+03  0.7818608E-02  0.1203633E+00
          2   -1    0    0  502    0  0.00000000000E+00  0.00000000000E+00  0.22077832109E+04  0.22077832109E+04  0.00000000000E+00 0. -1.
          1   -1    0    0  501    0 -0.00000000000E+00 -0.00000000000E+00 -0.17834272500E+03  0.17834272500E+03  0.00000000000E+00 0. -1.
         25    2    1    2    0    0  0.39286718915E+03 -0.14057823584E+03  0.72646784797E+03  0.84704655033E+03  0.12500182233E+03 0.  0.
          2    1    1    2  501    0 -0.41756043858E+03  0.18315252119E+03  0.32515623898E+03  0.56002512947E+03  0.00000000000E+00 0. -1.
          1    1    1    2  502    0  0.24693249434E+02 -0.42574285354E+02  0.97781639891E+03  0.97905425607E+03  0.00000000000E+00 0. -1.
         22    1    3    3    0    0  0.30537574988E+03 -0.12928942244E+03  0.46527747805E+03  0.57136086228E+03  0.00000000000E+00 0.  1.
         22    1    3    3    0    0  0.87491439272E+02 -0.11288813403E+02  0.26119036992E+03  0.27568568805E+03  0.00000000000E+00 0.  1.
</event>
<event>
 7    1  0.5064652E-006  0.8106253E+02  0.7818608E-02  0.1436708E+00
          2   -1    0    0  502    0  0.00000000000E+00  0.00000000000E+00  0.31946717487E+03  0.31946717487E+03  0.00000000000E+00 0. -1.
          1   -1    0    0  501    0 -0.00000000000E+00 -0.00000000000E+00 -0.77343685996E+03  0.77343685996E+03  0.00000000000E+00 0. -1.
         25    2    1    2    0    0  0.30882854467E+02 -0.54337509323E+02 -0.11282534019E+03  0.17961378469E+03  0.12500095456E+03 0.  0.
          2    1    1    2  501    0 -0.63748064498E+02  0.52994005786E+02 -0.62351931352E+03  0.62900597351E+03  0.00000000000E+00 0. -1.
          1    1    1    2  502    0  0.32865210031E+02  0.13435035374E+01  0.28237496862E+03  0.28428427663E+03  0.00000000000E+00 0. -1.
         22    1    3    3    0    0  0.20171554076E+02 -0.86949462817E+02 -0.37462067213E+02  0.96801379937E+02  0.00000000000E+00 0.  1.
         22    1    3    3    0    0  0.10711300391E+02  0.32611953493E+02 -0.75363272976E+02  0.82812404749E+02  0.00000000000E+00 0.  1.
</event>
<event>
 7    1  0.5064652E-006  0.1224110E+03  0.7818608E-02  0.1266357E+00
          2   -1    0    0  502    0  0.00000000000E+00  0.00000000000E+00  0.14423538037E+03  0.14423538037E+03  0.00000000000E+00 0. -1.
          1   -1    0    0  501    0 -0.00000000000E+00 -0.00000000000E+00 -0.80445915314E+03  0.80445915314E+03  0.00000000000E+00 0. -1.
         25    2    1    2    0    0 -0.84043375300E+02 -0.62893509815E+02  0.61865605984E+01  0.16334373539E+03  0.12499607934E+03 0.  0.
          2    1    1    2  501    0 -0.77150941671E+02  0.52664584933E+02 -0.60560355798E+03  0.61276544921E+03  0.00000000000E+00 0. -1.
          1    1    1    2  502    0  0.16119431697E+03  0.10228924882E+02 -0.60806775387E+02  0.17258534892E+03  0.00000000000E+00 0. -1.
         22    1    3    3    0    0 -0.73075070930E+02 -0.30192027599E+02  0.60117736618E+02  0.99326062934E+02  0.00000000000E+00 0. -1.
         22    1    3    3    0    0 -0.10968304370E+02 -0.32701482216E+02 -0.53931176019E+02  0.64017672456E+02  0.00000000000E+00 0. -1.
</event>
<event>
 7    1  0.5064652E-006  0.5663001E+02  0.7818608E-02  0.1492385E+00
          2   -1    0    0  502    0  0.00000000000E+00  0.00000000000E+00  0.47097275226E+03  0.47097275226E+03  0.00000000000E+00 0. -1.
          1   -1    0    0  501    0 -0.00000000000E+00 -0.00000000000E+00 -0.13740098116E+03  0.13740098116E+03  0.00000000000E+00 0. -1.
         25    2    1    2    0    0  0.78605641147E+01  0.31223890367E+02  0.21879130079E+03  0.25402988883E+03  0.12499932528E+03 0.  0.
          2    1    1    2  501    0  0.18300159918E+02  0.25636420685E+02 -0.11342163190E+03  0.11771401149E+03  0.00000000000E+00 0. -1.
          1    1    1    2  502    0 -0.26160724033E+02 -0.56860311052E+02  0.22820210222E+03  0.23662983309E+03  0.00000000000E+00 0. -1.
         22    1    3    3    0    0  0.85706155362E+01 -0.19765536196E+02  0.19766005671E+03  0.19883065631E+03  0.00000000000E+00 0. -1.
         22    1    3    3    0    0 -0.71005142147E+00  0.50989426563E+02  0.21131244085E+02  0.55199232520E+02  0.00000000000E+00 0. -1.
</event>
<event>
 7    1  0.5064652E-006  0.8162856E+02  0.7818608E-02  0.1442292E+00
          2   -1    0    0  502    0  0.00000000000E+00  0.00000000000E+00  0.19254113080E+04  0.19254113080E+04  0.00000000000E+00 0. -1.
          1   -1    0    0  501    0 -0.00000000000E+00 -0.00000000000E+00 -0.73416100044E+03  0.73416100044E+03  0.00000000000E+00 0. -1.
         25    2    1    2    0    0  0.82768639581E+02  0.77878205927E+00  0.86755849248E+03  0.88041711247E+03  0.12500119941E+03 0.  0.
          2    1    1    2  501    0 -0.75429632652E+02 -0.31235643013E+02 -0.72520732505E+03  0.72978829751E+03  0.00000000000E+00 0. -1.
          1    1    1    2  502    0 -0.73390069282E+01  0.30456860954E+02  0.10488991402E+04  0.10493668985E+04  0.00000000000E+00 0. -1.
         22    1    3    3    0    0  0.90445140540E+02  0.21895054387E+02  0.34364073230E+03  0.35601779415E+03  0.00000000000E+00 0. -1.
         22    1    3    3    0    0 -0.76765009593E+01 -0.21116272328E+02  0.52391776018E+03  0.52439931832E+03  0.00000000000E+00 0. -1.
</event>
<event>
 7    1  0.5064652E-006  0.7448715E+02  0.7818608E-02  0.1481278E+00
          2   -1    0    0  502    0  0.00000000000E+00  0.00000000000E+00  0.16246901567E+04  0.16246901567E+04  0.00000000000E+00 0. -1.
          1   -1    0    0  501    0 -0.00000000000E+00 -0.00000000000E+00 -0.44482177290E+03  0.44482177290E+03  0.00000000000E+00 0. -1.
         25    2    1    2    0    0  0.71580977747E+02 -0.46514850503E+02 -0.28453914656E+03  0.32227767495E+03  0.12495161526E+03 0.  0.
          2    1    1    2  501    0 -0.67168640161E+02  0.21011644587E+02 -0.13254555352E+03  0.15007144694E+03  0.00000000000E+00 0. -1.
          1    1    1    2  502    0 -0.44123375859E+01  0.25503205915E+02  0.15969530839E+04  0.15971628077E+04  0.00000000000E+00 0. -1.
         22    1    3    3    0    0  0.28399544805E+02 -0.43770273227E+02 -0.22721918275E+02  0.56909195510E+02  0.00000000000E+00 0. -1.
         22    1    3    3    0    0  0.43181432942E+02 -0.27445772756E+01 -0.26181722829E+03  0.26536847944E+03  0.00000000000E+00 0. -1.
</event>
<event>
 7    1  0.5064652E-006  0.1013259E+03  0.7818608E-02  0.1378478E+00
          2   -1    0    0  502    0  0.00000000000E+00  0.00000000000E+00  0.14174029459E+03  0.14174029459E+03  0.00000000000E+00 0. -1.
          1   -1    0    0  501    0 -0.00000000000E+00 -0.00000000000E+00 -0.27499228645E+04  0.27499228645E+04  0.00000000000E+00 0. -1.
         25    2    1    2    0    0  0.44034456222E+02  0.45942135507E+02 -0.28086438196E+03  0.31394319782E+03  0.12500326896E+03 0.  0.
          2    1    1    2  501    0  0.18928483324E+02  0.36959793008E+02 -0.24306716977E+04  0.24310263709E+04  0.00000000000E+00 0. -1.
          1    1    1    2  502    0 -0.62962939546E+02 -0.82901928515E+02  0.10335350972E+03  0.14669359045E+03  0.00000000000E+00 0. -1.
         22    1    3    3    0    0  0.20868876767E+02 -0.43259793078E+02 -0.91300292118E+02  0.10316328347E+03  0.00000000000E+00 0.  1.
         22    1    3    3    0    0  0.23165579455E+02  0.89201928584E+02 -0.18956408985E+03  0.21077991435E+03  0.00000000000E+00 0.  1.
</event>
<event>
 7    1  0.5064652E-006  0.6979644E+02  0.7818608E-02  0.1439275E+00
          2   -1    0    0  502    0  0.00000000000E+00  0.00000000000E+00  0.49477124788E+03  0.49477124788E+03  0.00000000000E+00 0. -1.
          1   -1    0    0  501    0 -0.00000000000E+00 -0.00000000000E+00 -0.13639805148E+03  0.13639805148E+03  0.00000000000E+00 0. -1.
         25    2    1    2    0    0 -0.28332219938E+02 -0.22055259328E+02  0.94416932699E+02  0.16071460707E+03  0.12500191436E+03 0.  0.
          2    1    1    2  501    0  0.60024565925E+02  0.42052932156E+02 -0.89125658624E+02  0.11538969037E+03  0.00000000000E+00 0. -1.
          1    1    1    2  502    0 -0.31692345987E+02 -0.19997672828E+02  0.35308192233E+03  0.35506500192E+03  0.00000000000E+00 0. -1.
         22    1    3    3    0    0  0.32498189436E+02 -0.52045001769E+02  0.54182478682E+02  0.81856921038E+02  0.00000000000E+00 0. -1.
         22    1    3    3    0    0 -0.60830409374E+02  0.29989742441E+02  0.40234454017E+02  0.78857686032E+02  0.00000000000E+00 0. -1.
</event>
<event>
 7    1  0.5064652E-006  0.8219837E+02  0.7818608E-02  0.1456447E+00
          2   -1    0    0  502    0  0.00000000000E+00  0.00000000000E+00  0.11031401389E+03  0.11031401389E+03  0.00000000000E+00 0. -1.
          1   -1    0    0  501    0 -0.00000000000E+00 -0.00000000000E+00 -0.27864883432E+03  0.27864883432E+03  0.00000000000E+00 0. -1.
         25    2    1    2    0    0  0.95029253861E+01  0.92253189033E+02 -0.16334465934E+03  0.22562643140E+03  0.12499940934E+03 0.  0.
          2    1    1    2  501    0  0.13350135081E+02 -0.76026751728E+02 -0.62526114837E+02  0.99336841713E+02  0.00000000000E+00 0. -1.
          1    1    1    2  502    0 -0.22853060467E+02 -0.16226437305E+02  0.57535953744E+02  0.63999575105E+02  0.00000000000E+00 0. -1.
         22    1    3    3    0    0 -0.64524012644E+01  0.11915346411E+03 -0.14986526503E+03  0.19156925420E+03  0.00000000000E+00 0.  1.
         22    1    3    3    0    0  0.15955326651E+02 -0.26900275079E+02 -0.13479394305E+02  0.34057177198E+02  0.00000000000E+00 0.  1.
</event>
<event>
 7    1  0.5064652E-006  0.1496565E+03  0.7818608E-02  0.1253172E+00
          2   -1    0    0  502    0  0.00000000000E+00  0.00000000000E+00  0.19021764873E+04  0.19021764873E+04  0.00000000000E+00 0. -1.
          1   -1    0    0  501    0 -0.00000000000E+00 -0.00000000000E+00 -0.51314530337E+03  0.51314530337E+03  0.00000000000E+00 0. -1.
         25    2    1    2    0    0  0.95112977479E+02  0.18229182328E+03 -0.23546251625E+03  0.33666775400E+03  0.12500317078E+03 0.  0.
          2    1    1    2  501    0 -0.27446440800E+02 -0.12763815716E+03 -0.20719726705E+03  0.24489898683E+03  0.00000000000E+00 0. -1.
          1    1    1    2  502    0 -0.67666536680E+02 -0.54653666117E+02  0.18316909672E+04  0.18337550498E+04  0.00000000000E+00 0. -1.
         22    1    3    3    0    0  0.10414561051E+02  0.41904817947E+02  0.72314353583E+01  0.43780937706E+02  0.00000000000E+00 0.  1.
         22    1    3    3    0    0  0.84698416429E+02  0.14038700533E+03 -0.24269395160E+03  0.29288681629E+03  0.00000000000E+00 0.  1.
</event>
<event>
 7    1  0.5064652E-006  0.1699298E+03  0.7818608E-02  0.1214035E+00
          2   -1    0    0  502    0  0.00000000000E+00  0.00000000000E+00  0.36728766419E+04  0.36728766419E+04  0.00000000000E+00 0. -1.
          1   -1    0    0  501    0 -0.00000000000E+00 -0.00000000000E+00 -0.52580363949E+03  0.52580363949E+03  0.00000000000E+00 0. -1.
         25    2    1    2    0    0  0.27098489343E+03 -0.81776445648E+01  0.97048361617E+03  0.10153635308E+04  0.12499985609E+03 0.  0.
          2    1    1    2  501    0 -0.11223972645E+03  0.22541384633E+02 -0.49444783393E+03  0.50752786198E+03  0.00000000000E+00 0. -1.
          1    1    1    2  502    0 -0.15874516697E+03 -0.14363740068E+02  0.26710372202E+04  0.26757888887E+04  0.00000000000E+00 0. -1.
         22    1    3    3    0    0  0.24250707069E+03  0.29410138341E+02  0.71540045342E+03  0.75595796466E+03  0.00000000000E+00 0.  1.
         22    1    3    3    0    0  0.28477822736E+02 -0.37587782906E+02  0.25508316275E+03  0.25940556611E+03  0.00000000000E+00 0.  1.
</event>
<event>
 7    1  0.5064652E-006  0.2239289E+03  0.7818608E-02  0.1332827E+00
          2   -1    0    0  502    0  0.00000000000E+00  0.00000000000E+00  0.77678724546E+03  0.77678724546E+03  0.00000000000E+00 0. -1.
          1   -1    0    0  501    0 -0.00000000000E+00 -0.00000000000E+00 -0.15577407425E+03  0.15577407425E+03  0.00000000000E+00 0. -1.
         25    2    1    2    0    0 -0.19599262825E+03  0.76104021180E+02  0.20781635614E+03  0.32094082926E+03  0.12494176900E+03 0.  0.
          2    1    1    2  501    0  0.22163071909E+03 -0.65754857225E+02  0.36657657891E+02  0.23406764145E+03  0.00000000000E+00 0. -1.
          1    1    1    2  502    0 -0.25638090833E+02 -0.10349163955E+02  0.37653915718E+03  0.37755284900E+03  0.00000000000E+00 0. -1.
         22    1    3    3    0    0  0.15475399365E+02  0.26031837739E+01  0.34212712447E+02  0.37640061693E+02  0.00000000000E+00 0. -1.
         22    1    3    3    0    0 -0.21146802762E+03  0.73500837406E+02  0.17360364369E+03  0.28330076757E+03  0.00000000000E+00 0. -1.
</event>
<event>
 7    1  0.5064652E-006  0.9662054E+02  0.7818608E-02  0.1342882E+00
          2   -1    0    0  502    0  0.00000000000E+00  0.00000000000E+00  0.14028258762E+03  0.14028258762E+03  0.00000000000E+00 0. -1.
          1   -1    0    0  501    0 -0.00000000000E+00 -0.00000000000E+00 -0.48835156227E+03  0.48835156227E+03  0.00000000000E+00 0. -1.
         25    2    1    2    0    0  0.99531078061E+02  0.16420513649E+02 -0.32808224281E+03  0.36529088021E+03  0.12499360122E+03 0.  0.
          2    1    1    2  501    0 -0.29220399218E+02  0.50928733946E+02 -0.11385268205E+03  0.12810152568E+03  0.00000000000E+00 0. -1.
          1    1    1    2  502    0 -0.70310678843E+02 -0.67349247594E+02  0.93865950219E+02  0.13524174400E+03  0.00000000000E+00 0. -1.
         22    1    3    3    0    0  0.33278985139E+01  0.50984638228E+02 -0.62574536299E+02  0.80784162042E+02  0.00000000000E+00 0.  1.
         22    1    3    3    0    0  0.96203179547E+02 -0.34564124579E+02 -0.26550770651E+03  0.28450671817E+03  0.00000000000E+00 0.  1.
</event>
<event>
 7    1  0.5064652E-006  0.6217112E+02  0.7818608E-02  0.1504522E+00
          2   -1    0    0  502    0  0.00000000000E+00  0.00000000000E+00  0.37482213220E+03  0.37482213220E+03  0.00000000000E+00 0. -1.
          1   -1    0    0  501    0 -0.00000000000E+00 -0.00000000000E+00 -0.20367128251E+04  0.20367128251E+04  0.00000000000E+00 0. -1.
         25    2    1    2    0    0 -0.30676529872E+02 -0.46185150406E+02 -0.14479193099E+04  0.14543619303E+04  0.12499671444E+03 0.  0.
          2    1    1    2  501    0  0.13833139550E+02  0.66501515650E+02 -0.58312978424E+03  0.58707252755E+03  0.00000000000E+00 0. -1.
          1    1    1    2  502    0  0.16843390323E+02 -0.20316365244E+02  0.36915840125E+03  0.37010049947E+03  0.00000000000E+00 0. -1.
         22    1    3    3    0    0 -0.17758627572E+02 -0.20381069954E+02 -0.56402863145E+02  0.62546301543E+02  0.00000000000E+00 0. -1.
         22    1    3    3    0    0 -0.12917902300E+02 -0.25804080452E+02 -0.13915164468E+04  0.13918156287E+04  0.00000000000E+00 0. -1.
</event>
<event>
 7    1  0.5064652E-006  0.1756917E+03  0.7818608E-02  0.1367444E+00
          2   -1    0    0  502    0  0.00000000000E+00  0.00000000000E+00  0.12438263359E+04  0.12438263359E+04  0.00000000000E+00 0. -1.
          1   -1    0    0  501    0 -0.00000000000E+00 -0.00000000000E+00 -0.14726375705E+04  0.14726375705E+04  0.00000000000E+00 0. -1.
         25    2    1    2    0    0 -0.35557266831E+02  0.15959463711E+03 -0.26817110159E+03  0.33804583933E+03  0.12499792934E+03 0.  0.
          2    1    1    2  501    0 -0.25668004401E+02  0.53920610854E+01 -0.11629759918E+04  0.11632717130E+04  0.00000000000E+00 0. -1.
          1    1    1    2  502    0  0.61225271231E+02 -0.16498669819E+03  0.12023358588E+04  0.12151463541E+04  0.00000000000E+00 0. -1.
         22    1    3    3    0    0 -0.13342100172E+02  0.10373694129E+03 -0.58314994227E+02  0.11974975230E+03  0.00000000000E+00 0.  1.
         22    1    3    3    0    0 -0.22215166659E+02  0.55857695819E+02 -0.20985610736E+03  0.21829608702E+03  0.00000000000E+00 0.  1.
</event>
<event>
 7    1  0.5064652E-006  0.3403162E+03  0.7818608E-02  0.1188697E+00
          2   -1    0    0  502    0  0.00000000000E+00  0.00000000000E+00  0.21506151738E+03  0.21506151738E+03  0.00000000000E+00 0. -1.
          1   -1    0    0  501    0 -0.00000000000E+00 -0.00000000000E+00 -0.11984575974E+04  0.11984575974E+04  0.00000000000E+00 0. -1.
         25    2    1    2    0    0 -0.23795653112E+03 -0.16051826929E+03 -0.59195950191E+03  0.66964971666E+03  0.12500106256E+03 0.  0.
          2    1    1    2  501    0 -0.37500532978E+02 -0.65210288347E+02 -0.38018940901E+03  0.38755987718E+03  0.00000000000E+00 0. -1.
          1    1    1    2  502    0  0.27545706409E+03  0.22572855763E+03 -0.11247169085E+02  0.35630952093E+03  0.00000000000E+00 0. -1.
         22    1    3    3    0    0 -0.22613838214E+03 -0.98626532563E+02 -0.42821449017E+03  0.49419976770E+03  0.00000000000E+00 0.  1.
         22    1    3    3    0    0 -0.11818148978E+02 -0.61891736722E+02 -0.16374501174E+03  0.17544994896E+03  0.00000000000E+00 0.  1.
</event>
<event>
 7    1  0.5064652E-006  0.2508316E+02  0.7818608E-02  0.1675529E+00
          2   -1    0    0  502    0  0.00000000000E+00  0.00000000000E+00  0.16978098638E+03  0.16978098638E+03  0.00000000000E+00 0. -1.
          1   -1    0    0  501    0 -0.00000000000E+00 -0.00000000000E+00 -0.15740763237E+04  0.15740763237E+04  0.00000000000E+00 0. -1.
         25    2    1    2    0    0 -0.41161591922E+01  0.11685662686E+02  0.97476261189E+01  0.12599375660E+03  0.12500365198E+03 0.  0.
          2    1    1    2  501    0 -0.18177984726E+02 -0.17328163449E+02 -0.15145504486E+04  0.15147586493E+04  0.00000000000E+00 0. -1.
          1    1    1    2  502    0  0.22294143918E+02  0.56425007624E+01  0.10050748520E+03  0.10310490410E+03  0.00000000000E+00 0. -1.
         22    1    3    3    0    0 -0.33795209945E+02  0.54135674102E+02 -0.19217095295E+02  0.66648962312E+02  0.00000000000E+00 0. -1.
         22    1    3    3    0    0  0.29679050753E+02 -0.42450011416E+02  0.28964721414E+02  0.59344794290E+02  0.00000000000E+00 0. -1.
</event>
<event>
 7    1  0.5064652E-006  0.1436571E+03  0.7818608E-02  0.1347271E+00
          2   -1    0    0  502    0  0.00000000000E+00  0.00000000000E+00  0.12776104951E+04  0.12776104951E+04  0.00000000000E+00 0. -1.
          1   -1    0    0  501    0 -0.00000000000E+00 -0.00000000000E+00 -0.63356783897E+02  0.63356783897E+02  0.00000000000E+00 0. -1.
         25    2    1    2    0    0  0.14749966918E+03  0.69866943598E+02  0.90960048348E+03  0.93254254388E+03  0.12500005750E+03 0.  0.
          2    1    1    2  501    0 -0.11297851370E+03 -0.85819776043E+02  0.49214532179E+02  0.15017073182E+03  0.00000000000E+00 0. -1.
          1    1    1    2  502    0 -0.34521155484E+02  0.15952832445E+02  0.25543869550E+03  0.25825400325E+03  0.00000000000E+00 0. -1.
         22    1    3    3    0    0  0.76859607884E+01  0.65019194885E+02  0.27072361281E+03  0.27852799541E+03  0.00000000000E+00 0.  1.
         22    1    3    3    0    0  0.13981370840E+03  0.48477487128E+01  0.63887687068E+03  0.65401454847E+03  0.00000000000E+00 0.  1.
</event>
<event>
 7    1  0.6065524E-006  0.1209295E+03  0.7818608E-02  0.1349902E+00
          2   -1    0    0  502    0  0.00000000000E+00  0.00000000000E+00  0.12783873338E+04  0.12783873338E+04  0.00000000000E+00 0. -1.
          1   -1    0    0  501    0 -0.00000000000E+00 -0.00000000000E+00 -0.11676780258E+04  0.11676780258E+04  0.00000000000E+00 0. -1.
         25    2    1    2    0    0  0.15609956021E+03  0.49519454583E+02 -0.87709866592E+03  0.90096813787E+03  0.12498906601E+03 0.  0.
          2    1    1    2  501    0 -0.38615033712E+02 -0.21446955617E+02 -0.27399153956E+03  0.27752919934E+03  0.00000000000E+00 0. -1.
          1    1    1    2  502    0 -0.11748452649E+03 -0.28072498966E+02  0.12617995135E+04  0.12675680224E+04  0.00000000000E+00 0. -1.
         22    1    3    3    0    0  0.77609231974E+02 -0.23841717885E+02 -0.56705288452E+03  0.57283557347E+03  0.00000000000E+00 0. -1.
         22    1    3    3    0    0  0.78490328231E+02  0.73361172468E+02 -0.31004578140E+03  0.32813256439E+03  0.00000000000E+00 0. -1.
</event>
<event>
 7    1  0.5064652E-006  0.4809877E+02  0.7818608E-02  0.1545415E+00
          2   -1    0    0  502    0  0.00000000000E+00  0.00000000000E+00  0.68047574487E+03  0.68047574487E+03  0.00000000000E+00 0. -1.
          1   -1    0    0  501    0 -0.00000000000E+00 -0.00000000000E+00 -0.17053296198E+04  0.17053296198E+04  0.00000000000E+00 0. -1.
         25    2    1    2    0    0  0.15919422036E+02 -0.16920443022E+02 -0.29603315189E+02  0.13054105219E+03  0.12499952258E+03 0.  0.
          2    1    1    2  501    0  0.23453407516E+02 -0.11215231399E+02 -0.16242239739E+04  0.16244320118E+04  0.00000000000E+00 0. -1.
          1    1    1    2  502    0 -0.39372829551E+02  0.28135674422E+02  0.62897341412E+03  0.63083230066E+03  0.00000000000E+00 0. -1.
         22    1    3    3    0    0  0.48266892848E+02 -0.48027918620E+02 -0.46645767409E+02  0.82536061993E+02  0.00000000000E+00 0. -1.
         22    1    3    3    0    0 -0.32347470813E+02  0.31107475598E+02  0.17042452220E+02  0.48004990196E+02  0.00000000000E+00 0. -1.
</event>
<event>
 7    1  0.5064652E-006  0.5456544E+02  0.7818608E-02  0.1476954E+00
          2   -1    0    0  502    0  0.00000000000E+00  0.00000000000E+00  0.39717490720E+03  0.39717490720E+03  0.00000000000E+00 0. -1.
          1   -1    0    0  501    0 -0.00000000000E+00 -0.00000000000E+00 -0.10174707331E+04  0.10174707331E+04  0.00000000000E+00 0. -1.
         25    2    1    2    0    0  0.56253230367E+02 -0.34084866988E+02 -0.19377280349E+02  0.14256712055E+03  0.12499480303E+03 0.  0.
          2    1    1    2  501    0 -0.33063713812E+02 -0.15291915191E+02 -0.93392416059E+03  0.93463436144E+03  0.00000000000E+00 0. -1.
          1    1    1    2  502    0 -0.23189516555E+02  0.49376782179E+02  0.33300561507E+03  0.33744415829E+03  0.00000000000E+00 0. -1.
         22    1    3    3    0    0 -0.84586002718E+01 -0.45123846630E+02 -0.51912019296E+02  0.69300557001E+02  0.00000000000E+00 0.  1.
         22    1    3    3    0    0  0.64711830639E+02  0.11038979642E+02  0.32534738948E+02  0.73266563551E+02  0.00000000000E+00 0.  1.
</event>
<event>
 7    1  0.5064652E-006  0.4901797E+02  0.7818608E-02  0.1511850E+00
          2   -1    0    0  502    0  0.00000000000E+00  0.00000000000E+00  0.10062397438E+04  0.10062397438E+04  0.00000000000E+00 0. -1.
          1   -1    0    0  501    0 -0.00000000000E+00 -0.00000000000E+00 -0.29423376311E+02  0.29423376311E+02  0.00000000000E+00 0. -1.
         25    2    1    2    0    0  0.12821214145E+02  0.73652805724E+02  0.61182527656E+03  0.62891954331E+03  0.12498201307E+03 0.  0.
          2    1    1    2  501    0 -0.21328690785E+02 -0.42964262670E+02  0.83560040173E+01  0.48689462110E+02  0.00000000000E+00 0. -1.
          1    1    1    2  502    0  0.85074766403E+01 -0.30688543054E+02  0.35663508686E+03  0.35805411464E+03  0.00000000000E+00 0. -1.
         22    1    3    3    0    0 -0.29541436182E+02  0.92488011579E+02  0.36003426228E+03  0.37289596237E+03  0.00000000000E+00 0. -1.
         22    1    3    3    0    0  0.42362650327E+02 -0.18835205855E+02  0.25179101429E+03  0.25602358094E+03  0.00000000000E+00 0. -1.
</event>
<event>
 7    1  0.5064652E-006  0.1863554E+03  0.7818608E-02  0.1265115E+00
          2   -1    0    0  502    0  0.00000000000E+00  0.00000000000E+00  0.50189905991E+03  0.50189905991E+03  0.00000000000E+00 0. -1.
          1   -1    0    0  501    0 -0.00000000000E+00 -0.00000000000E+00 -0.22400241013E+04  0.22400241013E+04  0.00000000000E+00 0. -1.
         25    2    1    2    0    0  0.13478758895E+02  0.23296901273E+03  0.16807829708E+03  0.31357866517E+03  0.12500010987E+03 0.  0.
          2    1    1    2  501    0 -0.45768304090E+02 -0.17991699601E+03 -0.21595406366E+04  0.21675056227E+04  0.00000000000E+00 0. -1.
          1    1    1    2  502    0  0.32289545195E+02 -0.53052016717E+02  0.25333729816E+03  0.26083887334E+03  0.00000000000E+00 0. -1.
         22    1    3    3    0    0  0.42333829417E+02  0.10283543211E+03  0.13746158482E+03  0.17681336632E+03  0.00000000000E+00 0. -1.
         22    1    3    3    0    0 -0.28855070522E+02  0.13013358062E+03  0.30616712262E+02  0.13676529885E+03  0.00000000000E+00 0. -1.
</event>
<event>
 7    1  0.5064652E-006  0.1123527E+03  0.7818608E-02  0.1300819E+00
          2   -1    0    0  502    0  0.00000000000E+00  0.00000000000E+00  0.29863785577E+04  0.29863785577E+04  0.00000000000E+00 0. -1.
          1   -1    0    0  501    0 -0.00000000000E+00 -0.00000000000E+00 -0.54128338478E+03  0.54128338478E+03  0.00000000000E+00 0. -1.
         25    2    1    2    0    0  0.18741779571E+02  0.14167098853E+03  0.62460000897E+03  0.65281846130E+03  0.12499939566E+03 0.  0.
          2    1    1    2  501    0  0.43899421422E+02 -0.10331021157E+03 -0.52061626846E+03  0.53258000151E+03  0.00000000000E+00 0. -1.
          1    1    1    2  502    0 -0.62641200993E+02 -0.38360776966E+02  0.23411114324E+04  0.23422634797E+04  0.00000000000E+00 0. -1.
         22    1    3    3    0    0  0.70298540858E+02  0.56186908545E+02  0.28958343030E+03  0.30324481305E+03  0.00000000000E+00 0. -1.
         22    1    3    3    0    0 -0.51556761287E+02  0.85484079988E+02  0.33501657867E+03  0.34957364825E+03  0.00000000000E+00 0. -1.
</event>
<event>
 7    1  0.5064652E-006  0.8636647E+02  0.7818608E-02  0.1423832E+00
          2   -1    0    0  502    0  0.00000000000E+00  0.00000000000E+00  0.20265835310E+04  0.20265835310E+04  0.00000000000E+00 0. -1.
          1   -1    0    0  501    0 -0.00000000000E+00 -0.00000000000E+00 -0.55327407940E+02  0.55327407940E+02  0.00000000000E+00 0. -1.
         25    2    1    2    0    0  0.11040302746E+03  0.28405483963E+02  0.83585834088E+03  0.85280870825E+03  0.12501130686E+03 0.  0.
          2    1    1    2  501    0 -0.84980297554E+02 -0.57741954497E+01 -0.76763647043E+01  0.85521452750E+02  0.00000000000E+00 0. -1.
          1    1    1    2  502    0 -0.25422729910E+02 -0.22631288514E+02  0.11430741468E+04  0.11435807779E+04  0.00000000000E+00 0. -1.
         22    1    3    3    0    0  0.66063040482E+02 -0.37422732956E+02  0.24095664743E+03  0.25263588859E+03  0.00000000000E+00 0. -1.
         22    1    3    3    0    0  0.44339986982E+02  0.65828216920E+02  0.59490169345E+03  0.60017281966E+03  0.00000000000E+00 0. -1.
</event>
<event>
 7    1  0.5064652E-006  0.7958040E+02  0.7818608E-02  0.1359135E+00
          2   -1    0    0  502    0  0.00000000000E+00  0.00000000000E+00  0.34504839264E+03  0.34504839264E+03  0.00000000000E+00 0. -1.
          1   -1    0    0  501    0 -0.00000000000E+00 -0.00000000000E+00 -0.12689466571E+04  0.12689466571E+04  0.00000000000E+00 0. -1.
         25    2    1    2    0    0  0.84506580090E+02 -0.85942189798E+02  0.94838327433E+02  0.19784106255E+03  0.12497742042E+03 0.  0.
          2    1    1    2  501    0 -0.60311246264E+02  0.14674196550E+02 -0.12094941043E+04  0.12110857801E+04  0.00000000000E+00 0. -1.
          1    1    1    2  502    0 -0.24195333826E+02  0.71267993249E+02  0.19075751237E+03  0.20506820710E+03  0.00000000000E+00 0. -1.
         22    1    3    3    0    0  0.99600903804E+02 -0.10215960600E+03  0.10104364519E+03  0.17483347326E+03  0.00000000000E+00 0. -1.
         22    1    3    3    0    0 -0.15094323714E+02  0.16217416202E+02 -0.62053177616E+01  0.23007589296E+02  0.00000000000E+00 0. -1.
</event>
<event>
 7    1  0.5064652E-006  0.9160422E+02  0.7818608E-02  0.1398214E+00
          2   -1    0    0  502    0  0.00000000000E+00  0.00000000000E+00  0.15722957267E+04  0.15722957267E+04  0.00000000000E+00 0. -1.
          1   -1    0    0  501    0 -0.00000000000E+00 -0.00000000000E+00 -0.88715171015E+02  0.88715171015E+02  0.00000000000E+00 0. -1.
         25    2    1    2    0    0  0.39471614000E+02  0.88348608868E+02  0.27838705173E+03  0.32013615792E+03  0.12499729610E+03 0.  0.
          2    1    1    2  501    0 -0.44729023370E+00 -0.91840832725E+02 -0.36305666799E+02  0.98757481063E+02  0.00000000000E+00 0. -1.
          1    1    1    2  502    0 -0.39024323766E+02  0.34922238567E+01  0.12414991708E+04  0.12421172588E+04  0.00000000000E+00 0. -1.
         22    1    3    3    0    0  0.51195323118E+01  0.10063771414E+03  0.11579606262E+03  0.15350207567E+03  0.00000000000E+00 0. -1.
         22    1    3    3    0    0  0.34352081688E+02 -0.12289105269E+02  0.16259098911E+03  0.16663408224E+03  0.00000000000E+00 0. -1.
</event>
<event>
 7    1  0.5064652E-006  0.7846831E+02  0.7818608E-02  0.1366812E+00
          2   -1    0    0  502    0  0.00000000000E+00  0.00000000000E+00  0.90231841725E+03  0.90231841725E+03  0.00000000000E+00 0. -1.
          1   -1    0    0  501    0 -0.00000000000E+00 -0.00000000000E+00 -0.14352382420E+04  0.14352382420E+04  0.00000000000E+00 0. -1.
         25    2    1    2    0    0 -0.10625997238E+03 -0.81192786827E+02  0.56006447787E+02  0.19142602286E+03  0.12499499858E+03 0.  0.
          2    1    1    2  501    0  0.51867094219E+02  0.58246590902E+02 -0.13652948946E+04  0.13675207530E+04  0.00000000000E+00 0. -1.
          1    1    1    2  502    0  0.54392878160E+02  0.22946195925E+02  0.77636862207E+03  0.77860988334E+03  0.00000000000E+00 0. -1.
         22    1    3    3    0    0 -0.79375278470E+02 -0.13043866150E+01 -0.15506463334E+02  0.80886257558E+02  0.00000000000E+00 0. -1.
         22    1    3    3    0    0 -0.26884693909E+02 -0.79888400212E+02  0.71512911121E+02  0.11053976530E+03  0.00000000000E+00 0. -1.
</event>
<event>
 7    1  0.5064652E-006  0.9999753E+02  0.7818608E-02  0.1318142E+00
          2   -1    0    0  502    0  0.00000000000E+00  0.00000000000E+00  0.20619396637E+04  0.20619396637E+04  0.00000000000E+00 0. -1.
          1   -1    0    0  501    0 -0.00000000000E+00 -0.00000000000E+00 -0.72790485165E+03  0.72790485165E+03  0.00000000000E+00 0. -1.
         25    2    1    2    0    0 -0.10712125335E+03  0.34562122084E+02  0.11910434598E+03  0.20612541375E+03  0.12502934759E+03 0.  0.
          2    1    1    2  501    0  0.13003980121E+02 -0.69305970417E+02 -0.68124832387E+03  0.68488809291E+03  0.00000000000E+00 0. -1.
          1    1    1    2  502    0  0.94117273227E+02  0.34743848333E+02  0.18961787899E+04  0.18988310087E+04  0.00000000000E+00 0. -1.
         22    1    3    3    0    0 -0.10790541912E+03  0.22485926204E+02  0.27335966887E+02  0.11356254417E+03  0.00000000000E+00 0. -1.
         22    1    3    3    0    0  0.78416576940E+00  0.12076195881E+02  0.91768379096E+02  0.92562869580E+02  0.00000000000E+00 0. -1.
</event>
<event>
 7    1  0.5064652E-006  0.1311497E+03  0.7818608E-02  0.1358281E+00
          2   -1    0    0  502    0  0.00000000000E+00  0.00000000000E+00  0.26646969823E+04  0.26646969823E+04  0.00000000000E+00 0. -1.
          1   -1    0    0  501    0 -0.00000000000E+00 -0.00000000000E+00 -0.11756353881E+03  0.11756353881E+03  0.00000000000E+00 0. -1.
         25    2    1    2    0    0  0.14751814170E+03  0.43498854418E+02  0.29673824034E+03  0.35683792553E+03  0.12500387734E+03 0.  0.
          2    1    1    2  501    0 -0.17934486196E+02 -0.33428671301E+02 -0.81506046158E+02  0.89901932239E+02  0.00000000000E+00 0. -1.
          1    1    1    2  502    0 -0.12958365550E+03 -0.10070183117E+02  0.23319012493E+04  0.23355206633E+04  0.00000000000E+00 0. -1.
         22    1    3    3    0    0  0.54378170940E+02 -0.43677682214E+02  0.89290437155E+02  0.11330272532E+03  0.00000000000E+00 0. -1.
         22    1    3    3    0    0  0.93139970757E+02  0.87176536632E+02  0.20744780318E+03  0.24353520020E+03  0.00000000000E+00 0. -1.
</event>
<event>
 7    1  0.5064652E-006  0.4316459E+02  0.7818608E-02  0.1562494E+00
          2   -1    0    0  502    0  0.00000000000E+00  0.00000000000E+00  0.29333914971E+03  0.29333914971E+03  0.00000000000E+00 0. -1.
          1   -1    0    0  501    0 -0.00000000000E+00 -0.00000000000E+00 -0.76794555330E+03  0.76794555330E+03  0.00000000000E+00 0. -1.
         25    2    1    2    0    0  0.21359939490E+02 -0.41958497935E+02 -0.44122166299E+02  0.14067323491E+03  0.12500172357E+03 0.  0.
          2    1    1    2  501    0 -0.25953306169E+02 -0.10349252410E+01 -0.67338833668E+03  0.67388908371E+03  0.00000000000E+00 0. -1.
          1    1    1    2  502    0  0.45933666784E+01  0.42993423176E+02  0.24290409939E+03  0.24672238438E+03  0.00000000000E+00 0. -1.
         22    1    3    3    0    0 -0.47499488926E+02 -0.20218401810E+02  0.71440449052E+01  0.52115473687E+02  0.00000000000E+00 0.  1.
         22    1    3    3    0    0  0.68859428416E+02 -0.21740096124E+02 -0.51266211204E+02  0.88557761221E+02  0.00000000000E+00 0.  1.
</event>
<event>
 7    1  0.5064652E-006  0.7696231E+02  0.7818608E-02  0.1501817E+00
          2   -1    0    0  502    0  0.00000000000E+00  0.00000000000E+00  0.14656709222E+04  0.14656709222E+04  0.00000000000E+00 0. -1.
          1   -1    0    0  501    0 -0.00000000000E+00 -0.00000000000E+00 -0.96946894157E+02  0.96946894157E+02  0.00000000000E+00 0. -1.
         25    2    1    2    0    0 -0.60850461958E+02 -0.70036061118E+02  0.91117704481E+03  0.92437879535E+03  0.12499888690E+03 0.  0.
          2    1    1    2  501    0  0.59540893427E+02  0.48358845813E+02 -0.73803142165E+02  0.10644528995E+03  0.00000000000E+00 0. -1.
          1    1    1    2  502    0  0.13095685310E+01  0.21677215305E+02  0.53135012539E+03  0.53179373105E+03  0.00000000000E+00 0. -1.
         22    1    3    3    0    0 -0.91846174044E+02 -0.30418844030E+02  0.72872040925E+03  0.73511527029E+03  0.00000000000E+00 0.  1.
         22    1    3    3    0    0  0.30995712087E+02 -0.39617217089E+02  0.18245663557E+03  0.18926352506E+03  0.00000000000E+00 0.  1.
</event>
<event>
 7    1  0.5064652E-006  0.1116657E+03  0.7818608E-02  0.1302792E+00
          2   -1    0    0  502    0  0.00000000000E+00  0.00000000000E+00  0.35704360226E+04  0.35704360226E+04  0.00000000000E+00 0. -1.
          1   -1    0    0  501    0 -0.00000000000E+00 -0.00000000000E+00 -0.21398263013E+03  0.21398263013E+03  0.00000000000E+00 0. -1.
         25    2    1    2    0    0  0.80497089373E+02  0.55889165739E+02  0.24703062828E+03  0.29368640455E+03  0.12499677061E+03 0.  0.
          2    1    1    2  501    0  0.32268404296E+02 -0.65009461164E+02 -0.18274060687E+03  0.19662555621E+03  0.00000000000E+00 0. -1.
          1    1    1    2  502    0 -0.11276549367E+03  0.91202954249E+01  0.32921633710E+04  0.32941066919E+04  0.00000000000E+00 0. -1.
         22    1    3    3    0    0  0.41207161415E+02 -0.20435728362E+02  0.17706518665E+03  0.18294187456E+03  0.00000000000E+00 0. -1.
         22    1    3    3    0    0  0.39289927958E+02  0.76324894101E+02  0.69965441632E+02  0.11074452998E+03  0.00000000000E+00 0. -1.
</event>
<event>
 7    1  0.5064652E-006  0.2691372E+03  0.7818608E-02  0.1222748E+00
          2   -1    0    0  502    0  0.00000000000E+00  0.00000000000E+00  0.20289895525E+04  0.20289895525E+04  0.00000000000E+00 0. -1.
          1   -1    0    0  501    0 -0.00000000000E+00 -0.00000000000E+00 -0.35690999327E+03  0.35690999327E+03  0.00000000000E+00 0. -1.
         25    2    1    2    0    0  0.25775680636E+03  0.14257806269E+03  0.79602242687E+03  0.85792940861E+03  0.12499636351E+03 0.  0.
          2    1    1    2  501    0 -0.25666461806E+03 -0.76639774058E+02 -0.26981726890E+03  0.38019960511E+03  0.00000000000E+00 0. -1.
          1    1    1    2  502    0 -0.10921882994E+01 -0.65938288628E+02  0.11458744012E+04  0.11477705320E+04  0.00000000000E+00 0. -1.
         22    1    3    3    0    0  0.11081583899E+03  0.14593608958E+02  0.18056405200E+03  0.21235936633E+03  0.00000000000E+00 0. -1.
         22    1    3    3    0    0  0.14694096736E+03  0.12798445373E+03  0.61545837487E+03  0.64557004228E+03  0.00000000000E+00 0. -1.
</event>
<event>
 7    1  0.5064652E-006  0.1074824E+03  0.7818608E-02  0.1382579E+00
          2   -1    0    0  502    0  0.00000000000E+00  0.00000000000E+00  0.25995888309E+03  0.25995888309E+03  0.00000000000E+00 0. -1.
          1   -1    0    0  501    0 -0.00000000000E+00 -0.00000000000E+00 -0.76290645315E+03  0.76290645315E+03  0.00000000000E+00 0. -1.
         25    2    1    2    0    0 -0.63808901053E+02 -0.60163315941E+02 -0.40279304347E+03  0.43076399915E+03  0.12499674661E+03 0.  0.
          2    1    1    2  501    0  0.79017386360E+02  0.94833916863E+02 -0.33354837120E+03  0.35565676580E+03  0.00000000000E+00 0. -1.
          1    1    1    2  502    0 -0.15208485308E+02 -0.34670600922E+02  0.23339384460E+03  0.23644457129E+03  0.00000000000E+00 0. -1.
         22    1    3    3    0    0 -0.94219260650E+02 -0.65416335312E+02 -0.25244728222E+03  0.27728360266E+03  0.00000000000E+00 0. -1.
         22    1    3    3    0    0  0.30410359598E+02  0.52530193709E+01 -0.15034576125E+03  0.15348039649E+03  0.00000000000E+00 0. -1.
</event>
<event>
 7    1  0.5064652E-006  0.1144330E+03  0.7818608E-02  0.1328672E+00
          2   -1    0    0  502    0  0.00000000000E+00  0.00000000000E+00  0.74249441139E+03  0.74249441139E+03  0.00000000000E+00 0. -1.
          1   -1    0    0  501    0 -0.00000000000E+00 -0.00000000000E+00 -0.30325490068E+03  0.30325490068E+03  0.00000000000E+00 0. -1.
         25    2    1    2    0    0 -0.83141804026E+02 -0.54422108749E+02 -0.26191199045E+02  0.16182103061E+03  0.12500296614E+03 0.  0.
          2    1    1    2  501    0  0.29019766081E+02 -0.48029134478E+02 -0.20039108738E+03  0.20809981375E+03  0.00000000000E+00 0. -1.
          1    1    1    2  502    0  0.54122037945E+02  0.10245124323E+03  0.66582179713E+03  0.67582846771E+03  0.00000000000E+00 0. -1.
         22    1    3    3    0    0  0.84449626570E+01  0.11970464574E+02  0.31572951993E+02  0.34806044216E+02  0.00000000000E+00 0. -1.
         22    1    3    3    0    0 -0.91586766683E+02 -0.66392573323E+02 -0.57764151038E+02  0.12701498640E+03  0.00000000000E+00 0. -1.
</event>
<event>
 7    1  0.5064652E-006  0.1445386E+03  0.7818608E-02  0.1341156E+00
          2   -1    0    0  502    0  0.00000000000E+00  0.00000000000E+00  0.13240467499E+03  0.13240467499E+03  0.00000000000E+00 0. -1.
          1   -1    0    0  501    0 -0.00000000000E+00 -0.00000000000E+00 -0.53389735032E+03  0.53389735032E+03  0.00000000000E+00 0. -1.
         25    2    1    2    0    0 -0.10626219750E+03 -0.10853038711E+03 -0.37239580503E+03  0.42115675762E+03  0.12499551728E+03 0.  0.
          2    1    1    2  501    0  0.67728255202E+02  0.11864630933E+03 -0.96212771377E+02  0.16709566316E+03  0.00000000000E+00 0. -1.
          1    1    1    2  502    0  0.38533942300E+02 -0.10115922222E+02  0.67115901077E+02  0.78049604540E+02  0.00000000000E+00 0. -1.
         22    1    3    3    0    0 -0.11502731258E+03 -0.73492959779E+02 -0.18274212826E+03  0.22809468038E+03  0.00000000000E+00 0. -1.
         22    1    3    3    0    0  0.87651150768E+01 -0.35037427326E+02 -0.18965367677E+03  0.19306207724E+03  0.00000000000E+00 0. -1.
</event>
<event>
 7    1  0.5064652E-006  0.1017928E+03  0.7818608E-02  0.1387200E+00
          2   -1    0    0  502    0  0.00000000000E+00  0.00000000000E+00  0.18057758736E+03  0.18057758736E+03  0.00000000000E+00 0. -1.
          1   -1    0    0  501    0 -0.00000000000E+00 -0.00000000000E+00 -0.24363436217E+04  0.24363436217E+04  0.00000000000E+00 0. -1.
         25    2    1    2    0    0  0.52523760195E+02 -0.63579572875E+02 -0.18428770228E+03  0.23746253608E+03  0.12500156542E+03 0.  0.
          2    1    1    2  501    0  0.36920694760E+02  0.10941966456E+02 -0.22077949647E+04  0.22081307639E+04  0.00000000000E+00 0. -1.
          1    1    1    2  502    0 -0.89444454955E+02  0.52637606419E+02  0.13631663258E+03  0.17132790914E+03  0.00000000000E+00 0. -1.
         22    1    3    3    0    0 -0.39862349681E+02 -0.34793577061E+02 -0.61540856226E+02  0.81159576833E+02  0.00000000000E+00 0. -1.
         22    1    3    3    0    0  0.92386109876E+02 -0.28785995814E+02 -0.12274684605E+03  0.15630295925E+03  0.00000000000E+00 0. -1.
</event>
<event>
 7    1  0.5064652E-006  0.8070809E+02  0.7818608E-02  0.1425705E+00
          2   -1    0    0  502    0  0.00000000000E+00  0.00000000000E+00  0.50937018814E+03  0.50937018814E+03  0.00000000000E+00 0. -1.
          1   -1    0    0  501    0 -0.00000000000E+00 -0.00000000000E+00 -0.12009683774E+04  0.12009683774E+04  0.00000000000E+00 0. -1.
         25    2    1    2    0    0 -0.11683121135E+02  0.10164307719E+03  0.27014414476E+03  0.31475351856E+03  0.12499643208E+03 0.  0.
          2    1    1    2  501    0 -0.16420856062E+02 -0.31930578377E+02 -0.11718692674E+04  0.11724192025E+04  0.00000000000E+00 0. -1.
          1    1    1    2  502    0  0.28103977196E+02 -0.69712498811E+02  0.21012693340E+03  0.22316584453E+03  0.00000000000E+00 0. -1.
         22    1    3    3    0    0  0.11081123524E+02 -0.22643415694E+02  0.13278695188E+02  0.28492794155E+02  0.00000000000E+00 0.  1.
         22    1    3    3    0    0 -0.22764244659E+02  0.12428649288E+03  0.25686544958E+03  0.28626072440E+03  0.00000000000E+00 0.  1.
</event>
<event>
 7    1  0.5064652E-006  0.6532745E+02  0.7818608E-02  0.1472703E+00
          2   -1    0    0  502    0  0.00000000000E+00  0.00000000000E+00  0.31649030771E+03  0.31649030771E+03  0.00000000000E+00 0. -1.
          1   -1    0    0  501    0 -0.00000000000E+00 -0.00000000000E+00 -0.12963870770E+04  0.12963870770E+04  0.00000000000E+00 0. -1.
         25    2    1    2    0    0 -0.32254435423E+02  0.12407884396E+02  0.17676666562E+03  0.21924001189E+03  0.12500169815E+03 0.  0.
          2    1    1    2  501    0  0.58062116610E+02 -0.30227300704E+02 -0.12722188379E+04  0.12739017508E+04  0.00000000000E+00 0. -1.
          1    1    1    2  502    0 -0.25807681187E+02  0.17819416309E+02  0.11555540304E+03  0.11973562201E+03  0.00000000000E+00 0. -1.
         22    1    3    3    0    0 -0.12178608181E+02  0.47129633294E+02  0.12651458661E+02  0.50294932527E+02  0.00000000000E+00 0. -1.
         22    1    3    3    0    0 -0.20075827242E+02 -0.34721748898E+02  0.16411520696E+03  0.16894507936E+03  0.00000000000E+00 0. -1.
</event>
<event>
 7    1  0.5064652E-006  0.7302772E+02  0.7818608E-02  0.1365245E+00
          2   -1    0    0  502    0  0.00000000000E+00  0.00000000000E+00  0.46580211921E+03  0.46580211921E+03  0.00000000000E+00 0. -1.
          1   -1    0    0  501    0 -0.00000000000E+00 -0.00000000000E+00 -0.12855765593E+04  0.12855765593E+04  0.00000000000E+00 0. -1.
         25    2    1    2    0    0 -0.10025059300E+03  0.10654281929E+02 -0.53903946388E+02  0.16939705685E+03  0.12500412918E+03 0.  0.
          2    1    1    2  501    0  0.39416550618E+02 -0.50759085253E+02 -0.11697842749E+04  0.11715482914E+04  0.00000000000E+00 0. -1.
          1    1    1    2  502    0  0.60834042383E+02  0.40104803324E+02  0.40391378120E+03  0.41043333028E+03  0.00000000000E+00 0. -1.
         22    1    3    3    0    0 -0.89825502950E+02 -0.12789361969E+02  0.18485387575E+02  0.92595347148E+02  0.00000000000E+00 0. -1.
         22    1    3    3    0    0 -0.10425090052E+02  0.23443643898E+02 -0.72389333963E+02  0.76801709703E+02  0.00000000000E+00 0. -1.
</event>
<event>
 7    1  0.5064652E-006  0.2474499E+03  0.7818608E-02  0.1300061E+00
          2   -1    0    0  502    0  0.00000000000E+00  0.00000000000E+00  0.30162850423E+03  0.30162850423E+03  0.00000000000E+00 0. -1.
          1   -1    0    0  501    0 -0.00000000000E+00 -0.00000000000E+00 -0.16142832138E+04  0.16142832138E+04  0.00000000000E+00 0. -1.
         25    2    1    2    0    0  0.26882933576E+03  0.37600692429E+02 -0.67460133496E+03  0.73783111705E+03  0.12499908928E+03 0.  0.
          2    1    1    2  501    0 -0.29246102274E+02  0.16510752948E+02 -0.85181093172E+03  0.85247275784E+03  0.00000000000E+00 0. -1.
          1    1    1    2  502    0 -0.23958323348E+03 -0.54111445377E+02  0.21375755711E+03  0.32560784313E+03  0.00000000000E+00 0. -1.
         22    1    3    3    0    0  0.26081897653E+03  0.61601578522E+02 -0.64742232180E+03  0.70069747806E+03  0.00000000000E+00 0. -1.
         22    1    3    3    0    0  0.80103592234E+01 -0.24000886093E+02 -0.27179013164E+02  0.37133638991E+02  0.00000000000E+00 0. -1.
</event>
<event>
 7    1  0.5064652E-006  0.4258235E+02  0.7818608E-02  0.1573637E+00
          2   -1    0    0  502    0  0.00000000000E+00  0.00000000000E+00  0.42771099857E+02  0.42771099857E+02  0.00000000000E+00 0. -1.
          1   -1    0    0  501    0 -0.00000000000E+00 -0.00000000000E+00 -0.11999965963E+04  0.11999965963E+04  0.00000000000E+00 0. -1.
         25    2    1    2    0    0  0.26749349671E+01  0.18835966342E+02 -0.15145516673E+03  0.19729524196E+03  0.12499918426E+03 0.  0.
          2    1    1    2  501    0  0.15023870796E+01 -0.43029905500E+02 -0.10173963551E+04  0.10183070133E+04  0.00000000000E+00 0. -1.
          1    1    1    2  502    0 -0.41773220466E+01  0.24193939157E+02  0.11626025417E+02  0.27165440884E+02  0.00000000000E+00 0. -1.
         22    1    3    3    0    0  0.52233087793E+01  0.61300197256E+02 -0.14048084172E+03  0.15336187280E+03  0.00000000000E+00 0.  1.
         22    1    3    3    0    0 -0.25483738123E+01 -0.42464230914E+02 -0.10974325011E+02  0.43933369159E+02  0.00000000000E+00 0.  1.
</event>
<event>
 7    1  0.5064652E-006  0.5019357E+02  0.7818608E-02  0.1521565E+00
          2   -1    0    0  502    0  0.00000000000E+00  0.00000000000E+00  0.63379015087E+02  0.63379015087E+02  0.00000000000E+00 0. -1.
          1   -1    0    0  501    0 -0.00000000000E+00 -0.00000000000E+00 -0.14091824111E+04  0.14091824111E+04  0.00000000000E+00 0. -1.
         25    2    1    2    0    0  0.33380512531E+02 -0.49095169802E+02 -0.57986690038E+03  0.59614830286E+03  0.12499032974E+03 0.  0.
          2    1    1    2  501    0  0.11530860434E+02  0.26756721308E+02 -0.80947124182E+03  0.80999541616E+03  0.00000000000E+00 0. -1.
          1    1    1    2  502    0 -0.44911372965E+02  0.22338448493E+02  0.43534746171E+02  0.66417707178E+02  0.00000000000E+00 0. -1.
         22    1    3    3    0    0  0.27942790136E+02  0.19706530570E+02 -0.43357097577E+02  0.55217612932E+02  0.00000000000E+00 0.  1.
         22    1    3    3    0    0  0.54377223951E+01 -0.68801700372E+02 -0.53650980280E+03  0.54093068992E+03  0.00000000000E+00 0.  1.
</event>
<event>
 7    1  0.5064652E-006  0.4066264E+02  0.7818608E-02  0.1523054E+00
          2   -1    0    0  502    0  0.00000000000E+00  0.00000000000E+00  0.14827120845E+03  0.14827120845E+03  0.00000000000E+00 0. -1.
          1   -1    0    0  501    0 -0.00000000000E+00 -0.00000000000E+00 -0.98991267706E+03  0.98991267706E+03  0.00000000000E+00 0. -1.
         25    2    1    2    0    0  0.90860136605E-01 -0.90654216579E+01 -0.34676846534E+03  0.36872040961E+03  0.12499672710E+03 0.  0.
          2    1    1    2  501    0 -0.30507594672E+02 -0.18366593116E+02 -0.62859817472E+03  0.62960599611E+03  0.00000000000E+00 0. -1.
          1    1    1    2  502    0  0.30416734535E+02  0.27432014774E+02  0.13372517145E+03  0.13985747979E+03  0.00000000000E+00 0. -1.
         22    1    3    3    0    0  0.51840332570E+02 -0.80997022535E+01 -0.27657308722E+03  0.28150612396E+03  0.00000000000E+00 0.  1.
         22    1    3    3    0    0 -0.51749472433E+02 -0.96571940437E+00 -0.70195378124E+02  0.87214285648E+02  0.00000000000E+00 0.  1.
</event>
<event>
 7    1  0.5064652E-006  0.3713644E+02  0.7818608E-02  0.1599028E+00
          2   -1    0    0  502    0  0.00000000000E+00  0.00000000000E+00  0.20731891238E+04  0.20731891238E+04  0.00000000000E+00 0. -1.
          1   -1    0    0  501    0 -0.00000000000E+00 -0.00000000000E+00 -0.90864727974E+02  0.90864727974E+02  0.00000000000E+00 0. -1.
         25    2    1    2    0    0 -0.39786569755E+02 -0.71956724241E+01  0.14849411495E+03  0.19827389463E+03  0.12500914480E+03 0.  0.
          2    1    1    2  501    0  0.62729449534E+01  0.23267336895E+02 -0.63586218195E+02  0.67999455505E+02  0.00000000000E+00 0. -1.
          1    1    1    2  502    0  0.33513624802E+02 -0.16071664471E+02  0.18974164990E+04  0.18977805016E+04  0.00000000000E+00 0. -1.
         22    1    3    3    0    0 -0.49626778509E+02  0.48583292504E+02  0.53463552060E+02  0.87644194643E+02  0.00000000000E+00 0.  1.
         22    1    3    3    0    0  0.98402087534E+01 -0.55778964928E+02  0.95030562888E+02  0.11062969999E+03  0.00000000000E+00 0.  1.
</event>
<event>
 7    1  0.5064652E-006  0.8933010E+02  0.7818608E-02  0.1337867E+00
          2   -1    0    0  502    0  0.00000000000E+00  0.00000000000E+00  0.21453888066E+04  0.21453888066E+04  0.00000000000E+00 0. -1.
          1   -1    0    0  501    0 -0.00000000000E+00 -0.00000000000E+00 -0.90258807985E+03  0.90258807985E+03  0.00000000000E+00 0. -1.
         25    2    1    2    0    0  0.84431285093E+02  0.44697903660E+02  0.26798964320E+03  0.31075737325E+03  0.12500060669E+03 0.  0.
          2    1    1    2  501    0 -0.30962618278E+02 -0.83943177220E+02 -0.87833833352E+03  0.88288355340E+03  0.00000000000E+00 0. -1.
          1    1    1    2  502    0 -0.53468666815E+02  0.39245273560E+02  0.18531494171E+04  0.18543359598E+04  0.00000000000E+00 0. -1.
         22    1    3    3    0    0 -0.10573166476E+02  0.18906743814E+02  0.17166945388E+03  0.17303080133E+03  0.00000000000E+00 0.  1.
         22    1    3    3    0    0  0.95004451569E+02  0.25791159846E+02  0.96320189313E+02  0.13772657192E+03  0.00000000000E+00 0.  1.
</event>
<event>
 7    1  0.5064652E-006  0.7347293E+02  0.7818608E-02  0.1377920E+00
          2   -1    0    0  502    0  0.00000000000E+00  0.00000000000E+00  0.48152086749E+03  0.48152086749E+03  0.00000000000E+00 0. -1.
          1   -1    0    0  501    0 -0.00000000000E+00 -0.00000000000E+00 -0.90298472198E+02  0.90298472198E+02  0.00000000000E+00 0. -1.
         25    2    1    2    0    0  0.71516590548E+01  0.79510012516E+01  0.37593420557E+02  0.13096624237E+03  0.12499810688E+03 0.  0.
          2    1    1    2  501    0 -0.80029030563E+02 -0.17286970029E+02  0.22825664866E+01  0.81906624735E+02  0.00000000000E+00 0. -1.
          1    1    1    2  502    0  0.72877371508E+02  0.93359687775E+01  0.35134640825E+03  0.35894647259E+03  0.00000000000E+00 0. -1.
         22    1    3    3    0    0  0.28503989002E+02  0.18724025890E+02 -0.38365015933E+02  0.51331676206E+02  0.00000000000E+00 0.  1.
         22    1    3    3    0    0 -0.21352329947E+02 -0.10773024639E+02  0.75958436489E+02  0.79634566163E+02  0.00000000000E+00 0.  1.
</event>
<event>
 7    1  0.5064652E-006  0.7851959E+02  0.7818608E-02  0.1367631E+00
          2   -1    0    0  502    0  0.00000000000E+00  0.00000000000E+00  0.17037006962E+03  0.17037006962E+03  0.00000000000E+00 0. -1.
          1   -1    0    0  501    0 -0.00000000000E+00 -0.00000000000E+00 -0.15390348278E+04  0.15390348278E+04  0.00000000000E+00 0. -1.
         25    2    1    2    0    0  0.35076600957E+02 -0.86441487833E+02 -0.94856592828E+03  0.96130367574E+03  0.12499975177E+03 0.  0.
          2    1    1    2  501    0  0.22382903155E+02  0.74955906446E+02 -0.57613708835E+03  0.58142353482E+03  0.00000000000E+00 0. -1.
          1    1    1    2  502    0 -0.57459504112E+02  0.11485581388E+02  0.15603825846E+03  0.16667768686E+03  0.00000000000E+00 0. -1.
         22    1    3    3    0    0  0.72805996056E+02 -0.92525831891E+02 -0.72264533055E+03  0.73217348791E+03  0.00000000000E+00 0. -1.
         22    1    3    3    0    0 -0.37729395099E+02  0.60843440575E+01 -0.22592059773E+03  0.22913018783E+03  0.00000000000E+00 0. -1.
</event>
<event>
 7    1  0.5064652E-006  0.1502207E+03  0.7818608E-02  0.1292623E+00
          2   -1    0    0  502    0  0.00000000000E+00  0.00000000000E+00  0.99120974993E+03  0.99120974993E+03  0.00000000000E+00 0. -1.
          1   -1    0    0  501    0 -0.00000000000E+00 -0.00000000000E+00 -0.15321450428E+03  0.15321450428E+03  0.00000000000E+00 0. -1.
         25    2    1    2    0    0  0.36485641924E+02 -0.16152991217E+03  0.63646132618E+03  0.66942584080E+03  0.12499928809E+03 0.  0.
          2    1    1    2  501    0  0.21305765857E+02  0.14836527867E+03 -0.91780570495E+02  0.17575512708E+03  0.00000000000E+00 0. -1.
          1    1    1    2  502    0 -0.57791407781E+02  0.13164633504E+02  0.29331448997E+03  0.29924328633E+03  0.00000000000E+00 0. -1.
         22    1    3    3    0    0  0.33363061457E+02 -0.14080641421E+02  0.29846953707E+03  0.30065831585E+03  0.00000000000E+00 0.  1.
         22    1    3    3    0    0  0.31225804672E+01 -0.14744927075E+03  0.33799178911E+03  0.36876752495E+03  0.00000000000E+00 0.  1.
</event>
<event>
 7    1  0.5064652E-006  0.1278137E+03  0.7818608E-02  0.1310347E+00
          2   -1    0    0  502    0  0.00000000000E+00  0.00000000000E+00  0.65565606271E+03  0.65565606271E+03  0.00000000000E+00 0. -1.
          1   -1    0    0  501    0 -0.00000000000E+00 -0.00000000000E+00 -0.50300327568E+03  0.50300327568E+03  0.00000000000E+00 0. -1.
         25    2    1    2    0    0  0.83507469647E+02  0.11471286411E+03 -0.42433999755E+03  0.46456596156E+03  0.12499824174E+03 0.  0.
          2    1    1    2  501    0 -0.84750035609E+02 -0.55540769191E+02 -0.12088443953E+02  0.10204644068E+03  0.00000000000E+00 0. -1.
          1    1    1    2  502    0  0.12425659622E+01 -0.59172094920E+02  0.58908122854E+03  0.59204693615E+03  0.00000000000E+00 0. -1.
         22    1    3    3    0    0  0.44541970576E+02  0.12446250368E+03 -0.22282307866E+03  0.25908497901E+03  0.00000000000E+00 0. -1.
         22    1    3    3    0    0  0.38965499071E+02 -0.97496395706E+01 -0.20151691889E+03  0.20548098254E+03  0.00000000000E+00 0. -1.
</event>
<event>
 7    1  0.5064652E-006  0.1604252E+03  0.7818608E-02  0.1336684E+00
          2   -1    0    0  502    0  0.00000000000E+00  0.00000000000E+00  0.88442406438E+02  0.88442406438E+02  0.00000000000E+00 0. -1.
          1   -1    0    0  501    0 -0.00000000000E+00 -0.00000000000E+00 -0.17578776822E+04  0.17578776822E+04  0.00000000000E+00 0. -1.
         25    2    1    2    0    0  0.98745447426E+01 -0.13395354726E+03 -0.49906313804E+03  0.53172318050E+03  0.12499786187E+03 0.  0.
          2    1    1    2  501    0  0.24873313314E+02 -0.27815359009E+02 -0.11468705684E+04  0.11474774406E+04  0.00000000000E+00 0. -1.
          1    1    1    2  502    0 -0.34747858056E+02  0.16176890626E+03 -0.23501569278E+02  0.16711946754E+03  0.00000000000E+00 0. -1.
         22    1    3    3    0    0 -0.73633742594E+01 -0.85319968116E+02 -0.45755938721E+03  0.46550435988E+03  0.00000000000E+00 0. -1.
         22    1    3    3    0    0  0.17237919002E+02 -0.48633579140E+02 -0.41503750829E+02  0.66218820621E+02  0.00000000000E+00 0. -1.
</event>
<event>
 7    1  0.5064652E-006  0.7294185E+02  0.7818608E-02  0.1445604E+00
          2   -1    0    0  502    0  0.00000000000E+00  0.00000000000E+00  0.36439832235E+04  0.36439832235E+04  0.00000000000E+00 0. -1.
          1   -1    0    0  501    0 -0.00000000000E+00 -0.00000000000E+00 -0.16879921901E+03  0.16879921901E+03  0.00000000000E+00 0. -1.
         25    2    1    2    0    0  0.81262819038E+02  0.44086376211E+02  0.67576343217E+03  0.69341836570E+03  0.12500223722E+03 0.  0.
          2    1    1    2  501    0 -0.99462604444E+01 -0.32729389635E+02 -0.15769720854E+03  0.16136465110E+03  0.00000000000E+00 0. -1.
          1    1    1    2  502    0 -0.71316558594E+02 -0.11356986575E+02  0.29571177808E+04  0.29579994257E+04  0.00000000000E+00 0. -1.
         22    1    3    3    0    0  0.70480598452E+02  0.48174093359E+02  0.19929489182E+03  0.21681031326E+03  0.00000000000E+00 0.  1.
         22    1    3    3    0    0  0.10782220586E+02 -0.40877171489E+01  0.47646854035E+03  0.47660805245E+03  0.00000000000E+00 0.  1.
</event>
<event>
 7    1  0.5064652E-006  0.1115134E+03  0.7818608E-02  0.1383553E+00
          2   -1    0    0  502    0  0.00000000000E+00  0.00000000000E+00  0.11223130655E+04  0.11223130655E+04  0.00000000000E+00 0. -1.
          1   -1    0    0  501    0 -0.00000000000E+00 -0.00000000000E+00 -0.24354727593E+03  0.24354727593E+03  0.00000000000E+00 0. -1.
         25    2    1    2    0    0  0.77505278479E+02  0.94255922327E+02  0.17390561571E+03  0.24649597741E+03  0.12500342642E+03 0.  0.
          2    1    1    2  501    0 -0.35224701186E+02  0.83620334793E+01 -0.20226260167E+03  0.20547715983E+03  0.00000000000E+00 0. -1.
          1    1    1    2  502    0 -0.42280577293E+02 -0.10261795581E+03  0.90712277552E+03  0.91388720417E+03  0.00000000000E+00 0. -1.
         22    1    3    3    0    0  0.93992994272E+02  0.16942345220E+02  0.90375136877E+02  0.13148913035E+03  0.00000000000E+00 0.  1.
         22    1    3    3    0    0 -0.16487715793E+02  0.77313577107E+02  0.83530478836E+02  0.11500684706E+03  0.00000000000E+00 0.  1.
</event>
<event>
 7    1  0.5064652E-006  0.5771864E+02  0.7818608E-02  0.1418706E+00
          2   -1    0    0  502    0  0.00000000000E+00  0.00000000000E+00  0.13352839493E+03  0.13352839493E+03  0.00000000000E+00 0. -1.
          1   -1    0    0  501    0 -0.00000000000E+00 -0.00000000000E+00 -0.24859862946E+04  0.24859862946E+04  0.00000000000E+00 0. -1.
         25    2    1    2    0    0 -0.66506438355E+00  0.28591966303E+02 -0.66804965470E+03  0.68024348148E+03  0.12499164018E+03 0.  0.
          2    1    1    2  501    0 -0.52177373603E+02 -0.32326857110E+02 -0.18057902162E+04  0.18068330882E+04  0.00000000000E+00 0. -1.
          1    1    1    2  502    0  0.52842437987E+02  0.37348908076E+01  0.12138197115E+03  0.13243811982E+03  0.00000000000E+00 0. -1.
         22    1    3    3    0    0  0.55290096447E+01  0.53958022567E+02 -0.63854226690E+03  0.64084184068E+03  0.00000000000E+00 0. -1.
         22    1    3    3    0    0 -0.61940740283E+01 -0.25366056264E+02 -0.29507387792E+02  0.39401640801E+02  0.00000000000E+00 0. -1.
</event>
<event>
 7    1  0.5064652E-006  0.5974753E+02  0.7818608E-02  0.1525648E+00
          2   -1    0    0  502    0  0.00000000000E+00  0.00000000000E+00  0.49902741544E+02  0.49902741544E+02  0.00000000000E+00 0. -1.
          1   -1    0    0  501    0 -0.00000000000E+00 -0.00000000000E+00 -0.50216365364E+03  0.50216365364E+03  0.00000000000E+00 0. -1.
         25    2    1    2    0    0  0.32999603115E+02  0.29989583894E+02 -0.26758612650E+03  0.29868955663E+03  0.12499906878E+03 0.  0.
          2    1    1    2  501    0 -0.56783365422E+02 -0.31313813189E+02 -0.20930043194E+03  0.21911544057E+03  0.00000000000E+00 0. -1.
          1    1    1    2  502    0  0.23783762308E+02  0.13242292946E+01  0.24625646357E+02  0.34261397975E+02  0.00000000000E+00 0. -1.
         22    1    3    3    0    0 -0.13367079362E+02  0.56194593719E+01  0.90799157811E+01  0.17108536025E+02  0.00000000000E+00 0.  1.
         22    1    3    3    0    0  0.46366682477E+02  0.24370124522E+02 -0.27666604229E+03  0.28158102061E+03  0.00000000000E+00 0.  1.
</event>
<event>
 7    1  0.5064652E-006  0.3846008E+02  0.7818608E-02  0.1540463E+00
          2   -1    0    0  502    0  0.00000000000E+00  0.00000000000E+00  0.23853692777E+04  0.23853692777E+04  0.00000000000E+00 0. -1.
          1   -1    0    0  501    0 -0.00000000000E+00 -0.00000000000E+00 -0.14282224948E+02  0.14282224948E+02  0.00000000000E+00 0. -1.
         25    2    1    2    0    0 -0.22005881504E+02 -0.46253932785E+02  0.61919198697E+03  0.63375653526E+03  0.12499977653E+03 0.  0.
          2    1    1    2  501    0  0.35132748518E+02  0.15353528516E+02  0.46936602867E+02  0.60605986049E+02  0.00000000000E+00 0. -1.
          1    1    1    2  502    0 -0.13126867014E+02  0.30900404269E+02  0.17049584629E+04  0.17052889814E+04  0.00000000000E+00 0. -1.
         22    1    3    3    0    0  0.30858759012E+02 -0.63567917921E+02  0.45359402169E+03  0.45906500598E+03  0.00000000000E+00 0.  1.
         22    1    3    3    0    0 -0.52864640515E+02  0.17313985136E+02  0.16559796528E+03  0.17469152928E+03  0.00000000000E+00 0.  1.
</event>
<event>
 7    1  0.5064652E-006  0.2421690E+02  0.7818608E-02  0.1691676E+00
          2   -1    0    0  502    0  0.00000000000E+00  0.00000000000E+00  0.20179828953E+02  0.20179828953E+02  0.00000000000E+00 0. -1.
          1   -1    0    0  501    0 -0.00000000000E+00 -0.00000000000E+00 -0.12119698335E+04  0.12119698335E+04  0.00000000000E+00 0. -1.
         25    2    1    2    0    0  0.18554877731E+02 -0.88622530069E+01 -0.28498976301E+03  0.31187623222E+03  0.12499918474E+03 0.  0.
          2    1    1    2  501    0  0.31980486030E+01  0.21589294853E+02 -0.88935349252E+03  0.88962124516E+03  0.00000000000E+00 0. -1.
          1    1    1    2  502    0 -0.21752926334E+02 -0.12727041846E+02 -0.17446748982E+02  0.30652185049E+02  0.00000000000E+00 0. -1.
         22    1    3    3    0    0  0.53222630687E+02 -0.16712980683E+02 -0.26558188975E+03  0.27137743514E+03  0.00000000000E+00 0. -1.
         22    1    3    3    0    0 -0.34667752955E+02  0.78507276761E+01 -0.19407873258E+02  0.40498797074E+02  0.00000000000E+00 0. -1.
</event>
<event>
 7    1  0.5064652E-006  0.1658371E+03  0.7818608E-02  0.1234221E+00
          2   -1    0    0  502    0  0.00000000000E+00  0.00000000000E+00  0.29442137593E+04  0.29442137593E+04  0.00000000000E+00 0. -1.
          1   -1    0    0  501    0 -0.00000000000E+00 -0.00000000000E+00 -0.92075129214E+02  0.92075129214E+02  0.00000000000E+00 0. -1.
         25    2    1    2    0    0 -0.23902572919E+02 -0.72802443256E+02  0.14018126537E+04  0.14094590269E+04  0.12499801513E+03 0.  0.
          2    1    1    2  501    0  0.40121401000E+02  0.16644937673E+03 -0.21674830232E+01  0.17123031220E+03  0.00000000000E+00 0. -1.
          1    1    1    2  502    0 -0.16218828082E+02 -0.93646933479E+02  0.14524934594E+04  0.14555995494E+04  0.00000000000E+00 0. -1.
         22    1    3    3    0    0 -0.66789267781E+02 -0.76812206310E+02  0.10777978030E+04  0.10825936566E+04  0.00000000000E+00 0.  1.
         22    1    3    3    0    0  0.42886694863E+02  0.40097630539E+01  0.32401485072E+03  0.32686537027E+03  0.00000000000E+00 0.  1.
</event>
<event>
 7    1  0.5064652E-006  0.9044460E+02  0.7818608E-02  0.1336677E+00
          2   -1    0    0  502    0  0.00000000000E+00  0.00000000000E+00  0.35766255057E+03  0.35766255057E+03  0.00000000000E+00 0. -1.
          1   -1    0    0  501    0 -0.00000000000E+00 -0.00000000000E+00 -0.16720826156E+04  0.16720826156E+04  0.00000000000E+00 0. -1.
         25    2    1    2    0    0 -0.37873105754E+02  0.96691964178E+01 -0.76914860703E+01  0.13119643256E+03  0.12500191782E+03 0.  0.
          2    1    1    2  501    0  0.83240197168E+02  0.38527749097E+02 -0.15976052665E+04  0.16002362030E+04  0.00000000000E+00 0. -1.
          1    1    1    2  502    0 -0.45367091414E+02 -0.48196945515E+02  0.29087668756E+03  0.29831253059E+03  0.00000000000E+00 0. -1.
         22    1    3    3    0    0 -0.30807946325E+02  0.66709851912E+02 -0.52701689199E+01  0.73668911892E+02  0.00000000000E+00 0. -1.
         22    1    3    3    0    0 -0.70651594293E+01 -0.57040655494E+02 -0.24213171504E+01  0.57527520663E+02  0.00000000000E+00 0. -1.
</event>
<event>
 7    1  0.5064652E-006  0.1071104E+03  0.7818608E-02  0.1280845E+00
          2   -1    0    0  502    0  0.00000000000E+00  0.00000000000E+00  0.31004181608E+04  0.31004181608E+04  0.00000000000E+00 0. -1.
          1   -1    0    0  501    0 -0.00000000000E+00 -0.00000000000E+00 -0.45447583363E+03  0.45447583363E+03  0.00000000000E+00 0. -1.
         25    2    1    2    0    0 -0.12725755347E+03  0.91018327483E+02 -0.83559772239E+02  0.21699139444E+03  0.12499683545E+03 0.  0.
          2    1    1    2  501    0  0.10370718664E+03 -0.11779843385E+01 -0.29462652301E+03  0.31234813313E+03  0.00000000000E+00 0. -1.
          1    1    1    2  502    0  0.23550366830E+02 -0.89840343145E+02  0.30241286224E+04  0.30255544668E+04  0.00000000000E+00 0. -1.
         22    1    3    3    0    0 -0.54105024080E+02  0.10758600347E+03 -0.74089246866E+02  0.14139065837E+03  0.00000000000E+00 0.  1.
         22    1    3    3    0    0 -0.73152529387E+02 -0.16567675985E+02 -0.94705253723E+01  0.75600736068E+02  0.00000000000E+00 0.  1.
</event>
<event>
 7    1  0.5064652E-006  0.8454181E+02  0.7818608E-02  0.1340650E+00
          2   -1    0    0  502    0  0.00000000000E+00  0.00000000000E+00  0.51802807434E+03  0.51802807434E+03  0.00000000000E+00 0. -1.
          1   -1    0    0  501    0 -0.00000000000E+00 -0.00000000000E+00 -0.54336947549E+03  0.54336947549E+03  0.00000000000E+00 0. -1.
         25    2    1    2    0    0  0.24281367931E+02  0.10538456762E+02 -0.78964366527E+02  0.15020206486E+03  0.12499858082E+03 0.  0.
          2    1    1    2  501    0 -0.92647396274E+02 -0.80593170580E+01 -0.42126371726E+03  0.43140655084E+03  0.00000000000E+00 0. -1.
          1    1    1    2  502    0  0.68366028343E+02 -0.24791397039E+01  0.47488668264E+03  0.47978893413E+03  0.00000000000E+00 0. -1.
         22    1    3    3    0    0  0.35055232384E+02 -0.31773277388E+02  0.12426956981E+02  0.48916661101E+02  0.00000000000E+00 0. -1.
         22    1    3    3    0    0 -0.10773864453E+02  0.42311734150E+02 -0.91391323508E+02  0.10128540376E+03  0.00000000000E+00 0. -1.
</event>
<event>
 7    1  0.5064652E-006  0.5599816E+02  0.7818608E-02  0.1554035E+00
          2   -1    0    0  502    0  0.00000000000E+00  0.00000000000E+00  0.83657139698E+03  0.83657139698E+03  0.00000000000E+00 0. -1.
          1   -1    0    0  501    0 -0.00000000000E+00 -0.00000000000E+00 -0.53089986845E+03  0.53089986845E+03  0.00000000000E+00 0. -1.
         25    2    1    2    0    0 -0.52442341253E+02  0.47554800228E+02  0.60697776648E+02  0.15595214959E+03  0.12500077876E+03 0.  0.
          2    1    1    2  501    0  0.35645650082E+01 -0.20823746709E+02 -0.48197551002E+03  0.48243831399E+03  0.00000000000E+00 0. -1.
          1    1    1    2  502    0  0.48877776245E+02 -0.26731053519E+02  0.72694926190E+03  0.72908080184E+03  0.00000000000E+00 0. -1.
         22    1    3    3    0    0 -0.14339606833E+02  0.87008285222E+02  0.30295773966E+02  0.93241085052E+02  0.00000000000E+00 0. -1.
         22    1    3    3    0    0 -0.38102734420E+02 -0.39453484994E+02  0.30402002681E+02  0.62711064538E+02  0.00000000000E+00 0. -1.
</event>
<event>
 7    1  0.5064652E-006  0.3292528E+02  0.7818608E-02  0.1581986E+00
          2   -1    0    0  502    0  0.00000000000E+00  0.00000000000E+00  0.28300189947E+03  0.28300189947E+03  0.00000000000E+00 0. -1.
          1   -1    0    0  501    0 -0.00000000000E+00 -0.00000000000E+00 -0.65038723191E+03  0.65038723191E+03  0.00000000000E+00 0. -1.
         25    2    1    2    0    0  0.51366302550E+02  0.30663700624E+02 -0.20223730802E+03  0.24516251888E+03  0.12500388927E+03 0.  0.
          2    1    1    2  501    0 -0.31134233873E+02 -0.83058547346E+01 -0.42520658279E+03  0.42642580338E+03  0.00000000000E+00 0. -1.
          1    1    1    2  502    0 -0.20232068677E+02 -0.22357845889E+02  0.26005855837E+03  0.26180080912E+03  0.00000000000E+00 0. -1.
         22    1    3    3    0    0  0.87962387313E+02  0.65093609176E+01 -0.96730061442E+02  0.13090629530E+03  0.00000000000E+00 0. -1.
         22    1    3    3    0    0 -0.36596084763E+02  0.24154339706E+02 -0.10550724658E+03  0.11425622358E+03  0.00000000000E+00 0. -1.
</event>
<event>
 7    1  0.5064652E-006  0.2535840E+03  0.7818608E-02  0.1182914E+00
          2   -1    0    0  502    0  0.00000000000E+00  0.00000000000E+00  0.51902464916E+03  0.51902464916E+03  0.00000000000E+00 0. -1.
          1   -1    0    0  501    0 -0.00000000000E+00 -0.00000000000E+00 -0.94454462398E+03  0.94454462398E+03  0.00000000000E+00 0. -1.
         25    2    1    2    0    0  0.22859032499E+03 -0.75345929395E+02 -0.12224269458E+03  0.29748762699E+03  0.12500026433E+03 0.  0.
          2    1    1    2  501    0 -0.26021112006E+03 -0.27568596396E+02 -0.70404805698E+03  0.75110153845E+03  0.00000000000E+00 0. -1.
          1    1    1    2  502    0  0.31620795076E+02  0.10291452579E+03  0.40077077674E+03  0.41498010771E+03  0.00000000000E+00 0. -1.
         22    1    3    3    0    0  0.15328063375E+03 -0.49501453754E+02 -0.12031355605E+02  0.16152430196E+03  0.00000000000E+00 0.  1.
         22    1    3    3    0    0  0.75309691241E+02 -0.25844475641E+02 -0.11021133897E+03  0.13596332503E+03  0.00000000000E+00 0.  1.
</event>
<event>
 7    1  0.5064652E-006  0.1100143E+03  0.7818608E-02  0.1353425E+00
          2   -1    0    0  502    0  0.00000000000E+00  0.00000000000E+00  0.22052285146E+04  0.22052285146E+04  0.00000000000E+00 0. -1.
          1   -1    0    0  501    0 -0.00000000000E+00 -0.00000000000E+00 -0.14208343573E+03  0.14208343573E+03  0.00000000000E+00 0. -1.
         25    2    1    2    0    0  0.11978021665E+03 -0.13098471210E+02  0.60098527633E+03  0.62556091706E+03  0.12499715329E+03 0.  0.
          2    1    1    2  501    0 -0.24096498938E+02 -0.40492152632E+02 -0.12356191563E+03  0.13224145598E+03  0.00000000000E+00 0. -1.
          1    1    1    2  502    0 -0.95683717716E+02  0.53590623842E+02  0.15857217181E+04  0.15895095772E+04  0.00000000000E+00 0. -1.
         22    1    3    3    0    0 -0.40144087612E+01  0.10724715623E+02  0.28678210170E+03  0.28701064241E+03  0.00000000000E+00 0. -1.
         22    1    3    3    0    0  0.12379462542E+03 -0.23823186833E+02  0.31420317463E+03  0.33855027464E+03  0.00000000000E+00 0. -1.
</event>
<event>
 7    1  0.5064652E-006  0.4076599E+02  0.7818608E-02  0.1526316E+00
          2   -1    0    0  502    0  0.00000000000E+00  0.00000000000E+00  0.12763122945E+04  0.12763122945E+04  0.00000000000E+00 0. -1.
          1   -1    0    0  501    0 -0.00000000000E+00 -0.00000000000E+00 -0.12790673441E+04  0.12790673441E+04  0.00000000000E+00 0. -1.
         25    2    1    2    0    0  0.20501712071E+02  0.14839053478E+02  0.72859176543E+02  0.14688156058E+03  0.12500086210E+03 0.  0.
          2    1    1    2  501    0 -0.37894364809E+02  0.15254130781E+02 -0.12414612093E+04  0.12421330869E+04  0.00000000000E+00 0. -1.
          1    1    1    2  502    0  0.17392652738E+02 -0.30093184258E+02  0.11658469832E+04  0.11663649910E+04  0.00000000000E+00 0. -1.
         22    1    3    3    0    0 -0.11313835921E+02  0.22979325775E+02 -0.29684558883E+02  0.39207465264E+02  0.00000000000E+00 0.  1.
         22    1    3    3    0    0  0.31815547992E+02 -0.81402722978E+01  0.10254373543E+03  0.10767409532E+03  0.00000000000E+00 0.  1.
</event>
<event>
 7    1  0.5064652E-006  0.6561348E+02  0.7818608E-02  0.1449410E+00
          2   -1    0    0  502    0  0.00000000000E+00  0.00000000000E+00  0.91866683471E+03  0.91866683471E+03  0.00000000000E+00 0. -1.
          1   -1    0    0  501    0 -0.00000000000E+00 -0.00000000000E+00 -0.36521715505E+03  0.36521715505E+03  0.00000000000E+00 0. -1.
         25    2    1    2    0    0  0.83443302584E+00  0.56686205313E+02  0.34804313229E+02  0.14159937214E+03  0.12500007928E+03 0.  0.
          2    1    1    2  501    0  0.36123633654E+02 -0.55646913401E+02 -0.30787279414E+03  0.31493992006E+03  0.00000000000E+00 0. -1.
          1    1    1    2  502    0 -0.36958066680E+02 -0.10392919117E+01  0.82651816057E+03  0.82734469755E+03  0.00000000000E+00 0. -1.
         22    1    3    3    0    0  0.59864458000E+02  0.40072400791E+02  0.35414541451E+02  0.80272911888E+02  0.00000000000E+00 0.  1.
         22    1    3    3    0    0 -0.59030024974E+02  0.16613804522E+02 -0.61022822155E+00  0.61326460257E+02  0.00000000000E+00 0.  1.
</event>
<event>
 7    1  0.5064652E-006  0.1177701E+03  0.7818608E-02  0.1413798E+00
          2   -1    0    0  502    0  0.00000000000E+00  0.00000000000E+00  0.23415686948E+03  0.23415686948E+03  0.00000000000E+00 0. -1.
          1   -1    0    0  501    0 -0.00000000000E+00 -0.00000000000E+00 -0.13191557551E+04  0.13191557551E+04  0.00000000000E+00 0. -1.
         25    2    1    2    0    0  0.90604600325E+02  0.16670641825E+02 -0.35450941373E+03  0.38702537549E+03  0.12499845177E+03 0.  0.
          2    1    1    2  501    0  0.25601016204E+02  0.84733242451E+01 -0.93196030581E+03  0.93235037451E+03  0.00000000000E+00 0. -1.
          1    1    1    2  502    0 -0.11620561653E+03 -0.25143966070E+02  0.20147083395E+03  0.23393687455E+03  0.00000000000E+00 0. -1.
         22    1    3    3    0    0  0.24403127976E+02  0.56558666551E+02 -0.75140591583E+02  0.97162255637E+02  0.00000000000E+00 0.  1.
         22    1    3    3    0    0  0.66201472349E+02 -0.39888024726E+02 -0.27936882215E+03  0.28986311985E+03  0.00000000000E+00 0.  1.
</event>
<event>
 7    1  0.5064652E-006  0.5517184E+02  0.7818608E-02  0.1484334E+00
          2   -1    0    0  502    0  0.00000000000E+00  0.00000000000E+00  0.19682420094E+04  0.19682420094E+04  0.00000000000E+00 0. -1.
          1   -1    0    0  501    0 -0.00000000000E+00 -0.00000000000E+00 -0.71485359510E+03  0.71485359510E+03  0.00000000000E+00 0. -1.
         25    2    1    2    0    0 -0.47666114203E+02  0.64043044301E+02  0.21569262264E+03  0.26176699132E+03  0.12500032128E+03 0.  0.
          2    1    1    2  501    0  0.46278457085E+02 -0.29871207157E+02 -0.69055058093E+03  0.69274388444E+03  0.00000000000E+00 0. -1.
          1    1    1    2  502    0  0.13876571174E+01 -0.34171837144E+02  0.17282463726E+04  0.17285847287E+04  0.00000000000E+00 0. -1.
         22    1    3    3    0    0 -0.57264633317E+02 -0.20798131921E+02  0.11149710560E+03  0.12705670025E+03  0.00000000000E+00 0. -1.
         22    1    3    3    0    0  0.95985191142E+01  0.84841176222E+02  0.10419551703E+03  0.13471029107E+03  0.00000000000E+00 0. -1.
</event>
<event>
 7    1  0.5064652E-006  0.4872096E+02  0.7818608E-02  0.1495787E+00
          2   -1    0    0  502    0  0.00000000000E+00  0.00000000000E+00  0.65335305192E+03  0.65335305192E+03  0.00000000000E+00 0. -1.
          1   -1    0    0  501    0 -0.00000000000E+00 -0.00000000000E+00 -0.29411285476E+03  0.29411285476E+03  0.00000000000E+00 0. -1.
         25    2    1    2    0    0 -0.23157101808E+02  0.72290877052E+02  0.47326532781E+02  0.15372764567E+03  0.12502066257E+03 0.  0.
          2    1    1    2  501    0 -0.31643049310E+01 -0.48086352233E+02 -0.23791577925E+03  0.24274725151E+03  0.00000000000E+00 0. -1.
          1    1    1    2  502    0  0.26321406739E+02 -0.24204524819E+02  0.54982944363E+03  0.55099100951E+03  0.00000000000E+00 0. -1.
         22    1    3    3    0    0 -0.61033312684E+01  0.41959963168E+02  0.89509682798E+02  0.99044800350E+02  0.00000000000E+00 0. -1.
         22    1    3    3    0    0 -0.17053770540E+02  0.30330913884E+02 -0.42183150017E+02  0.54682845318E+02  0.00000000000E+00 0. -1.
</event>
<event>
 7    1  0.5064652E-006  0.7467646E+02  0.7818608E-02  0.1362952E+00
          2   -1    0    0  502    0  0.00000000000E+00  0.00000000000E+00  0.19688052934E+03  0.19688052934E+03  0.00000000000E+00 0. -1.
          1   -1    0    0  501    0 -0.00000000000E+00 -0.00000000000E+00 -0.12164907186E+04  0.12164907186E+04  0.00000000000E+00 0. -1.
         25    2    1    2    0    0  0.11257306846E+01  0.27402512179E+02 -0.15565274849E+02  0.12892163360E+03  0.12500537943E+03 0.  0.
          2    1    1    2  501    0  0.51927279661E+02  0.37516873897E+02 -0.11307251025E+04  0.11325383948E+04  0.00000000000E+00 0. -1.
          1    1    1    2  502    0 -0.53053010346E+02 -0.64919386076E+02  0.12668018806E+03  0.15191121960E+03  0.00000000000E+00 0. -1.
         22    1    3    3    0    0  0.30322861052E+02 -0.42508222297E+02 -0.65597548105E+01  0.52625613995E+02  0.00000000000E+00 0. -1.
         22    1    3    3    0    0 -0.29197130367E+02  0.69910734476E+02 -0.90055200388E+01  0.76296019607E+02  0.00000000000E+00 0. -1.
</event>
<event>
 7    1  0.5064652E-006  0.2191097E+03  0.7818608E-02  0.1199275E+00
          2   -1    0    0  502    0  0.00000000000E+00  0.00000000000E+00  0.53380667529E+03  0.53380667529E+03  0.00000000000E+00 0. -1.
          1   -1    0    0  501    0 -0.00000000000E+00 -0.00000000000E+00 -0.15458591406E+04  0.15458591406E+04  0.00000000000E+00 0. -1.
         25    2    1    2    0    0 -0.14170335586E+03  0.17126324289E+03 -0.99446935238E+03  0.10266481359E+04  0.12500465045E+03 0.  0.
          2    1    1    2  501    0  0.20948585688E+03 -0.92341982780E+02 -0.50508076896E+03  0.55454300932E+03  0.00000000000E+00 0. -1.
          1    1    1    2  502    0 -0.67782501023E+02 -0.78921260106E+02  0.48749765600E+03  0.49847467072E+03  0.00000000000E+00 0. -1.
         22    1    3    3    0    0 -0.78470509953E+01  0.64128511617E+02 -0.12802079604E+03  0.14339932507E+03  0.00000000000E+00 0.  1.
         22    1    3    3    0    0 -0.13385630486E+03  0.10713473127E+03 -0.86644855634E+03  0.88324881080E+03  0.00000000000E+00 0.  1.
</event>
<event>
 7    1  0.5064652E-006  0.1144624E+03  0.7818608E-02  0.1290306E+00
          2   -1    0    0  502    0  0.00000000000E+00  0.00000000000E+00  0.15882607894E+04  0.15882607894E+04  0.00000000000E+00 0. -1.
          1   -1    0    0  501    0 -0.00000000000E+00 -0.00000000000E+00 -0.24983038351E+04  0.24983038351E+04  0.00000000000E+00 0. -1.
         25    2    1    2    0    0 -0.13794816276E+03 -0.67824842292E+02 -0.17853805685E+03  0.26671632123E+03  0.12502741072E+03 0.  0.
          2    1    1    2  501    0  0.11356876270E+03 -0.78356025437E+01 -0.22732283722E+04  0.22760769962E+04  0.00000000000E+00 0. -1.
          1    1    1    2  502    0  0.24379400054E+02  0.75660444836E+02  0.15417233833E+04  0.15437713071E+04  0.00000000000E+00 0. -1.
         22    1    3    3    0    0 -0.62634503961E+01  0.81253978294E+01 -0.90431994854E+02  0.91012079385E+02  0.00000000000E+00 0.  1.
         22    1    3    3    0    0 -0.13168471236E+03 -0.75950240121E+02 -0.88106061993E+02  0.17570424185E+03  0.00000000000E+00 0.  1.
</event>
<event>
 7    1  0.5064652E-006  0.1507359E+03  0.7818608E-02  0.1240088E+00
          2   -1    0    0  502    0  0.00000000000E+00  0.00000000000E+00  0.20252848699E+04  0.20252848699E+04  0.00000000000E+00 0. -1.
          1   -1    0    0  501    0 -0.00000000000E+00 -0.00000000000E+00 -0.26260039598E+03  0.26260039598E+03  0.00000000000E+00 0. -1.
         25    2    1    2    0    0 -0.15895262859E+02 -0.10945379912E+02 -0.40272496625E+02  0.13273839010E+03  0.12500058200E+03 0.  0.
          2    1    1    2  501    0  0.14673005912E+03  0.85802301081E+02 -0.13145113671E+03  0.21487472271E+03  0.00000000000E+00 0. -1.
          1    1    1    2  502    0 -0.13083479626E+03 -0.74856921170E+02  0.19344081072E+04  0.19402721530E+04  0.00000000000E+00 0. -1.
         22    1    3    3    0    0  0.30032461731E+02 -0.42553930610E+02  0.15029609341E+02  0.54209546437E+02  0.00000000000E+00 0. -1.
         22    1    3    3    0    0 -0.45927724590E+02  0.31608550698E+02 -0.55302105966E+02  0.78528843666E+02  0.00000000000E+00 0. -1.
</event>
<event>
 7    1  0.5064652E-006  0.1274064E+03  0.7818608E-02  0.1314451E+00
          2   -1    0    0  502    0  0.00000000000E+00  0.00000000000E+00  0.12916269783E+04  0.12916269783E+04  0.00000000000E+00 0. -1.
          1   -1    0    0  501    0 -0.00000000000E+00 -0.00000000000E+00 -0.46935853912E+03  0.46935853912E+03  0.00000000000E+00 0. -1.
         25    2    1    2    0    0 -0.16905701002E+03  0.84927851788E+01  0.92514791853E+03  0.94877577857E+03  0.12499762718E+03 0.  0.
          2    1    1    2  501    0  0.12083919183E+03 -0.39286396509E+02 -0.44631049336E+03  0.46404588967E+03  0.00000000000E+00 0. -1.
          1    1    1    2  502    0  0.48217818182E+02  0.30793611330E+02  0.34343101399E+03  0.34816384916E+03  0.00000000000E+00 0. -1.
         22    1    3    3    0    0 -0.18247137537E+03  0.26671141069E+02  0.86696151087E+03  0.88635738499E+03  0.00000000000E+00 0.  1.
         22    1    3    3    0    0  0.13414365349E+02 -0.18178355890E+02  0.58186407663E+02  0.62418393581E+02  0.00000000000E+00 0.  1.
</event>
<event>
 7    1  0.1139424E-005  0.9773711E+02  0.7818608E-02  0.1330787E+00
          2   -1    0    0  502    0  0.00000000000E+00  0.00000000000E+00  0.28462231528E+04  0.28462231528E+04  0.00000000000E+00 0. -1.
          1   -1    0    0  501    0 -0.00000000000E+00 -0.00000000000E+00 -0.17037296557E+04  0.17037296557E+04  0.00000000000E+00 0. -1.
         25    2    1    2    0    0 -0.48953561606E+02 -0.46858724689E+02 -0.10960446931E+04  0.11052303286E+04  0.12501167424E+03 0.  0.
          2    1    1    2  501    0 -0.48711106900E+02  0.42262468441E+02 -0.60052421563E+03  0.60397700431E+03  0.00000000000E+00 0. -1.
          1    1    1    2  502    0  0.97664668506E+02  0.45962562483E+01  0.28390624058E+04  0.28407454756E+04  0.00000000000E+00 0. -1.
         22    1    3    3    0    0 -0.90202912150E+01 -0.26798364112E+02 -0.44416526506E+02  0.52653070182E+02  0.00000000000E+00 0.  1.
         22    1    3    3    0    0 -0.39933270391E+02 -0.20060360577E+02 -0.10516281666E+04  0.10525772584E+04  0.00000000000E+00 0.  1.
</event>
<event>
 7    1  0.5064652E-006  0.1609272E+03  0.7818608E-02  0.1263381E+00
          2   -1    0    0  502    0  0.00000000000E+00  0.00000000000E+00  0.65843053362E+03  0.65843053362E+03  0.00000000000E+00 0. -1.
          1   -1    0    0  501    0 -0.00000000000E+00 -0.00000000000E+00 -0.55209544507E+03  0.55209544507E+03  0.00000000000E+00 0. -1.
         25    2    1    2    0    0 -0.77410237516E+02 -0.56337943264E+02  0.77392203502E+02  0.17543972850E+03  0.12499294560E+03 0.  0.
          2    1    1    2  501    0  0.14316768572E+03  0.88375490165E+02 -0.48634901263E+03  0.51462858023E+03  0.00000000000E+00 0. -1.
          1    1    1    2  502    0 -0.65757448207E+02 -0.32037546901E+02  0.51529189768E+03  0.52045766997E+03  0.00000000000E+00 0. -1.
         22    1    3    3    0    0  0.30475615387E+02 -0.12728067479E+02 -0.42366337344E+01  0.33297385789E+02  0.00000000000E+00 0. -1.
         22    1    3    3    0    0 -0.10788585290E+03 -0.43609875785E+02  0.81628837237E+02  0.14214234271E+03  0.00000000000E+00 0. -1.
</event>
<event>
 7    1  0.5064652E-006  0.9338720E+02  0.7818608E-02  0.1352585E+00
          2   -1    0    0  502    0  0.00000000000E+00  0.00000000000E+00  0.74322846573E+03  0.74322846573E+03  0.00000000000E+00 0. -1.
          1   -1    0    0  501    0 -0.00000000000E+00 -0.00000000000E+00 -0.16282374644E+03  0.16282374644E+03  0.00000000000E+00 0. -1.
         25    2    1    2    0    0  0.24219476316E+01  0.89063275689E+02  0.36835794002E+03  0.39906211431E+03  0.12499946476E+03 0.  0.
          2    1    1    2  501    0 -0.56604292998E+02 -0.75285841747E+02 -0.12992649221E+03  0.16047709285E+03  0.00000000000E+00 0. -1.
          1    1    1    2  502    0  0.54182345366E+02 -0.13777433942E+02  0.34197327147E+03  0.34651300500E+03  0.00000000000E+00 0. -1.
         22    1    3    3    0    0  0.56565253553E+02  0.35362365745E+02  0.10100389312E+03  0.12104507940E+03  0.00000000000E+00 0.  1.
         22    1    3    3    0    0 -0.54143305921E+02  0.53700909944E+02  0.26735404690E+03  0.27801703491E+03  0.00000000000E+00 0.  1.
</event>
<event>
 7    1  0.5064652E-006  0.1941817E+03  0.7818608E-02  0.1269557E+00
          2   -1    0    0  502    0  0.00000000000E+00  0.00000000000E+00  0.21206196191E+04  0.21206196191E+04  0.00000000000E+00 0. -1.
          1   -1    0    0  501    0 -0.00000000000E+00 -0.00000000000E+00 -0.15070968747E+03  0.15070968747E+03  0.00000000000E+00 0. -1.
         25    2    1    2    0    0  0.23450869041E+03  0.40672991617E+02  0.44938227221E+03  0.52366000830E+03  0.12500703816E+03 0.  0.
          2    1    1    2  501    0 -0.18723030655E+03 -0.86788406660E+01 -0.35357552670E+02  0.19073716601E+03  0.00000000000E+00 0. -1.
          1    1    1    2  502    0 -0.47278383856E+02 -0.31994150951E+02  0.15558852121E+04  0.15569321323E+04  0.00000000000E+00 0. -1.
         22    1    3    3    0    0  0.21229655575E+03  0.19284803454E+02  0.28223598875E+03  0.35369320685E+03  0.00000000000E+00 0. -1.
         22    1    3    3    0    0  0.22212134657E+02  0.21388188163E+02  0.16714628346E+03  0.16996680145E+03  0.00000000000E+00 0. -1.
</event>
<event>
 7    1  0.5064652E-006  0.1167824E+03  0.7818608E-02  0.1423040E+00
          2   -1    0    0  502    0  0.00000000000E+00  0.00000000000E+00  0.11526772245E+04  0.11526772245E+04  0.00000000000E+00 0. -1.
          1   -1    0    0  501    0 -0.00000000000E+00 -0.00000000000E+00 -0.12932127679E+04  0.12932127679E+04  0.00000000000E+00 0. -1.
         25    2    1    2    0    0 -0.11528432350E+03  0.35753004658E+02  0.16095655408E+03  0.23685702817E+03  0.12500194760E+03 0.  0.
          2    1    1    2  501    0 -0.89092550171E+00 -0.25309202562E+02 -0.12515676464E+04  0.12518238386E+04  0.00000000000E+00 0. -1.
          1    1    1    2  502    0  0.11617524900E+03 -0.10443802096E+02  0.95007554890E+03  0.95720912559E+03  0.00000000000E+00 0. -1.
         22    1    3    3    0    0 -0.11370148925E+03  0.40447107668E+02  0.58201934617E+02  0.13398306747E+03  0.00000000000E+00 0.  1.
         22    1    3    3    0    0 -0.15828342478E+01 -0.46941030099E+01  0.10275461946E+03  0.10287396069E+03  0.00000000000E+00 0.  1.
</event>
<event>
 7    1  0.5064652E-006  0.1462998E+03  0.7818608E-02  0.1356196E+00
          2   -1    0    0  502    0  0.00000000000E+00  0.00000000000E+00  0.69077141930E+02  0.69077141930E+02  0.00000000000E+00 0. -1.
          1   -1    0    0  501    0 -0.00000000000E+00 -0.00000000000E+00 -0.31211997111E+04  0.31211997111E+04  0.00000000000E+00 0. -1.
         25    2    1    2    0    0 -0.11480920590E+03 -0.12212189464E+03 -0.46145508692E+03  0.50661709495E+03  0.12500069098E+03 0.  0.
          2    1    1    2  501    0  0.34186740620E+02  0.54025355374E+01 -0.25285696237E+04  0.25288064897E+04  0.00000000000E+00 0. -1.
          1    1    1    2  502    0  0.80622465283E+02  0.11671935910E+03 -0.62097858642E+02  0.15485326843E+03  0.00000000000E+00 0. -1.
         22    1    3    3    0    0  0.22413154801E+02 -0.51987863999E+01 -0.22941283506E+02  0.32491219999E+02  0.00000000000E+00 0.  1.
         22    1    3    3    0    0 -0.13722236070E+03 -0.11692310824E+03 -0.43851380342E+03  0.47412587496E+03  0.00000000000E+00 0.  1.
</event>
<event>
 7    1  0.5064652E-006  0.6720195E+02  0.7818608E-02  0.1414826E+00
          2   -1    0    0  502    0  0.00000000000E+00  0.00000000000E+00  0.10169714770E+03  0.10169714770E+03  0.00000000000E+00 0. -1.
          1   -1    0    0  501    0 -0.00000000000E+00 -0.00000000000E+00 -0.91614801210E+03  0.91614801210E+03  0.00000000000E+00 0. -1.
         25    2    1    2    0    0  0.14270879864E+02  0.39124508087E+02 -0.89440920000E+02  0.15924777359E+03  0.12500316027E+03 0.  0.
          2    1    1    2  501    0  0.46883370311E+02 -0.68477488198E-01 -0.77117244440E+03  0.77259626850E+03  0.00000000000E+00 0. -1.
          1    1    1    2  502    0 -0.61154250175E+02 -0.39056030599E+02  0.46162500003E+02  0.86001117709E+02  0.00000000000E+00 0. -1.
         22    1    3    3    0    0  0.22964413370E+02 -0.32521407327E+02  0.52843276050E+01  0.40161303940E+02  0.00000000000E+00 0.  1.
         22    1    3    3    0    0 -0.86935335054E+01  0.71645915414E+02 -0.94725247605E+02  0.11908646965E+03  0.00000000000E+00 0.  1.
</event>
<event>
 7    1  0.5064652E-006  0.4973898E+02  0.7818608E-02  0.1557386E+00
          2   -1    0    0  502    0  0.00000000000E+00  0.00000000000E+00  0.16310988022E+03  0.16310988022E+03  0.00000000000E+00 0. -1.
          1   -1    0    0  501    0 -0.00000000000E+00 -0.00000000000E+00 -0.69443571589E+03  0.69443571589E+03  0.00000000000E+00 0. -1.
         25    2    1    2    0    0  0.20537415096E+02  0.18314520913E+02 -0.56545668352E+02  0.13993081628E+03  0.12500405450E+03 0.  0.
          2    1    1    2  501    0 -0.32982973352E+02 -0.37991575611E+02 -0.59400804730E+03  0.59613488122E+03  0.00000000000E+00 0. -1.
          1    1    1    2  502    0  0.12445558256E+02  0.19677054698E+02  0.11922787998E+03  0.12147989861E+03  0.00000000000E+00 0. -1.
         22    1    3    3    0    0  0.15584734305E+02 -0.37338411429E+02  0.20023177710E+02  0.45143865109E+02  0.00000000000E+00 0.  1.
         22    1    3    3    0    0  0.49526807903E+01  0.55652932342E+02 -0.76568846062E+02  0.94786951173E+02  0.00000000000E+00 0.  1.
</event>
<event>
 7    1  0.5064652E-006  0.1329262E+03  0.7818608E-02  0.1256440E+00
          2   -1    0    0  502    0  0.00000000000E+00  0.00000000000E+00  0.47829451378E+02  0.47829451378E+02  0.00000000000E+00 0. -1.
          1   -1    0    0  501    0 -0.00000000000E+00 -0.00000000000E+00 -0.16995326668E+04  0.16995326668E+04  0.00000000000E+00 0. -1.
         25    2    1    2    0    0 -0.12077345522E+03  0.10924388953E+03 -0.39983819756E+03  0.44946068045E+03  0.12499545654E+03 0.  0.
          2    1    1    2  501    0  0.93455434647E+02  0.15957106504E+02 -0.10767001033E+04  0.10808661619E+04  0.00000000000E+00 0. -1.
          1    1    1    2  502    0  0.27318020577E+02 -0.12520099604E+03 -0.17516491458E+03  0.21703527584E+03  0.00000000000E+00 0. -1.
         22    1    3    3    0    0 -0.99460502404E+02  0.12775446662E+03 -0.25617181900E+03  0.30304718466E+03  0.00000000000E+00 0.  1.
         22    1    3    3    0    0 -0.21312952820E+02 -0.18510577082E+02 -0.14366637856E+03  0.14641349580E+03  0.00000000000E+00 0.  1.
</event>
<event>
 7    1  0.5064652E-006  0.8545341E+02  0.7818608E-02  0.1410828E+00
          2   -1    0    0  502    0  0.00000000000E+00  0.00000000000E+00  0.24911235029E+04  0.24911235029E+04  0.00000000000E+00 0. -1.
          1   -1    0    0  501    0 -0.00000000000E+00 -0.00000000000E+00 -0.68645884170E+02  0.68645884170E+02  0.00000000000E+00 0. -1.
         25    2    1    2    0    0  0.56774427170E+02  0.16226982304E+01  0.36729298346E+03  0.39211800848E+03  0.12500571244E+03 0.  0.
          2    1    1    2  501    0  0.27432928781E+02 -0.26343382344E+02 -0.48781283214E+02  0.61855904866E+02  0.00000000000E+00 0. -1.
          1    1    1    2  502    0 -0.84207355951E+02  0.24720684114E+02  0.21039659185E+04  0.21057954738E+04  0.00000000000E+00 0. -1.
         22    1    3    3    0    0  0.94983356026E+02 -0.12425191151E+02  0.23750954947E+03  0.25609960833E+03  0.00000000000E+00 0. -1.
         22    1    3    3    0    0 -0.38208928857E+02  0.14047889381E+02  0.12978343399E+03  0.13601840015E+03  0.00000000000E+00 0. -1.
</event>
<event>
 7    1  0.5064652E-006  0.6878504E+02  0.7818608E-02  0.1493010E+00
          2   -1    0    0  502    0  0.00000000000E+00  0.00000000000E+00  0.15231564572E+03  0.15231564572E+03  0.00000000000E+00 0. -1.
          1   -1    0    0  501    0 -0.00000000000E+00 -0.00000000000E+00 -0.13161583639E+04  0.13161583639E+04  0.00000000000E+00 0. -1.
         25    2    1    2    0    0 -0.35258886729E+02 -0.26778340215E+02 -0.60774878411E+02  0.14587415495E+03  0.12500165855E+03 0.  0.
          2    1    1    2  501    0  0.50291084719E+02  0.47770930780E+02 -0.12103086366E+04  0.12122946221E+04  0.00000000000E+00 0. -1.
          1    1    1    2  502    0 -0.15032197990E+02 -0.20992590565E+02  0.10724079680E+03  0.11030523257E+03  0.00000000000E+00 0. -1.
         22    1    3    3    0    0  0.22345876052E+02  0.18682884881E+02 -0.66166271717E+02  0.72293594993E+02  0.00000000000E+00 0. -1.
         22    1    3    3    0    0 -0.57604762781E+02 -0.45461225096E+02  0.53913933064E+01  0.73580559960E+02  0.00000000000E+00 0. -1.
</event>
<event>
 7    1  0.5064652E-006  0.1169588E+03  0.7818608E-02  0.1280425E+00
          2   -1    0    0  502    0  0.00000000000E+00  0.00000000000E+00  0.24477406988E+04  0.24477406988E+04  0.00000000000E+00 0. -1.
          1   -1    0    0  501    0 -0.00000000000E+00 -0.00000000000E+00 -0.54275364140E+02  0.54275364140E+02  0.00000000000E+00 0. -1.
         25    2    1    2    0    0 -0.10853111402E+03 -0.63028705584E+02  0.41231526641E+03  0.44875460272E+03  0.12500077645E+03 0.  0.
          2    1    1    2  501    0  0.11884734374E+03 -0.21740938243E+02  0.68858613654E+02  0.13906425919E+03  0.00000000000E+00 0. -1.
          1    1    1    2  502    0 -0.10316229718E+02  0.84769643827E+02  0.19122914546E+04  0.19141972010E+04  0.00000000000E+00 0. -1.
         22    1    3    3    0    0  0.94725734888E+00  0.78696884100E+01  0.19599355476E+03  0.19615377335E+03  0.00000000000E+00 0.  1.
         22    1    3    3    0    0 -0.10947837137E+03 -0.70898393993E+02  0.21632171164E+03  0.25260082937E+03  0.00000000000E+00 0.  1.
</event>
<event>
 7    1  0.5064652E-006  0.6133640E+02  0.7818608E-02  0.1414116E+00
          2   -1    0    0  502    0  0.00000000000E+00  0.00000000000E+00  0.18953647573E+04  0.18953647573E+04  0.00000000000E+00 0. -1.
          1   -1    0    0  501    0 -0.00000000000E+00 -0.00000000000E+00 -0.16525213830E+03  0.16525213830E+03  0.00000000000E+00 0. -1.
         25    2    1    2    0    0  0.47397888884E+02 -0.10200785466E+03 -0.77494920060E+01  0.16833667977E+03  0.12500008339E+03 0.  0.
          2    1    1    2  501    0 -0.18637212586E+02  0.48170635193E+02 -0.67997263145E+02  0.85389598799E+02  0.00000000000E+00 0. -1.
          1    1    1    2  502    0 -0.28760676298E+02  0.53837219462E+02  0.18058593741E+04  0.18068906170E+04  0.00000000000E+00 0. -1.
         22    1    3    3    0    0  0.30727956852E+02 -0.53727243295E+02 -0.66258222218E+02  0.90669598079E+02  0.00000000000E+00 0.  1.
         22    1    3    3    0    0  0.16669932032E+02 -0.48280611360E+02  0.58508730212E+02  0.77667081690E+02  0.00000000000E+00 0.  1.
</event>
<event>
 7    1  0.5064652E-006  0.1177300E+03  0.7818608E-02  0.1355190E+00
          2   -1    0    0  502    0  0.00000000000E+00  0.00000000000E+00  0.11946518728E+04  0.11946518728E+04  0.00000000000E+00 0. -1.
          1   -1    0    0  501    0 -0.00000000000E+00 -0.00000000000E+00 -0.69989690573E+03  0.69989690573E+03  0.00000000000E+00 0. -1.
         25    2    1    2    0    0  0.22306398322E+02  0.14533820851E+03  0.44936958671E+03  0.48905951386E+03  0.12500164953E+03 0.  0.
          2    1    1    2  501    0 -0.27420580122E+02 -0.33611497392E+02 -0.67504081243E+03  0.67643308570E+03  0.00000000000E+00 0. -1.
          1    1    1    2  502    0  0.51141818004E+01 -0.11172671112E+03  0.72042619282E+03  0.72905617899E+03  0.00000000000E+00 0. -1.
         22    1    3    3    0    0  0.73316988215E+02  0.66401054799E+02  0.22290519242E+03  0.24386718854E+03  0.00000000000E+00 0. -1.
         22    1    3    3    0    0 -0.51010589893E+02  0.78937153712E+02  0.22646439429E+03  0.24519232532E+03  0.00000000000E+00 0. -1.
</event>
<event>
 7    1  0.5064652E-006  0.1704121E+03  0.7818608E-02  0.1198993E+00
          2   -1    0    0  502    0  0.00000000000E+00  0.00000000000E+00  0.14589386291E+04  0.14589386291E+04  0.00000000000E+00 0. -1.
          1   -1    0    0  501    0 -0.00000000000E+00 -0.00000000000E+00 -0.33361206353E+03  0.33361206353E+03  0.00000000000E+00 0. -1.
         25    2    1    2    0    0  0.43931814923E+02  0.21702182397E+03 -0.56015601038E+02  0.26036383460E+03  0.12499240924E+03 0.  0.
          2    1    1    2  501    0 -0.12178964192E+03 -0.10774868785E+03 -0.13357650916E+03  0.21044044386E+03  0.00000000000E+00 0. -1.
          1    1    1    2  502    0  0.77857826998E+02 -0.10927313612E+03  0.13149186758E+04  0.13217464142E+04  0.00000000000E+00 0. -1.
         22    1    3    3    0    0  0.87518848428E+02  0.13640609030E+03 -0.43999403669E+02  0.16793486185E+03  0.00000000000E+00 0.  1.
         22    1    3    3    0    0 -0.43587033505E+02  0.80615733665E+02 -0.12016197369E+02  0.92428972748E+02  0.00000000000E+00 0.  1.
</event>
<event>
 7    1  0.5064652E-006  0.5210945E+02  0.7818608E-02  0.1440137E+00
          2   -1    0    0  502    0  0.00000000000E+00  0.00000000000E+00  0.20548748245E+04  0.20548748245E+04  0.00000000000E+00 0. -1.
          1   -1    0    0  501    0 -0.00000000000E+00 -0.00000000000E+00 -0.46614425729E+03  0.46614425729E+03  0.00000000000E+00 0. -1.
         25    2    1    2    0    0 -0.18759386727E+01  0.15558305063E+01  0.74359167699E+03  0.75402874497E+03  0.12499930558E+03 0.  0.
          2    1    1    2  501    0  0.47855477309E+02 -0.20868843604E+02 -0.45896922414E+03  0.46192900326E+03  0.00000000000E+00 0. -1.
          1    1    1    2  502    0 -0.45979538636E+02  0.19313013098E+02  0.13041081144E+04  0.13050613336E+04  0.00000000000E+00 0. -1.
         22    1    3    3    0    0  0.37277567449E+02 -0.47551246610E+02  0.30113740167E+03  0.30713917492E+03  0.00000000000E+00 0. -1.
         22    1    3    3    0    0 -0.39153506122E+02  0.49107077116E+02  0.44245427533E+03  0.44688957005E+03  0.00000000000E+00 0. -1.
</event>
<event>
 7    1  0.5064652E-006  0.6649919E+02  0.7818608E-02  0.1493392E+00
          2   -1    0    0  502    0  0.00000000000E+00  0.00000000000E+00  0.47369691936E+03  0.47369691936E+03  0.00000000000E+00 0. -1.
          1   -1    0    0  501    0 -0.00000000000E+00 -0.00000000000E+00 -0.12705737619E+04  0.12705737619E+04  0.00000000000E+00 0. -1.
         25    2    1    2    0    0  0.29995297961E+02 -0.35793340352E+02  0.43472394411E+02  0.14034195463E+03  0.12500053617E+03 0.  0.
          2    1    1    2  501    0 -0.30273465181E+01 -0.26464108734E+02 -0.12189780719E+04  0.12192690654E+04  0.00000000000E+00 0. -1.
          1    1    1    2  502    0 -0.26967951443E+02  0.62257449085E+02  0.37862883495E+03  0.38465966129E+03  0.00000000000E+00 0. -1.
         22    1    3    3    0    0 -0.17483477202E+02  0.36371625963E+02 -0.59941047181E+01  0.40798240668E+02  0.00000000000E+00 0. -1.
         22    1    3    3    0    0  0.47478775162E+02 -0.72164966315E+02  0.49466499129E+02  0.99543713966E+02  0.00000000000E+00 0. -1.
</event>
<event>
 7    1  0.5064652E-006  0.4280974E+03  0.7818608E-02  0.1221054E+00
          2   -1    0    0  502    0  0.00000000000E+00  0.00000000000E+00  0.18520302887E+04  0.18520302887E+04  0.00000000000E+00 0. -1.
          1   -1    0    0  501    0 -0.00000000000E+00 -0.00000000000E+00 -0.56896035173E+03  0.56896035173E+03  0.00000000000E+00 0. -1.
         25    2    1    2    0    0  0.66997322626E+02 -0.44723045477E+03  0.13433771261E+03  0.48803183290E+03  0.12499891193E+03 0.  0.
          2    1    1    2  501    0 -0.34576745796E+02  0.24195094842E+02 -0.36165670220E+03  0.36411059338E+03  0.00000000000E+00 0. -1.
          1    1    1    2  502    0 -0.32420576830E+02  0.42303535993E+03  0.15103889266E+04  0.15688482142E+04  0.00000000000E+00 0. -1.
         22    1    3    3    0    0  0.58985386849E+02 -0.31693334617E+03  0.15179715651E+03  0.35632625289E+03  0.00000000000E+00 0.  1.
         22    1    3    3    0    0  0.80119357768E+01 -0.13029710860E+03 -0.17459443898E+02  0.13170558001E+03  0.00000000000E+00 0.  1.
</event>
<event>
 7    1  0.5064652E-006  0.1105459E+03  0.7818608E-02  0.1299125E+00
          2   -1    0    0  502    0  0.00000000000E+00  0.00000000000E+00  0.23699625614E+04  0.23699625614E+04  0.00000000000E+00 0. -1.
          1   -1    0    0  501    0 -0.00000000000E+00 -0.00000000000E+00 -0.15080439664E+04  0.15080439664E+04  0.00000000000E+00 0. -1.
         25    2    1    2    0    0  0.14382700970E+03  0.11549284781E+03 -0.98960437163E+02  0.24380973828E+03  0.12500085497E+03 0.  0.
          2    1    1    2  501    0 -0.65393647387E+02 -0.38389647948E+02 -0.13342654735E+04  0.13364185153E+04  0.00000000000E+00 0. -1.
          1    1    1    2  502    0 -0.78433362309E+02 -0.77103199864E+02  0.22951445057E+04  0.22977782743E+04  0.00000000000E+00 0. -1.
         22    1    3    3    0    0  0.48506468688E+02  0.69577079866E+02  0.17353506559E+02  0.86573620331E+02  0.00000000000E+00 0. -1.
         22    1    3    3    0    0  0.95320541008E+02  0.45915767945E+02 -0.11631394372E+03  0.15723611795E+03  0.00000000000E+00 0. -1.
</event>
<event>
 7    1  0.5064652E-006  0.9846285E+02  0.7818608E-02  0.1335009E+00
          2   -1    0    0  502    0  0.00000000000E+00  0.00000000000E+00  0.19512069815E+04  0.19512069815E+04  0.00000000000E+00 0. -1.
          1   -1    0    0  501    0 -0.00000000000E+00 -0.00000000000E+00 -0.18295276202E+04  0.18295276202E+04  0.00000000000E+00 0. -1.
         25    2    1    2    0    0 -0.14436542571E+03  0.23586183998E+02  0.26868769994E+02  0.19427940651E+03  0.12499949110E+03 0.  0.
          2    1    1    2  501    0  0.47761421523E+02 -0.39046186759E+02 -0.17439765223E+04  0.17450672963E+04  0.00000000000E+00 0. -1.
          1    1    1    2  502    0  0.96604004190E+02  0.15460002761E+02  0.18387871136E+04  0.18413878990E+04  0.00000000000E+00 0. -1.
         22    1    3    3    0    0 -0.12845167386E+03 -0.11506473272E+02  0.61127858748E+02  0.14271946804E+03  0.00000000000E+00 0. -1.
         22    1    3    3    0    0 -0.15913751856E+02  0.35092657271E+02 -0.34259088754E+02  0.51559938467E+02  0.00000000000E+00 0. -1.
</event>
<event>
 7    1  0.5064652E-006  0.8048367E+02  0.7818608E-02  0.1335504E+00
          2   -1    0    0  502    0  0.00000000000E+00  0.00000000000E+00  0.36224809747E+03  0.36224809747E+03  0.00000000000E+00 0. -1.
          1   -1    0    0  501    0 -0.00000000000E+00 -0.00000000000E+00 -0.66228420159E+03  0.66228420159E+03  0.00000000000E+00 0. -1.
         25    2    1    2    0    0  0.29935340111E+02 -0.15241791144E+02 -0.86699396085E+02  0.15578806974E+03  0.12499880242E+03 0.  0.
          2    1    1    2  501    0 -0.31732285830E+02 -0.68117545019E+02 -0.53305855789E+03  0.53832923387E+03  0.00000000000E+00 0. -1.
          1    1    1    2  502    0  0.17969457184E+01  0.83359336162E+02  0.31972184985E+03  0.33041499544E+03  0.00000000000E+00 0. -1.
         22    1    3    3    0    0  0.54870355623E+02 -0.12243963606E+02  0.89221393874E+01  0.56923414710E+02  0.00000000000E+00 0. -1.
         22    1    3    3    0    0 -0.24935015512E+02 -0.29978275379E+01 -0.95621535473E+02  0.98864655032E+02  0.00000000000E+00 0. -1.
</event>
<event>
 7    1  0.5601929E-006  0.1251645E+03  0.7818608E-02  0.1254126E+00
          2   -1    0    0  502    0  0.00000000000E+00  0.00000000000E+00  0.36611638554E+04  0.36611638554E+04  0.00000000000E+00 0. -1.
          1   -1    0    0  501    0 -0.00000000000E+00 -0.00000000000E+00 -0.14410846651E+04  0.14410846651E+04  0.00000000000E+00 0. -1.
         25    2    1    2    0    0 -0.22004219886E+02  0.34128189315E+02 -0.20000119504E+03  0.23932040608E+03  0.12499943901E+03 0.  0.
          2    1    1    2  501    0  0.90135384379E+02 -0.11140301925E+03 -0.12164887886E+04  0.12248999931E+04  0.00000000000E+00 0. -1.
          1    1    1    2  502    0 -0.68131164494E+02  0.77274829931E+02  0.36365691740E+04  0.36380281214E+04  0.00000000000E+00 0. -1.
         22    1    3    3    0    0 -0.45172233546E+02 -0.33947069588E+02 -0.11385303715E+03  0.12710408446E+03  0.00000000000E+00 0. -1.
         22    1    3    3    0    0  0.23168013660E+02  0.68075258903E+02 -0.86148157887E+02  0.11221632162E+03  0.00000000000E+00 0. -1.
</event>
<event>
 7    1  0.5064652E-006  0.5997236E+02  0.7818608E-02  0.1419667E+00
          2   -1    0    0  502    0  0.00000000000E+00  0.00000000000E+00  0.85140368342E+03  0.85140368342E+03  0.00000000000E+00 0. -1.
          1   -1    0    0  501    0 -0.00000000000E+00 -0.00000000000E+00 -0.19103206951E+04  0.19103206951E+04  0.00000000000E+00 0. -1.
         25    2    1    2    0    0  0.13113465246E+01  0.10650906552E+03 -0.88843472565E+02  0.18671987666E+03  0.12500099622E+03 0.  0.
          2    1    1    2  501    0  0.13234548994E+02 -0.58036714217E+02 -0.17712406316E+04  0.17722406125E+04  0.00000000000E+00 0. -1.
          1    1    1    2  502    0 -0.14545895519E+02 -0.48472351300E+02  0.80116709251E+03  0.80276388935E+03  0.00000000000E+00 0. -1.
         22    1    3    3    0    0 -0.75207812276E+01  0.11629116350E+03 -0.11100090617E+03  0.16093911280E+03  0.00000000000E+00 0. -1.
         22    1    3    3    0    0  0.88321277522E+01 -0.97820979795E+01  0.22157433605E+02  0.25780763865E+02  0.00000000000E+00 0. -1.
</event>
<event>
 7    1  0.5064652E-006  0.4355535E+02  0.7818608E-02  0.1485235E+00
          2   -1    0    0  502    0  0.00000000000E+00  0.00000000000E+00  0.98148176020E+03  0.98148176020E+03  0.00000000000E+00 0. -1.
          1   -1    0    0  501    0 -0.00000000000E+00 -0.00000000000E+00 -0.90325119290E+03  0.90325119290E+03  0.00000000000E+00 0. -1.
         25    2    1    2    0    0  0.59318820454E+02 -0.93562176665E+00  0.18621429345E+03  0.23198709983E+03  0.12499061386E+03 0.  0.
          2    1    1    2  501    0 -0.30531864771E+02 -0.31071786731E+02 -0.87922529958E+03  0.88030379876E+03  0.00000000000E+00 0. -1.
          1    1    1    2  502    0 -0.28786955683E+02  0.32007408497E+02  0.77124157342E+03  0.77244205451E+03  0.00000000000E+00 0. -1.
         22    1    3    3    0    0  0.91391805184E+01 -0.27135413687E+02  0.17098607580E+03  0.17336693287E+03  0.00000000000E+00 0. -1.
         22    1    3    3    0    0  0.50179639936E+02  0.26199791920E+02  0.15228217652E+02  0.58620166953E+02  0.00000000000E+00 0. -1.
</event>
<event>
 7    1  0.5064652E-006  0.8353823E+02  0.7818608E-02  0.1322592E+00
          2   -1    0    0  502    0  0.00000000000E+00  0.00000000000E+00  0.14853731984E+04  0.14853731984E+04  0.00000000000E+00 0. -1.
          1   -1    0    0  501    0 -0.00000000000E+00 -0.00000000000E+00 -0.30458504563E+02  0.30458504563E+02  0.00000000000E+00 0. -1.
         25    2    1    2    0    0  0.73519997878E+02  0.11840835286E+02  0.67811189965E+03  0.69354969780E+03  0.12502015601E+03 0.  0.
          2    1    1    2  501    0 -0.52766356703E+02  0.69078394791E+02  0.72925359106E+02  0.11346462456E+03  0.00000000000E+00 0. -1.
          1    1    1    2  502    0 -0.20753641174E+02 -0.80919230077E+02  0.70387743506E+03  0.70881738058E+03  0.00000000000E+00 0. -1.
         22    1    3    3    0    0 -0.19837155123E+02 -0.31536629013E+02  0.10870959062E+03  0.11491669498E+03  0.00000000000E+00 0.  1.
         22    1    3    3    0    0  0.93357153001E+02  0.43377464299E+02  0.56940230903E+03  0.57863300282E+03  0.00000000000E+00 0.  1.
</event>
<event>
 7    1  0.5064652E-006  0.1538174E+03  0.7818608E-02  0.1228646E+00
          2   -1    0    0  502    0  0.00000000000E+00  0.00000000000E+00  0.87205273122E+03  0.87205273122E+03  0.00000000000E+00 0. -1.
          1   -1    0    0  501    0 -0.00000000000E+00 -0.00000000000E+00 -0.70725777670E+02  0.70725777670E+02  0.00000000000E+00 0. -1.
         25    2    1    2    0    0  0.44120961024E+02  0.81218065989E+02  0.17063790800E+03  0.23083252263E+03  0.12499329748E+03 0.  0.
          2    1    1    2  501    0  0.99832863851E+02  0.42554645223E+02  0.97219862910E+02  0.14570243745E+03  0.00000000000E+00 0. -1.
          1    1    1    2  502    0 -0.14395382487E+03 -0.12377271121E+03  0.53346918264E+03  0.56624354881E+03  0.00000000000E+00 0. -1.
         22    1    3    3    0    0  0.30587308185E+00  0.95378358369E+02  0.15539000094E+03  0.18232711591E+03  0.00000000000E+00 0.  1.
         22    1    3    3    0    0  0.43815087942E+02 -0.14160292380E+02  0.15247907056E+02  0.48505406722E+02  0.00000000000E+00 0.  1.
</event>
<event>
 7    1  0.5064652E-006  0.1571409E+03  0.7818608E-02  0.1396009E+00
          2   -1    0    0  502    0  0.00000000000E+00  0.00000000000E+00  0.96504479103E+03  0.96504479103E+03  0.00000000000E+00 0. -1.
          1   -1    0    0  501    0 -0.00000000000E+00 -0.00000000000E+00 -0.13716355180E+04  0.13716355180E+04  0.00000000000E+00 0. -1.
         25    2    1    2    0    0  0.37152302378E+02  0.13811737593E+03  0.16527076201E+03  0.25178400354E+03  0.12499622618E+03 0.  0.
          2    1    1    2  501    0 -0.11973374255E+02  0.19922886361E+02 -0.13198120638E+04  0.13200167298E+04  0.00000000000E+00 0. -1.
          1    1    1    2  502    0 -0.25178928123E+02 -0.15804026229E+03  0.74795057485E+03  0.76487957571E+03  0.00000000000E+00 0. -1.
         22    1    3    3    0    0  0.59594280932E+02  0.15845794595E+02  0.80122659780E+02  0.10110493626E+03  0.00000000000E+00 0.  1.
         22    1    3    3    0    0 -0.22441978554E+02  0.12227158133E+03  0.85148102226E+02  0.15067906728E+03  0.00000000000E+00 0.  1.
</event>
<event>
 7    1  0.5064652E-006  0.7832450E+02  0.7818608E-02  0.1357548E+00
          2   -1    0    0  502    0  0.00000000000E+00  0.00000000000E+00  0.10458187882E+04  0.10458187882E+04  0.00000000000E+00 0. -1.
          1   -1    0    0  501    0 -0.00000000000E+00 -0.00000000000E+00 -0.16834890982E+03  0.16834890982E+03  0.00000000000E+00 0. -1.
         25    2    1    2    0    0  0.50044139961E+02 -0.12084709883E+03  0.13183146752E+03  0.22386637533E+03  0.12501272309E+03 0.  0.
          2    1    1    2  501    0 -0.54380412499E+01  0.75071522927E+02 -0.10944699373E+03  0.13283053220E+03  0.00000000000E+00 0. -1.
          1    1    1    2  502    0 -0.44606098712E+02  0.45775575907E+02  0.85508540460E+03  0.85747079049E+03  0.00000000000E+00 0. -1.
         22    1    3    3    0    0  0.26569730347E+02 -0.13622856856E+03  0.13734674909E+03  0.19526469970E+03  0.00000000000E+00 0. -1.
         22    1    3    3    0    0  0.23474409614E+02  0.15381469728E+02 -0.55152815749E+01  0.28601675626E+02  0.00000000000E+00 0. -1.
</event>
<event>
 7    1  0.5064652E-006  0.1134680E+03  0.7818608E-02  0.1419496E+00
          2   -1    0    0  502    0  0.00000000000E+00  0.00000000000E+00  0.12410793608E+04  0.12410793608E+04  0.00000000000E+00 0. -1.
          1   -1    0    0  501    0 -0.00000000000E+00 -0.00000000000E+00 -0.33555939324E+03  0.33555939324E+03  0.00000000000E+00 0. -1.
         25    2    1    2    0    0 -0.22612350334E+02  0.94633880201E+02  0.47345815331E+02  0.16532795266E+03  0.12499926413E+03 0.  0.
          2    1    1    2  501    0  0.56221742732E+01 -0.11533859570E+03 -0.26434799575E+03  0.28846917229E+03  0.00000000000E+00 0. -1.
          1    1    1    2  502    0  0.16990176060E+02  0.20704715495E+02  0.11225221480E+04  0.11228416291E+04  0.00000000000E+00 0. -1.
         22    1    3    3    0    0 -0.57845075818E+02  0.95119809768E+02  0.66911491639E+01  0.11152848284E+03  0.00000000000E+00 0. -1.
         22    1    3    3    0    0  0.35232725484E+02 -0.48592956643E+00  0.40654666167E+02  0.53799469828E+02  0.00000000000E+00 0. -1.
</event>
<event>
 7    1  0.5064652E-006  0.7082835E+02  0.7818608E-02  0.1363967E+00
          2   -1    0    0  502    0  0.00000000000E+00  0.00000000000E+00  0.26087452231E+04  0.26087452231E+04  0.00000000000E+00 0. -1.
          1   -1    0    0  501    0 -0.00000000000E+00 -0.00000000000E+00 -0.37566122413E+03  0.37566122413E+03  0.00000000000E+00 0. -1.
         25    2    1    2    0    0  0.37937885285E+01 -0.61993914758E+02  0.20976141162E+03  0.25195850450E+03  0.12500239953E+03 0.  0.
          2    1    1    2  501    0 -0.63323705299E+02  0.21803824625E+02 -0.35085214615E+03  0.35718696348E+03  0.00000000000E+00 0. -1.
          1    1    1    2  502    0  0.59529916770E+02  0.40190090133E+02  0.23741747335E+04  0.23752609792E+04  0.00000000000E+00 0. -1.
         22    1    3    3    0    0 -0.45096491737E+02 -0.76094997485E+02  0.12587620690E+03  0.15384720236E+03  0.00000000000E+00 0.  1.
         22    1    3    3    0    0  0.48890280265E+02  0.14101082727E+02  0.83885204718E+02  0.98111302147E+02  0.00000000000E+00 0.  1.
</event>
<event>
 7    1  0.5064652E-006  0.1194753E+03  0.7818608E-02  0.1345654E+00
          2   -1    0    0  502    0  0.00000000000E+00  0.00000000000E+00  0.82992025408E+02  0.82992025408E+02  0.00000000000E+00 0. -1.
          1   -1    0    0  501    0 -0.00000000000E+00 -0.00000000000E+00 -0.15424487034E+04  0.15424487034E+04  0.00000000000E+00 0. -1.
         25    2    1    2    0    0 -0.10823970887E+03  0.47159115014E+02 -0.64207789313E+03  0.66470197559E+03  0.12499951520E+03 0.  0.
          2    1    1    2  501    0  0.85536079474E+02 -0.87584299346E+02 -0.87683600243E+03  0.88534106735E+03  0.00000000000E+00 0. -1.
          1    1    1    2  502    0  0.22703629399E+02  0.40425184332E+02  0.59457217557E+02  0.75397685878E+02  0.00000000000E+00 0. -1.
         22    1    3    3    0    0 -0.64316350461E+02  0.41166444470E+02 -0.13044959445E+03  0.15115675896E+03  0.00000000000E+00 0.  1.
         22    1    3    3    0    0 -0.43923358411E+02  0.59926705437E+01 -0.51162829867E+03  0.51354521662E+03  0.00000000000E+00 0.  1.
</event>
<event>
 7    1  0.5064652E-006  0.3468862E+02  0.7818608E-02  0.1577633E+00
          2   -1    0    0  502    0  0.00000000000E+00  0.00000000000E+00  0.18657263399E+03  0.18657263399E+03  0.00000000000E+00 0. -1.
          1   -1    0    0  501    0 -0.00000000000E+00 -0.00000000000E+00 -0.36020493448E+03  0.36020493448E+03  0.00000000000E+00 0. -1.
         25    2    1    2    0    0 -0.41889134174E+02 -0.32429861162E+02 -0.88385908231E+02  0.16200088878E+03  0.12500329489E+03 0.  0.
          2    1    1    2  501    0  0.76105384662E+01  0.28398209358E+02 -0.23208316838E+03  0.23393797391E+03  0.00000000000E+00 0. -1.
          1    1    1    2  502    0  0.34278595708E+02  0.40316518034E+01  0.14683677612E+03  0.15083870578E+03  0.00000000000E+00 0. -1.
         22    1    3    3    0    0  0.49560175566E+01  0.32617837633E+02  0.10576605134E+02  0.34646067858E+02  0.00000000000E+00 0.  1.
         22    1    3    3    0    0 -0.46845151731E+02 -0.65047698794E+02 -0.98962513366E+02  0.12735482092E+03  0.00000000000E+00 0.  1.
</event>
<event>
 7    1  0.5618569E-006  0.1115868E+03  0.7818608E-02  0.1286013E+00
          2   -1    0    0  502    0  0.00000000000E+00  0.00000000000E+00  0.81375854083E+03  0.81375854083E+03  0.00000000000E+00 0. -1.
          1   -1    0    0  501    0 -0.00000000000E+00 -0.00000000000E+00 -0.93461649684E+03  0.93461649684E+03  0.00000000000E+00 0. -1.
         25    2    1    2    0    0  0.17530155617E+02  0.12197835609E+03 -0.14300171439E+03  0.22640562599E+03  0.12499596574E+03 0.  0.
          2    1    1    2  501    0  0.62749235252E+02 -0.94368817187E+02 -0.74327112962E+03  0.75186096607E+03  0.00000000000E+00 0. -1.
          1    1    1    2  502    0 -0.80279390870E+02 -0.27609538905E+02  0.76541488799E+03  0.77010844561E+03  0.00000000000E+00 0. -1.
         22    1    3    3    0    0 -0.53992909896E+02  0.47263203903E+02 -0.65553711122E+02  0.97192251770E+02  0.00000000000E+00 0. -1.
         22    1    3    3    0    0  0.71523065513E+02  0.74715152189E+02 -0.77448003268E+02  0.12921337422E+03  0.00000000000E+00 0. -1.
</event>
<event>
 7    1  0.5064652E-006  0.4402701E+02  0.7818608E-02  0.1562114E+00
          2   -1    0    0  502    0  0.00000000000E+00  0.00000000000E+00  0.72723077934E+03  0.72723077934E+03  0.00000000000E+00 0. -1.
          1   -1    0    0  501    0 -0.00000000000E+00 -0.00000000000E+00 -0.10779459618E+03  0.10779459618E+03  0.00000000000E+00 0. -1.
         25    2    1    2    0    0  0.55578743044E+02  0.14587665837E+02  0.21151011072E+03  0.25231428215E+03  0.12499669343E+03 0.  0.
          2    1    1    2  501    0 -0.43147284452E+02  0.77069390679E+01 -0.81543372742E+02  0.92576491096E+02  0.00000000000E+00 0. -1.
          1    1    1    2  502    0 -0.12431458592E+02 -0.22294604905E+02  0.48946944519E+03  0.49013460227E+03  0.00000000000E+00 0. -1.
         22    1    3    3    0    0  0.11379797810E+02 -0.53680152456E+02  0.68182311911E+02  0.87520775953E+02  0.00000000000E+00 0.  1.
         22    1    3    3    0    0  0.44198945235E+02  0.68267818293E+02  0.14332779881E+03  0.16479350620E+03  0.00000000000E+00 0.  1.
</event>
<event>
 7    1  0.5064652E-006  0.1453910E+03  0.7818608E-02  0.1284446E+00
          2   -1    0    0  502    0  0.00000000000E+00  0.00000000000E+00  0.17771302273E+03  0.17771302273E+03  0.00000000000E+00 0. -1.
          1   -1    0    0  501    0 -0.00000000000E+00 -0.00000000000E+00 -0.98681946694E+03  0.98681946694E+03  0.00000000000E+00 0. -1.
         25    2    1    2    0    0  0.58401862575E+02 -0.17120655690E+03 -0.32786024179E+03  0.39475832244E+03  0.12497732716E+03 0.  0.
          2    1    1    2  501    0 -0.76373046095E+00  0.13879382824E+03 -0.60970010785E+03  0.62529875384E+03  0.00000000000E+00 0. -1.
          1    1    1    2  502    0 -0.57638132114E+02  0.32412728662E+02  0.12845390544E+03  0.14447541339E+03  0.00000000000E+00 0. -1.
         22    1    3    3    0    0  0.21498928180E+02 -0.21516249986E+02 -0.17509994861E+03  0.17772210029E+03  0.00000000000E+00 0. -1.
         22    1    3    3    0    0  0.36902934395E+02 -0.14969030692E+03 -0.15276029318E+03  0.21703622215E+03  0.00000000000E+00 0. -1.
</event>
<event>
 7    1  0.5064652E-006  0.7709431E+02  0.7818608E-02  0.1423727E+00
          2   -1    0    0  502    0  0.00000000000E+00  0.00000000000E+00  0.41717272289E+03  0.41717272289E+03  0.00000000000E+00 0. -1.
          1   -1    0    0  501    0 -0.00000000000E+00 -0.00000000000E+00 -0.15121611802E+04  0.15121611802E+04  0.00000000000E+00 0. -1.
         25    2    1    2    0    0  0.76748333759E+02  0.27898258768E+02 -0.30448771748E+03  0.33912639968E+03  0.12500130114E+03 0.  0.
          2    1    1    2  501    0 -0.28592671715E+00 -0.38159891503E+02 -0.11863232190E+04  0.11869368303E+04  0.00000000000E+00 0. -1.
          1    1    1    2  502    0 -0.76462407041E+02  0.10261632736E+02  0.39582247918E+03  0.40327067315E+03  0.00000000000E+00 0. -1.
         22    1    3    3    0    0 -0.31308635106E+02  0.26326296632E+02 -0.73746238945E+02  0.84331561619E+02  0.00000000000E+00 0.  1.
         22    1    3    3    0    0  0.10805696886E+03  0.15719621357E+01 -0.23074147854E+03  0.25479483806E+03  0.00000000000E+00 0.  1.
</event>
<event>
 7    1  0.5064652E-006  0.1311258E+03  0.7818608E-02  0.1302930E+00
          2   -1    0    0  502    0  0.00000000000E+00  0.00000000000E+00  0.28279383194E+04  0.28279383194E+04  0.00000000000E+00 0. -1.
          1   -1    0    0  501    0 -0.00000000000E+00 -0.00000000000E+00 -0.40064527741E+02  0.40064527741E+02  0.00000000000E+00 0. -1.
         25    2    1    2    0    0  0.96301552149E+02 -0.14813506489E+01  0.45705444048E+03  0.48352900478E+03  0.12500141420E+03 0.  0.
          2    1    1    2  501    0 -0.14239618479E+03 -0.39576009131E+02  0.18058463531E+03  0.23335326107E+03  0.00000000000E+00 0. -1.
          1    1    1    2  502    0  0.46094632642E+02  0.41057359780E+02  0.21502347159E+04  0.21511205813E+04  0.00000000000E+00 0. -1.
         22    1    3    3    0    0  0.49544965103E+02  0.25996272864E+02  0.57204333054E+02  0.80017782337E+02  0.00000000000E+00 0.  1.
         22    1    3    3    0    0  0.46756587046E+02 -0.27477623513E+02  0.39985010743E+03  0.40351122244E+03  0.00000000000E+00 0.  1.
</event>
<event>
 7    1  0.5064652E-006  0.4389100E+02  0.7818608E-02  0.1499301E+00
          2   -1    0    0  502    0  0.00000000000E+00  0.00000000000E+00  0.22386565436E+04  0.22386565436E+04  0.00000000000E+00 0. -1.
          1   -1    0    0  501    0 -0.00000000000E+00 -0.00000000000E+00 -0.20812649463E+03  0.20812649463E+03  0.00000000000E+00 0. -1.
         25    2    1    2    0    0 -0.32877390157E+02  0.75093366224E+02  0.70135266259E+03  0.71710548417E+03  0.12499912663E+03 0.  0.
          2    1    1    2  501    0  0.13174293550E+02 -0.41734003726E+02 -0.19761027682E+03  0.20239839570E+03  0.00000000000E+00 0. -1.
          1    1    1    2  502    0  0.19703096607E+02 -0.33359362498E+02  0.15267876632E+04  0.15272791584E+04  0.00000000000E+00 0. -1.
         22    1    3    3    0    0  0.24983188751E+02  0.79697393438E+02  0.29382863601E+03  0.30546865891E+03  0.00000000000E+00 0.  1.
         22    1    3    3    0    0 -0.57860578908E+02 -0.46040272142E+01  0.40752402659E+03  0.41163682525E+03  0.00000000000E+00 0.  1.
</event>
<event>
 7    1  0.5064652E-006  0.1373029E+03  0.7818608E-02  0.1328080E+00
          2   -1    0    0  502    0  0.00000000000E+00  0.00000000000E+00  0.72522373780E+03  0.72522373780E+03  0.00000000000E+00 0. -1.
          1   -1    0    0  501    0 -0.00000000000E+00 -0.00000000000E+00 -0.25697412174E+03  0.25697412174E+03  0.00000000000E+00 0. -1.
         25    2    1    2    0    0  0.89805724144E+02  0.38876440743E+02  0.87029943187E+02  0.18103960255E+03  0.12499872378E+03 0.  0.
          2    1    1    2  501    0 -0.13064988689E+03 -0.62156903602E+02 -0.18395317552E+03  0.23403342580E+03  0.00000000000E+00 0. -1.
          1    1    1    2  502    0  0.40844162750E+02  0.23280462860E+02  0.56517284839E+03  0.56712483118E+03  0.00000000000E+00 0. -1.
         22    1    3    3    0    0 -0.19016557089E+02  0.40716713167E+02  0.59718058568E+01  0.45333681075E+02  0.00000000000E+00 0.  1.
         22    1    3    3    0    0  0.10882228123E+03 -0.18402724243E+01  0.81058137330E+02  0.13570592147E+03  0.00000000000E+00 0.  1.
</event>
<event>
 7    1  0.5064652E-006  0.1248053E+03  0.7818608E-02  0.1375975E+00
          2   -1    0    0  502    0  0.00000000000E+00  0.00000000000E+00  0.14831733405E+04  0.14831733405E+04  0.00000000000E+00 0. -1.
          1   -1    0    0  501    0 -0.00000000000E+00 -0.00000000000E+00 -0.33540147689E+02  0.33540147689E+02  0.00000000000E+00 0. -1.
         25    2    1    2    0    0  0.89255851393E+02  0.10983339030E+03  0.30321681672E+03  0.35720721233E+03  0.12500629572E+03 0.  0.
          2    1    1    2  501    0 -0.34410126246E+02  0.23405235098E+00  0.97271907003E+02  0.10317914257E+03  0.00000000000E+00 0. -1.
          1    1    1    2  502    0 -0.54845725147E+02 -0.11006744265E+03  0.10491444691E+04  0.10563271333E+04  0.00000000000E+00 0. -1.
         22    1    3    3    0    0  0.14527091688E+01 -0.22302889827E+02  0.81942144170E+02  0.84935529961E+02  0.00000000000E+00 0. -1.
         22    1    3    3    0    0  0.87803142224E+02  0.13213628013E+03  0.22127467255E+03  0.27227168237E+03  0.00000000000E+00 0. -1.
</event>
<event>
 7    1  0.5064652E-006  0.8933585E+02  0.7818608E-02  0.1306693E+00
          2   -1    0    0  502    0  0.00000000000E+00  0.00000000000E+00  0.55726284641E+03  0.55726284641E+03  0.00000000000E+00 0. -1.
          1   -1    0    0  501    0 -0.00000000000E+00 -0.00000000000E+00 -0.32634911334E+03  0.32634911334E+03  0.00000000000E+00 0. -1.
         25    2    1    2    0    0 -0.61119587839E+02  0.53688960726E+02  0.44615682374E+03  0.47042481460E+03  0.12500194516E+03 0.  0.
          2    1    1    2  501    0 -0.74591806331E+02 -0.49162545924E+02 -0.25622356241E+03  0.27135107780E+03  0.00000000000E+00 0. -1.
          1    1    1    2  502    0  0.13571139417E+03 -0.45264148028E+01  0.40980471730E+02  0.14183606735E+03  0.00000000000E+00 0. -1.
         22    1    3    3    0    0 -0.68578053564E+02 -0.67631426570E+01  0.34911322654E+03  0.35584931428E+03  0.00000000000E+00 0.  1.
         22    1    3    3    0    0  0.74584657249E+01  0.60452103383E+02  0.97043597206E+02  0.11457550032E+03  0.00000000000E+00 0.  1.
</event>
<event>
 7    1  0.5064652E-006  0.1185310E+03  0.7818608E-02  0.1452136E+00
          2   -1    0    0  502    0  0.00000000000E+00  0.00000000000E+00  0.12048281046E+03  0.12048281046E+03  0.00000000000E+00 0. -1.
          1   -1    0    0  501    0 -0.00000000000E+00 -0.00000000000E+00 -0.16786066285E+04  0.16786066285E+04  0.00000000000E+00 0. -1.
         25    2    1    2    0    0 -0.68191889757E+02  0.77859787430E+02 -0.13163244650E+04  0.13262906574E+04  0.12499812180E+03 0.  0.
          2    1    1    2  501    0  0.73382151031E+00  0.20046456095E+02 -0.32631128857E+03  0.32692729458E+03  0.00000000000E+00 0. -1.
          1    1    1    2  502    0  0.67458068247E+02 -0.97906243526E+02  0.84511935461E+02  0.14587148703E+03  0.00000000000E+00 0. -1.
         22    1    3    3    0    0 -0.39633093733E+02  0.10241889680E+03 -0.11719291872E+04  0.11770634785E+04  0.00000000000E+00 0. -1.
         22    1    3    3    0    0 -0.28558796024E+02 -0.24559109367E+02 -0.14439527774E+03  0.14922717888E+03  0.00000000000E+00 0. -1.
</event>
<event>
 7    1  0.5064652E-006  0.7650435E+02  0.7818608E-02  0.1424566E+00
          2   -1    0    0  502    0  0.00000000000E+00  0.00000000000E+00  0.75979485046E+03  0.75979485046E+03  0.00000000000E+00 0. -1.
          1   -1    0    0  501    0 -0.00000000000E+00 -0.00000000000E+00 -0.45579033678E+03  0.45579033678E+03  0.00000000000E+00 0. -1.
         25    2    1    2    0    0  0.11033379118E+03 -0.83347696998E+01  0.27983792874E+03  0.32584854337E+03  0.12499997198E+03 0.  0.
          2    1    1    2  501    0 -0.73692828192E+02  0.19169716554E+02 -0.42862483215E+03  0.43533591363E+03  0.00000000000E+00 0. -1.
          1    1    1    2  502    0 -0.36640962986E+02 -0.10834946854E+02  0.45279141710E+03  0.45440073024E+03  0.00000000000E+00 0. -1.
         22    1    3    3    0    0  0.40243450507E+02  0.43950090043E+02  0.43290458851E+02  0.73656021825E+02  0.00000000000E+00 0. -1.
         22    1    3    3    0    0  0.70090340671E+02 -0.52284859743E+02  0.23654746989E+03  0.25219252155E+03  0.00000000000E+00 0. -1.
</event>
<event>
 7    1  0.5064652E-006  0.5848902E+02  0.7818608E-02  0.1499237E+00
          2   -1    0    0  502    0  0.00000000000E+00  0.00000000000E+00  0.18428002168E+04  0.18428002168E+04  0.00000000000E+00 0. -1.
          1   -1    0    0  501    0 -0.00000000000E+00 -0.00000000000E+00 -0.75090911837E+02  0.75090911837E+02  0.00000000000E+00 0. -1.
         25    2    1    2    0    0 -0.36073817768E+02  0.76556410768E+02  0.12683809272E+04  0.12773325870E+04  0.12500462763E+03 0.  0.
          2    1    1    2  501    0  0.33617478520E+02 -0.47573951857E+02 -0.58157322134E+02  0.82314578751E+02  0.00000000000E+00 0. -1.
          1    1    1    2  502    0  0.24563392488E+01 -0.28982458911E+02  0.55748569985E+03  0.55824396285E+03  0.00000000000E+00 0. -1.
         22    1    3    3    0    0 -0.76295486772E+02  0.17579332308E+02  0.58016232679E+03  0.58542152305E+03  0.00000000000E+00 0.  1.
         22    1    3    3    0    0  0.40221669004E+02  0.58977078460E+02  0.68821860044E+03  0.69191106396E+03  0.00000000000E+00 0.  1.
</event>
<event>
 7    1  0.5064652E-006  0.6502292E+02  0.7818608E-02  0.1478246E+00
          2   -1    0    0  502    0  0.00000000000E+00  0.00000000000E+00  0.78216325331E+03  0.78216325331E+03  0.00000000000E+00 0. -1.
          1   -1    0    0  501    0 -0.00000000000E+00 -0.00000000000E+00 -0.93095653564E+02  0.93095653564E+02  0.00000000000E+00 0. -1.
         25    2    1    2    0    0 -0.37007527412E+02 -0.51500856197E+02  0.97414398700E+02  0.17069379044E+03  0.12499963899E+03 0.  0.
          2    1    1    2  501    0 -0.21183393887E+02  0.21652590922E+02 -0.50609042419E+02  0.58981743318E+02  0.00000000000E+00 0. -1.
          1    1    1    2  502    0  0.58190921299E+02  0.29848265275E+02  0.64226224347E+03  0.64558337312E+03  0.00000000000E+00 0. -1.
         22    1    3    3    0    0  0.43576606130E+02 -0.39269053225E+02  0.40716264804E+02  0.71405835634E+02  0.00000000000E+00 0.  1.
         22    1    3    3    0    0 -0.80584133542E+02 -0.12231802972E+02  0.56698133896E+02  0.99287954808E+02  0.00000000000E+00 0.  1.
</event>
<event>
 7    1  0.5064652E-006  0.9441398E+02  0.7818608E-02  0.1363827E+00
          2   -1    0    0  502    0  0.00000000000E+00  0.00000000000E+00  0.93633548447E+03  0.93633548447E+03  0.00000000000E+00 0. -1.
          1   -1    0    0  501    0 -0.00000000000E+00 -0.00000000000E+00 -0.17948004722E+04  0.17948004722E+04  0.00000000000E+00 0. -1.
         25    2    1    2    0    0  0.71990702456E+02 -0.11021021595E+03 -0.37986110980E+02  0.18546900226E+03  0.12500741271E+03 0.  0.
          2    1    1    2  501    0 -0.25827938293E+02  0.90231209512E+02 -0.16810294965E+04  0.16836475052E+04  0.00000000000E+00 0. -1.
          1    1    1    2  502    0 -0.46162764163E+02  0.19979006434E+02  0.86055061982E+03  0.86201944918E+03  0.00000000000E+00 0. -1.
         22    1    3    3    0    0  0.54790873355E+02  0.13640479990E+02 -0.10139898763E+02  0.57366541156E+02  0.00000000000E+00 0. -1.
         22    1    3    3    0    0  0.17199829101E+02 -0.12385069594E+03 -0.27846212217E+02  0.12810246110E+03  0.00000000000E+00 0. -1.
</event>
<event>
 7    1  0.5064652E-006  0.1936788E+03  0.7818608E-02  0.1168405E+00
          2   -1    0    0  502    0  0.00000000000E+00  0.00000000000E+00  0.14710243742E+04  0.14710243742E+04  0.00000000000E+00 0. -1.
          1   -1    0    0  501    0 -0.00000000000E+00 -0.00000000000E+00 -0.11678749757E+04  0.11678749757E+04  0.00000000000E+00 0. -1.
         25    2    1    2    0    0 -0.45913522023E+02  0.24755713555E+03 -0.47701280898E+03  0.55367795804E+03  0.12500189768E+03 0.  0.
          2    1    1    2  501    0  0.14810854969E+03 -0.11657215935E+03 -0.63395401917E+03  0.66137955007E+03  0.00000000000E+00 0. -1.
          1    1    1    2  502    0 -0.10219502767E+03 -0.13098497619E+03  0.14141162267E+04  0.14238418417E+04  0.00000000000E+00 0. -1.
         22    1    3    3    0    0  0.35872665727E+02  0.13887517523E+03 -0.21481571559E+03  0.25830012410E+03  0.00000000000E+00 0.  1.
         22    1    3    3    0    0 -0.81786187750E+02  0.10868196031E+03 -0.26219709339E+03  0.29537783394E+03  0.00000000000E+00 0.  1.
</event>
<event>
 7    1  0.5064652E-006  0.1108097E+03  0.7818608E-02  0.1323654E+00
          2   -1    0    0  502    0  0.00000000000E+00  0.00000000000E+00  0.26696901919E+04  0.26696901919E+04  0.00000000000E+00 0. -1.
          1   -1    0    0  501    0 -0.00000000000E+00 -0.00000000000E+00 -0.16558559265E+03  0.16558559265E+03  0.00000000000E+00 0. -1.
         25    2    1    2    0    0  0.13619609101E+03 -0.84366726241E+02  0.16916891021E+03  0.26439898215E+03  0.12498632676E+03 0.  0.
          2    1    1    2  501    0 -0.99262652940E+02  0.36345990253E+02 -0.93836924620E+02  0.14134876617E+03  0.00000000000E+00 0. -1.
          1    1    1    2  502    0 -0.36933438067E+02  0.48020735988E+02  0.24287726137E+04  0.24295280362E+04  0.00000000000E+00 0. -1.
         22    1    3    3    0    0  0.55970120656E+02  0.85610985029E+01  0.11898637046E+03  0.13177140498E+03  0.00000000000E+00 0.  1.
         22    1    3    3    0    0  0.80225970351E+02 -0.92927824744E+02  0.50182539747E+02  0.13262757717E+03  0.00000000000E+00 0.  1.
</event>
<event>
 7    1  0.5064652E-006  0.1616666E+03  0.7818608E-02  0.1258616E+00
          2   -1    0    0  502    0  0.00000000000E+00  0.00000000000E+00  0.98255497305E+03  0.98255497305E+03  0.00000000000E+00 0. -1.
          1   -1    0    0  501    0 -0.00000000000E+00 -0.00000000000E+00 -0.45507118468E+03  0.45507118468E+03  0.00000000000E+00 0. -1.
         25    2    1    2    0    0 -0.56364809057E+02  0.20353592779E+03  0.16839733976E+03  0.29763539209E+03  0.12500118794E+03 0.  0.
          2    1    1    2  501    0 -0.27107947691E+02 -0.71319431519E+02 -0.37844867283E+03  0.38606307788E+03  0.00000000000E+00 0. -1.
          1    1    1    2  502    0  0.83472756747E+02 -0.13221649627E+03  0.73753512143E+03  0.75392768775E+03  0.00000000000E+00 0. -1.
         22    1    3    3    0    0 -0.76962994452E+02  0.60302990189E+02  0.90815881958E+02  0.13344391165E+03  0.00000000000E+00 0. -1.
         22    1    3    3    0    0  0.20598185395E+02  0.14323293760E+03  0.77581457802E+02  0.16419148044E+03  0.00000000000E+00 0. -1.
</event>
<event>
 7    1  0.5064652E-006  0.6191867E+02  0.7818608E-02  0.1429169E+00
          2   -1    0    0  502    0  0.00000000000E+00  0.00000000000E+00  0.11069990869E+04  0.11069990869E+04  0.00000000000E+00 0. -1.
          1   -1    0    0  501    0 -0.00000000000E+00 -0.00000000000E+00 -0.19960076434E+03  0.19960076434E+03  0.00000000000E+00 0. -1.
         25    2    1    2    0    0  0.11104248756E+02 -0.10622036556E+03  0.62139175789E+03  0.64277416010E+03  0.12499933487E+03 0.  0.
          2    1    1    2  501    0 -0.21468211619E+01  0.61525017637E+02 -0.18275891943E+03  0.19284905825E+03  0.00000000000E+00 0. -1.
          1    1    1    2  502    0 -0.89574275941E+01  0.44695347920E+02  0.46876548416E+03  0.47097663294E+03  0.00000000000E+00 0. -1.
         22    1    3    3    0    0  0.96400590929E+01  0.19359088137E+02  0.23925108690E+02  0.32250827255E+02  0.00000000000E+00 0. -1.
         22    1    3    3    0    0  0.14641896631E+01 -0.12557945369E+03  0.59746664920E+03  0.61052333284E+03  0.00000000000E+00 0. -1.
</event>
<event>
 7    1  0.5064652E-006  0.3258627E+02  0.7818608E-02  0.1596809E+00
          2   -1    0    0  502    0  0.00000000000E+00  0.00000000000E+00  0.14844551645E+04  0.14844551645E+04  0.00000000000E+00 0. -1.
          1   -1    0    0  501    0 -0.00000000000E+00 -0.00000000000E+00 -0.67289739672E+02  0.67289739672E+02  0.00000000000E+00 0. -1.
         25    2    1    2    0    0 -0.13406759596E+02 -0.35147207445E+02  0.91817836031E+03  0.92741074818E+03  0.12499650835E+03 0.  0.
          2    1    1    2  501    0 -0.13853248551E+02  0.29527693199E+02 -0.58059023860E+02  0.66593148391E+02  0.00000000000E+00 0. -1.
          1    1    1    2  502    0  0.27260008148E+02  0.56195142467E+01  0.55704608841E+03  0.55774100764E+03  0.00000000000E+00 0. -1.
         22    1    3    3    0    0 -0.33655136575E+02 -0.65766363463E+02  0.33366523946E+03  0.34174606772E+03  0.00000000000E+00 0.  1.
         22    1    3    3    0    0  0.20248376979E+02  0.30619156018E+02  0.58451312085E+03  0.58566468046E+03  0.00000000000E+00 0.  1.
</event>
<event>
 7    1  0.5064652E-006  0.5793733E+02  0.7818608E-02  0.1487224E+00
          2   -1    0    0  502    0  0.00000000000E+00  0.00000000000E+00  0.22664340750E+04  0.22664340750E+04  0.00000000000E+00 0. -1.
          1   -1    0    0  501    0 -0.00000000000E+00 -0.00000000000E+00 -0.18962337982E+04  0.18962337982E+04  0.00000000000E+00 0. -1.
         25    2    1    2    0    0 -0.20749814943E+02 -0.16587880665E+02  0.34273949478E+02  0.13228350923E+03  0.12497403968E+03 0.  0.
          2    1    1    2  501    0 -0.20442878360E+02 -0.24507947535E+02 -0.18467034087E+04  0.18469791635E+04  0.00000000000E+00 0. -1.
          1    1    1    2  502    0  0.41192693303E+02  0.41095828200E+02  0.21826297360E+04  0.21834052005E+04  0.00000000000E+00 0. -1.
         22    1    3    3    0    0  0.30399476149E+02 -0.64825918763E+01  0.64798079655E+02  0.71867539783E+02  0.00000000000E+00 0.  1.
         22    1    3    3    0    0 -0.51149291092E+02 -0.10105288789E+02 -0.30524130176E+02  0.60415969443E+02  0.00000000000E+00 0.  1.
</event>
<event>
 7    1  0.5064652E-006  0.7045680E+02  0.7818608E-02  0.1373706E+00
          2   -1    0    0  502    0  0.00000000000E+00  0.00000000000E+00  0.11810501059E+04  0.11810501059E+04  0.00000000000E+00 0. -1.
          1   -1    0    0  501    0 -0.00000000000E+00 -0.00000000000E+00 -0.39963629613E+02  0.39963629613E+02  0.00000000000E+00 0. -1.
         25    2    1    2    0    0 -0.38228280845E+02 -0.97439942809E+02  0.34245707893E+03  0.37928650597E+03  0.12500183514E+03 0.  0.
          2    1    1    2  501    0  0.54198914075E+02  0.30317569252E+02  0.28183622098E+02  0.68198195334E+02  0.00000000000E+00 0. -1.
          1    1    1    2  502    0 -0.15970633230E+02  0.67122373557E+02  0.77044577530E+03  0.77352903426E+03  0.00000000000E+00 0. -1.
         22    1    3    3    0    0 -0.17461779625E+02  0.23262768182E+02  0.13733729036E+03  0.14038376493E+03  0.00000000000E+00 0. -1.
         22    1    3    3    0    0 -0.20766501220E+02 -0.12070271099E+03  0.20511978857E+03  0.23890274104E+03  0.00000000000E+00 0. -1.
</event>
<event>
 7    1  0.5064652E-006  0.7438472E+02  0.7818608E-02  0.1374184E+00
          2   -1    0    0  502    0  0.00000000000E+00  0.00000000000E+00  0.14512726198E+04  0.14512726198E+04  0.00000000000E+00 0. -1.
          1   -1    0    0  501    0 -0.00000000000E+00 -0.00000000000E+00 -0.92137821860E+03  0.92137821860E+03  0.00000000000E+00 0. -1.
         25    2    1    2    0    0 -0.32504206835E+02 -0.12591410002E+03  0.92793842664E+02  0.20284642302E+03  0.12500036019E+03 0.  0.
          2    1    1    2  501    0  0.25157303369E+02  0.52915829129E+02 -0.86432692092E+03  0.86631056851E+03  0.00000000000E+00 0. -1.
          1    1    1    2  502    0  0.73469034655E+01  0.72998270895E+02  0.13014274794E+04  0.13034938468E+04  0.00000000000E+00 0. -1.
         22    1    3    3    0    0  0.25080733034E+02 -0.11073760839E+03  0.86946214841E+02  0.14300875972E+03  0.00000000000E+00 0. -1.
         22    1    3    3    0    0 -0.57584939868E+02 -0.15176491633E+02  0.58476278230E+01  0.59837663299E+02  0.00000000000E+00 0. -1.
</event>
<event>
 7    1  0.5064652E-006  0.7202774E+02  0.7818608E-02  0.1362863E+00
          2   -1    0    0  502    0  0.00000000000E+00  0.00000000000E+00  0.48719047478E+03  0.48719047478E+03  0.00000000000E+00 0. -1.
          1   -1    0    0  501    0 -0.00000000000E+00 -0.00000000000E+00 -0.11601693797E+03  0.11601693797E+03  0.00000000000E+00 0. -1.
         25    2    1    2    0    0  0.11545258877E+03  0.25643134802E+02  0.25119192856E+03  0.30448144172E+03  0.12499877104E+03 0.  0.
          2    1    1    2  501    0 -0.52449560920E+02 -0.46822703627E+02 -0.68930466571E+02  0.98461826295E+02  0.00000000000E+00 0. -1.
          1    1    1    2  502    0 -0.63003027854E+02  0.21179568825E+02  0.18891207482E+03  0.20026414473E+03  0.00000000000E+00 0. -1.
         22    1    3    3    0    0  0.89487813467E+02  0.23109638179E+02  0.26079049748E+03  0.27668358772E+03  0.00000000000E+00 0.  1.
         22    1    3    3    0    0  0.25964775308E+02  0.25334966233E+01 -0.95985689193E+01  0.27797854004E+02  0.00000000000E+00 0.  1.
</event>
<event>
 7    1  0.5064652E-006  0.5733166E+02  0.7818608E-02  0.1438902E+00
          2   -1    0    0  502    0  0.00000000000E+00  0.00000000000E+00  0.71769018485E+02  0.71769018485E+02  0.00000000000E+00 0. -1.
          1   -1    0    0  501    0 -0.00000000000E+00 -0.00000000000E+00 -0.63907375562E+03  0.63907375562E+03  0.00000000000E+00 0. -1.
         25    2    1    2    0    0  0.90763789958E+01 -0.22443086979E+02 -0.21181781215E+03  0.24713989451E+03  0.12500107642E+03 0.  0.
          2    1    1    2  501    0 -0.30843597371E+02 -0.33787938757E+02 -0.39103836434E+03  0.39370541613E+03  0.00000000000E+00 0. -1.
          1    1    1    2  502    0  0.21767218375E+02  0.56231025736E+02  0.35551439355E+02  0.69997463464E+02  0.00000000000E+00 0. -1.
         22    1    3    3    0    0 -0.10348018732E+02  0.30588936799E+02 -0.17885524838E+03  0.18174697912E+03  0.00000000000E+00 0.  1.
         22    1    3    3    0    0  0.19424397728E+02 -0.53032023778E+02 -0.32962563769E+02  0.65392915391E+02  0.00000000000E+00 0.  1.
</event>
<event>
 7    1  0.5064652E-006  0.1125609E+03  0.7818608E-02  0.1371665E+00
          2   -1    0    0  502    0  0.00000000000E+00  0.00000000000E+00  0.17874631542E+04  0.17874631542E+04  0.00000000000E+00 0. -1.
          1   -1    0    0  501    0 -0.00000000000E+00 -0.00000000000E+00 -0.77768365739E+03  0.77768365739E+03  0.00000000000E+00 0. -1.
         25    2    1    2    0    0 -0.34864116485E+02  0.90508081164E+02  0.22886457664E+03  0.27822822978E+03  0.12499893612E+03 0.  0.
          2    1    1    2  501    0  0.22805340697E+01 -0.11289334524E+03 -0.74851189027E+03  0.75698094963E+03  0.00000000000E+00 0. -1.
          1    1    1    2  502    0  0.32583582415E+02  0.22385264078E+02  0.15294268104E+04  0.15299376322E+04  0.00000000000E+00 0. -1.
         22    1    3    3    0    0 -0.19155686172E+02  0.47377950602E+02  0.69005452138E+01  0.51567703460E+02  0.00000000000E+00 0. -1.
         22    1    3    3    0    0 -0.15708430313E+02  0.43130130562E+02  0.22196403142E+03  0.22666052632E+03  0.00000000000E+00 0. -1.
</event>
<event>
 7    1  0.5064652E-006  0.1736119E+03  0.7818608E-02  0.1323097E+00
          2   -1    0    0  502    0  0.00000000000E+00  0.00000000000E+00  0.11438008493E+04  0.11438008493E+04  0.00000000000E+00 0. -1.
          1   -1    0    0  501    0 -0.00000000000E+00 -0.00000000000E+00 -0.21363774613E+03  0.21363774613E+03  0.00000000000E+00 0. -1.
         25    2    1    2    0    0 -0.36866127465E+02 -0.19019578346E+03 -0.83331178417E+02  0.24515912675E+03  0.12500145892E+03 0.  0.
          2    1    1    2  501    0 -0.25780425009E+02  0.29074933556E+02 -0.33380587212E+02  0.51227391867E+02  0.00000000000E+00 0. -1.
          1    1    1    2  502    0  0.62646552474E+02  0.16112084990E+03  0.10468748688E+04  0.10610520768E+04  0.00000000000E+00 0. -1.
         22    1    3    3    0    0 -0.54647741075E+02 -0.17616575183E+03 -0.10631230632E+03  0.21289211868E+03  0.00000000000E+00 0. -1.
         22    1    3    3    0    0  0.17781613610E+02 -0.14030031628E+02  0.22981127899E+02  0.32267008066E+02  0.00000000000E+00 0. -1.
</event>
<event>
 7    1  0.5064652E-006  0.1149442E+03  0.7818608E-02  0.1326204E+00
          2   -1    0    0  502    0  0.00000000000E+00  0.00000000000E+00  0.31664599382E+02  0.31664599382E+02  0.00000000000E+00 0. -1.
          1   -1    0    0  501    0 -0.00000000000E+00 -0.00000000000E+00 -0.26602116177E+04  0.26602116177E+04  0.00000000000E+00 0. -1.
         25    2    1    2    0    0  0.76429118400E+01  0.91332979402E+02 -0.83040735839E+03  0.84474911283E+03  0.12499822208E+03 0.  0.
          2    1    1    2  501    0 -0.62462790585E+02 -0.10729532786E+03 -0.17839880911E+04  0.17883029377E+04  0.00000000000E+00 0. -1.
          1    1    1    2  502    0  0.54819878745E+02  0.15962348457E+02 -0.14151568786E+02  0.58824166573E+02  0.00000000000E+00 0. -1.
         22    1    3    3    0    0  0.22979616578E+02  0.54548242248E+00 -0.53116084414E+03  0.53165797528E+03  0.00000000000E+00 0.  1.
         22    1    3    3    0    0 -0.15336704738E+02  0.90787496980E+02 -0.29924651425E+03  0.31309113755E+03  0.00000000000E+00 0.  1.
</event>
<event>
 7    1  0.5064652E-006  0.9825794E+02  0.7818608E-02  0.1354712E+00
          2   -1    0    0  502    0  0.00000000000E+00  0.00000000000E+00  0.73852648659E+03  0.73852648659E+03  0.00000000000E+00 0. -1.
          1   -1    0    0  501    0 -0.00000000000E+00 -0.00000000000E+00 -0.24022255112E+03  0.24022255112E+03  0.00000000000E+00 0. -1.
         25    2    1    2    0    0  0.51856560580E+02  0.23578855736E+02 -0.30447415147E+02  0.14070106207E+03  0.12499871386E+03 0.  0.
          2    1    1    2  501    0  0.16844612268E+02  0.49391356068E+02 -0.14643924248E+03  0.15545963706E+03  0.00000000000E+00 0. -1.
          1    1    1    2  502    0 -0.68701172848E+02 -0.72970211804E+02  0.67519059309E+03  0.68258833858E+03  0.00000000000E+00 0. -1.
         22    1    3    3    0    0 -0.65002466379E-01  0.64827482047E+02 -0.36007526602E+02  0.74156244685E+02  0.00000000000E+00 0. -1.
         22    1    3    3    0    0  0.51921563046E+02 -0.41248626311E+02  0.55601114550E+01  0.66544817387E+02  0.00000000000E+00 0. -1.
</event>
<event>
 7    1  0.5064652E-006  0.1811728E+03  0.7818608E-02  0.1174045E+00
          2   -1    0    0  502    0  0.00000000000E+00  0.00000000000E+00  0.25401211965E+03  0.25401211965E+03  0.00000000000E+00 0. -1.
          1   -1    0    0  501    0 -0.00000000000E+00 -0.00000000000E+00 -0.45907618855E+03  0.45907618855E+03  0.00000000000E+00 0. -1.
         25    2    1    2    0    0 -0.84013179321E+02 -0.17866387635E+03 -0.87708342660E+02  0.24959334739E+03  0.12500036272E+03 0.  0.
          2    1    1    2  501    0  0.19088171221E+03  0.50944390347E+02 -0.19691086780E+03  0.27893556392E+03  0.00000000000E+00 0. -1.
          1    1    1    2  502    0 -0.10686853289E+03  0.12771948600E+03  0.79555141560E+02  0.18455939688E+03  0.00000000000E+00 0. -1.
         22    1    3    3    0    0  0.96422247517E+01 -0.12447525213E+03 -0.37873717619E+02  0.13046639175E+03  0.00000000000E+00 0.  1.
         22    1    3    3    0    0 -0.93655404073E+02 -0.54188624220E+02 -0.49834625041E+02  0.11912695564E+03  0.00000000000E+00 0.  1.
</event>
<event>
 7    1  0.5064652E-006  0.5904925E+02  0.7818608E-02  0.1431468E+00
          2   -1    0    0  502    0  0.00000000000E+00  0.00000000000E+00  0.15612280036E+04  0.15612280036E+04  0.00000000000E+00 0. -1.
          1   -1    0    0  501    0 -0.00000000000E+00 -0.00000000000E+00 -0.91814450709E+03  0.91814450709E+03  0.00000000000E+00 0. -1.
         25    2    1    2    0    0  0.82012739334E+02  0.53757900249E+02  0.41862390220E+02  0.16429796493E+03  0.12500144124E+03 0.  0.
          2    1    1    2  501    0 -0.24973652385E+02 -0.39784804203E+02 -0.85569100307E+03  0.85697935022E+03  0.00000000000E+00 0. -1.
          1    1    1    2  502    0 -0.57039086949E+02 -0.13973096046E+02  0.14569121094E+04  0.14580951956E+04  0.00000000000E+00 0. -1.
         22    1    3    3    0    0  0.52639368720E+02 -0.77222493334E+01  0.72222891801E+02  0.89703301913E+02  0.00000000000E+00 0. -1.
         22    1    3    3    0    0  0.29373370614E+02  0.61480149583E+02 -0.30360501581E+02  0.74594663014E+02  0.00000000000E+00 0. -1.
</event>
<event>
 7    1  0.5064652E-006  0.9224801E+02  0.7818608E-02  0.1333621E+00
          2   -1    0    0  502    0  0.00000000000E+00  0.00000000000E+00  0.15031073096E+03  0.15031073096E+03  0.00000000000E+00 0. -1.
          1   -1    0    0  501    0 -0.00000000000E+00 -0.00000000000E+00 -0.22556369397E+04  0.22556369397E+04  0.00000000000E+00 0. -1.
         25    2    1    2    0    0 -0.10208636006E+03 -0.78541737057E+02 -0.22168585291E+03  0.28523709361E+03  0.12500061127E+03 0.  0.
          2    1    1    2  501    0  0.66466131246E+02 -0.49479841471E+01 -0.19841560781E+04  0.19852751878E+04  0.00000000000E+00 0. -1.
          1    1    1    2  502    0  0.35620228818E+02  0.83489721204E+02  0.10051572224E+03  0.13543538926E+03  0.00000000000E+00 0. -1.
         22    1    3    3    0    0  0.74852691337E+01 -0.44582413153E+02 -0.12896589026E+02  0.47010028984E+02  0.00000000000E+00 0.  1.
         22    1    3    3    0    0 -0.10957162920E+03 -0.33959323904E+02 -0.20878926389E+03  0.23822706463E+03  0.00000000000E+00 0.  1.
</event>
<event>
 7    1  0.5064652E-006  0.8274128E+02  0.7818608E-02  0.1447013E+00
          2   -1    0    0  502    0  0.00000000000E+00  0.00000000000E+00  0.23412834612E+04  0.23412834612E+04  0.00000000000E+00 0. -1.
          1   -1    0    0  501    0 -0.00000000000E+00 -0.00000000000E+00 -0.10250117123E+04  0.10250117123E+04  0.00000000000E+00 0. -1.
         25    2    1    2    0    0  0.48719808686E+02 -0.32300857014E+02  0.55454661631E+03  0.57145746675E+03  0.12499888610E+03 0.  0.
          2    1    1    2  501    0 -0.55662390512E+02  0.61324989344E+02 -0.10147439188E+04  0.10181180073E+04  0.00000000000E+00 0. -1.
          1    1    1    2  502    0  0.69425818258E+01 -0.29024132330E+02  0.17764690515E+04  0.17767196995E+04  0.00000000000E+00 0. -1.
         22    1    3    3    0    0 -0.25965198921E+02  0.23014509143E+02  0.26748091714E+03  0.26972189422E+03  0.00000000000E+00 0. -1.
         22    1    3    3    0    0  0.74685007607E+02 -0.55315366157E+02  0.28706569917E+03  0.30173557253E+03  0.00000000000E+00 0. -1.
</event>
<event>
 7    1  0.5064652E-006  0.9048963E+02  0.7818608E-02  0.1447057E+00
          2   -1    0    0  502    0  0.00000000000E+00  0.00000000000E+00  0.47263884079E+03  0.47263884079E+03  0.00000000000E+00 0. -1.
          1   -1    0    0  501    0 -0.00000000000E+00 -0.00000000000E+00 -0.10038993682E+04  0.10038993682E+04  0.00000000000E+00 0. -1.
         25    2    1    2    0    0 -0.57003470218E+02 -0.35553709214E+02  0.89827138412E+02  0.16795124238E+03  0.12500097265E+03 0.  0.
          2    1    1    2  501    0 -0.24495573267E+02 -0.12003586101E+02 -0.95816405392E+03  0.95855227996E+03  0.00000000000E+00 0. -1.
          1    1    1    2  502    0  0.81499043485E+02  0.47557295315E+02  0.33707638811E+03  0.35003468664E+03  0.00000000000E+00 0. -1.
         22    1    3    3    0    0 -0.37389770198E+02 -0.61808813843E+02 -0.10055068655E+00  0.72238040495E+02  0.00000000000E+00 0. -1.
         22    1    3    3    0    0 -0.19613700020E+02  0.26255104629E+02  0.89927689098E+02  0.95713201880E+02  0.00000000000E+00 0. -1.
</event>
<event>
 7    1  0.5064652E-006  0.9347234E+02  0.7818608E-02  0.1304861E+00
          2   -1    0    0  502    0  0.00000000000E+00  0.00000000000E+00  0.13351710060E+04  0.13351710060E+04  0.00000000000E+00 0. -1.
          1   -1    0    0  501    0 -0.00000000000E+00 -0.00000000000E+00 -0.21651411229E+03  0.21651411229E+03  0.00000000000E+00 0. -1.
         25    2    1    2    0    0  0.10730738049E+02  0.34005523623E+02  0.12056284427E+03  0.17729045796E+03  0.12499993075E+03 0.  0.
          2    1    1    2  501    0  0.61573288173E+02 -0.78839073293E+02 -0.17320117630E+03  0.20001379144E+03  0.00000000000E+00 0. -1.
          1    1    1    2  502    0 -0.72304026222E+02  0.44833549670E+02  0.11712952258E+04  0.11743808689E+04  0.00000000000E+00 0. -1.
         22    1    3    3    0    0  0.56931303658E+02 -0.12795028320E+02  0.83299092702E+02  0.10170361317E+03  0.00000000000E+00 0. -1.
         22    1    3    3    0    0 -0.46200565609E+02  0.46800551943E+02  0.37263751565E+02  0.75586844791E+02  0.00000000000E+00 0. -1.
</event>
<event>
 7    1  0.5064652E-006  0.1204300E+03  0.7818608E-02  0.1276889E+00
          2   -1    0    0  502    0  0.00000000000E+00  0.00000000000E+00  0.93177003804E+03  0.93177003804E+03  0.00000000000E+00 0. -1.
          1   -1    0    0  501    0 -0.00000000000E+00 -0.00000000000E+00 -0.89743654173E+02  0.89743654173E+02  0.00000000000E+00 0. -1.
         25    2    1    2    0    0 -0.10591665841E+03  0.11780676747E+02  0.22075274609E+03  0.27516057518E+03  0.12499777739E+03 0.  0.
          2    1    1    2  501    0  0.10765188654E+03  0.73979868901E+02  0.12111969387E+02  0.13118174218E+03  0.00000000000E+00 0. -1.
          1    1    1    2  502    0 -0.17352281373E+01 -0.85760545648E+02  0.60916166839E+03  0.61517137485E+03  0.00000000000E+00 0. -1.
         22    1    3    3    0    0 -0.68450200161E+02 -0.25559264866E+02  0.33134835426E+02  0.80228568735E+02  0.00000000000E+00 0.  1.
         22    1    3    3    0    0 -0.37466458246E+02  0.37339941613E+02  0.18761791067E+03  0.19493200644E+03  0.00000000000E+00 0.  1.
</event>
<event>
 7    1  0.5064652E-006  0.5981311E+02  0.7818608E-02  0.1474707E+00
          2   -1    0    0  502    0  0.00000000000E+00  0.00000000000E+00  0.32421037435E+02  0.32421037435E+02  0.00000000000E+00 0. -1.
          1   -1    0    0  501    0 -0.00000000000E+00 -0.00000000000E+00 -0.64532973468E+03  0.64532973468E+03  0.00000000000E+00 0. -1.
         25    2    1    2    0    0  0.45802277043E+02 -0.37130780041E+02 -0.35944408594E+03  0.38509884402E+03  0.12499810136E+03 0.  0.
          2    1    1    2  501    0  0.14878208333E+02  0.30313216680E+02 -0.22086700005E+03  0.22343339925E+03  0.00000000000E+00 0. -1.
          1    1    1    2  502    0 -0.60680485376E+02  0.68175633605E+01 -0.32597611257E+02  0.69218528844E+02  0.00000000000E+00 0. -1.
         22    1    3    3    0    0  0.72452108603E+02 -0.43122079124E+02 -0.13616615273E+03  0.16015630771E+03  0.00000000000E+00 0. -1.
         22    1    3    3    0    0 -0.26649831560E+02  0.59912990835E+01 -0.22327793320E+03  0.22494253631E+03  0.00000000000E+00 0. -1.
</event>
<event>
 7    1  0.5064652E-006  0.5445213E+02  0.7818608E-02  0.1501190E+00
          2   -1    0    0  502    0  0.00000000000E+00  0.00000000000E+00  0.13886769484E+04  0.13886769484E+04  0.00000000000E+00 0. -1.
          1   -1    0    0  501    0 -0.00000000000E+00 -0.00000000000E+00 -0.43219444947E+04  0.43219444947E+04  0.00000000000E+00 0. -1.
         25    2    1    2    0    0  0.44742805726E+02  0.64783205924E+02 -0.14448368744E+04  0.14523697850E+04  0.12500246545E+03 0.  0.
          2    1    1    2  501    0 -0.17693402199E+02 -0.49998232260E+02 -0.28729248415E+04  0.28734143496E+04  0.00000000000E+00 0. -1.
          1    1    1    2  502    0 -0.27049403527E+02 -0.14784973665E+02  0.13844941695E+04  0.13848373085E+04  0.00000000000E+00 0. -1.
         22    1    3    3    0    0  0.39596127184E+02  0.10160112025E+03 -0.11607708788E+04  0.11658815009E+04  0.00000000000E+00 0.  1.
         22    1    3    3    0    0  0.51466785420E+01 -0.36817914330E+02 -0.28406599559E+03  0.28648828417E+03  0.00000000000E+00 0.  1.
</event>
<event>
 7    1  0.5064652E-006  0.7404540E+02  0.7818608E-02  0.1499830E+00
          2   -1    0    0  502    0  0.00000000000E+00  0.00000000000E+00  0.17539739727E+04  0.17539739727E+04  0.00000000000E+00 0. -1.
          1   -1    0    0  501    0 -0.00000000000E+00 -0.00000000000E+00 -0.26327966510E+03  0.26327966510E+03  0.00000000000E+00 0. -1.
         25    2    1    2    0    0 -0.55433696300E+02 -0.49335171966E+02  0.29224847095E+03  0.32640734780E+03  0.12500293616E+03 0.  0.
          2    1    1    2  501    0  0.17656296574E+02 -0.14554828029E+02 -0.24471277928E+03  0.24578025179E+03  0.00000000000E+00 0. -1.
          1    1    1    2  502    0  0.37777399727E+02  0.63889999995E+02  0.14431586160E+04  0.14450660382E+04  0.00000000000E+00 0. -1.
         22    1    3    3    0    0  0.15969391091E+02 -0.32630236417E+02  0.22167734398E+03  0.22463436650E+03  0.00000000000E+00 0.  1.
         22    1    3    3    0    0 -0.71403087392E+02 -0.16704935549E+02  0.70571126974E+02  0.10177298130E+03  0.00000000000E+00 0.  1.
</event>
<event>
 7    1  0.5064652E-006  0.8926194E+02  0.7818608E-02  0.1475734E+00
          2   -1    0    0  502    0  0.00000000000E+00  0.00000000000E+00  0.18116731289E+03  0.18116731289E+03  0.00000000000E+00 0. -1.
          1   -1    0    0  501    0 -0.00000000000E+00 -0.00000000000E+00 -0.19851137021E+03  0.19851137021E+03  0.00000000000E+00 0. -1.
         25    2    1    2    0    0 -0.92447742479E+02  0.30453993844E+02 -0.73877293637E+02  0.17482239570E+03  0.12502393648E+03 0.  0.
          2    1    1    2  501    0  0.16571747162E+02  0.15163712922E+02 -0.56777684996E+02  0.61059532483E+02  0.00000000000E+00 0. -1.
          1    1    1    2  502    0  0.75875995317E+02 -0.45617706766E+02  0.11331092131E+03  0.14379675491E+03  0.00000000000E+00 0. -1.
         22    1    3    3    0    0 -0.77194595678E+02  0.21027747080E+02  0.17335514979E+02  0.81863861555E+02  0.00000000000E+00 0. -1.
         22    1    3    3    0    0 -0.15253146801E+02  0.94262467640E+01 -0.91212808616E+02  0.92958534148E+02  0.00000000000E+00 0. -1.
</event>
<event>
 7    1  0.5064652E-006  0.9535782E+02  0.7818608E-02  0.1336028E+00
          2   -1    0    0  502    0  0.00000000000E+00  0.00000000000E+00  0.36168238510E+03  0.36168238510E+03  0.00000000000E+00 0. -1.
          1   -1    0    0  501    0 -0.00000000000E+00 -0.00000000000E+00 -0.22121425762E+03  0.22121425762E+03  0.00000000000E+00 0. -1.
         25    2    1    2    0    0  0.13914073328E+03 -0.40954095411E+02  0.12792357825E+03  0.23027614538E+03  0.12500111867E+03 0.  0.
          2    1    1    2  501    0 -0.92179557392E+02 -0.12447213848E+01 -0.15122134217E+03  0.17710594134E+03  0.00000000000E+00 0. -1.
          1    1    1    2  502    0 -0.46961175888E+02  0.42198816796E+02  0.16376589140E+03  0.17551455599E+03  0.00000000000E+00 0. -1.
         22    1    3    3    0    0  0.14870700049E+03 -0.20068379384E+02  0.13920648774E+03  0.20468257883E+03  0.00000000000E+00 0.  1.
         22    1    3    3    0    0 -0.95662672109E+01 -0.20885716027E+02 -0.11282909489E+02  0.25593566552E+02  0.00000000000E+00 0.  1.
</event>
<event>
 7    1  0.5064652E-006  0.1562304E+03  0.7818608E-02  0.1350235E+00
          2   -1    0    0  502    0  0.00000000000E+00  0.00000000000E+00  0.34486834897E+03  0.34486834897E+03  0.00000000000E+00 0. -1.
          1   -1    0    0  501    0 -0.00000000000E+00 -0.00000000000E+00 -0.23492434121E+03  0.23492434121E+03  0.00000000000E+00 0. -1.
         25    2    1    2    0    0  0.12539512244E+03 -0.10317859168E+03 -0.22668715110E+02  0.20618014452E+03  0.12500649119E+03 0.  0.
          2    1    1    2  501    0 -0.96044639401E+02  0.12052561267E+03 -0.69202491510E+02  0.16893780187E+03  0.00000000000E+00 0. -1.
          1    1    1    2  502    0 -0.29350483040E+02 -0.17347020997E+02  0.20181521438E+03  0.20467474380E+03  0.00000000000E+00 0. -1.
         22    1    3    3    0    0  0.68754193601E+02 -0.20465371658E+02  0.45501896898E+02  0.84949356655E+02  0.00000000000E+00 0.  1.
         22    1    3    3    0    0  0.56640928840E+02 -0.82713220019E+02 -0.68170612008E+02  0.12123078787E+03  0.00000000000E+00 0.  1.
</event>
<event>
 7    1  0.5064652E-006  0.1276013E+03  0.7818608E-02  0.1392527E+00
          2   -1    0    0  502    0  0.00000000000E+00  0.00000000000E+00  0.55271955518E+03  0.55271955518E+03  0.00000000000E+00 0. -1.
          1   -1    0    0  501    0 -0.00000000000E+00 -0.00000000000E+00 -0.96153335451E+03  0.96153335451E+03  0.00000000000E+00 0. -1.
         25    2    1    2    0    0  0.12588985630E+03 -0.34965203309E+02 -0.37075506811E+03  0.41250166232E+03  0.12500991768E+03 0.  0.
          2    1    1    2  501    0  0.15942315722E+01  0.29388662675E+02 -0.56186014016E+03  0.56263047568E+03  0.00000000000E+00 0. -1.
          1    1    1    2  502    0 -0.12748408788E+03  0.55765406337E+01  0.52380140894E+03  0.53912077170E+03  0.00000000000E+00 0. -1.
         22    1    3    3    0    0  0.13217107917E+03  0.11759331251E+01 -0.21413713679E+03  0.25164516753E+03  0.00000000000E+00 0. -1.
         22    1    3    3    0    0 -0.62812228649E+01 -0.36141136434E+02 -0.15661793133E+03  0.16085649479E+03  0.00000000000E+00 0. -1.
</event>
<event>
 7    1  0.5064652E-006  0.9736536E+02  0.7818608E-02  0.1407394E+00
          2   -1    0    0  502    0  0.00000000000E+00  0.00000000000E+00  0.21295686496E+03  0.21295686496E+03  0.00000000000E+00 0. -1.
          1   -1    0    0  501    0 -0.00000000000E+00 -0.00000000000E+00 -0.22212433908E+04  0.22212433908E+04  0.00000000000E+00 0. -1.
         25    2    1    2    0    0  0.46234498169E+02 -0.11879557795E+03 -0.64751601261E+03  0.67167751747E+03  0.12499473082E+03 0.  0.
          2    1    1    2  501    0 -0.39424862998E+02  0.85190678916E+02 -0.15587611160E+04  0.15615850884E+04  0.00000000000E+00 0. -1.
          1    1    1    2  502    0 -0.68096351712E+01  0.33604899033E+02  0.19799060274E+03  0.20093764989E+03  0.00000000000E+00 0. -1.
         22    1    3    3    0    0 -0.32870608982E+02 -0.71271265736E+02 -0.39748731677E+03  0.40516198890E+03  0.00000000000E+00 0. -1.
         22    1    3    3    0    0  0.79105107152E+02 -0.47524312214E+02 -0.25002869584E+03  0.26651552857E+03  0.00000000000E+00 0. -1.
</event>
<event>
 7    1  0.5064652E-006  0.4457099E+02  0.7818608E-02  0.1536063E+00
          2   -1    0    0  502    0  0.00000000000E+00  0.00000000000E+00  0.65194942770E+03  0.65194942770E+03  0.00000000000E+00 0. -1.
          1   -1    0    0  501    0 -0.00000000000E+00 -0.00000000000E+00 -0.29665335239E+03  0.29665335239E+03  0.00000000000E+00 0. -1.
         25    2    1    2    0    0 -0.11764791256E+02  0.23144729559E+02  0.42359957665E+03  0.44242002000E+03  0.12499913576E+03 0.  0.
          2    1    1    2  501    0 -0.28638727251E+02  0.82874721284E+01 -0.28345844254E+03  0.28502201237E+03  0.00000000000E+00 0. -1.
          1    1    1    2  502    0  0.40403518507E+02 -0.31432201687E+02  0.21515494120E+03  0.22116074772E+03  0.00000000000E+00 0. -1.
         22    1    3    3    0    0  0.43700902387E+02 -0.13939999658E+02  0.78413267479E+02  0.90844553919E+02  0.00000000000E+00 0.  1.
         22    1    3    3    0    0 -0.55465693643E+02  0.37084729217E+02  0.34518630917E+03  0.35157546608E+03  0.00000000000E+00 0.  1.
</event>
<event>
 7    1  0.5064652E-006  0.7739708E+02  0.7818608E-02  0.1475687E+00
          2   -1    0    0  502    0  0.00000000000E+00  0.00000000000E+00  0.17909283601E+04  0.17909283601E+04  0.00000000000E+00 0. -1.
          1   -1    0    0  501    0 -0.00000000000E+00 -0.00000000000E+00 -0.38441249254E+02  0.38441249254E+02  0.00000000000E+00 0. -1.
         25    2    1    2    0    0  0.40896510827E+02 -0.49390434885E+02  0.17223934794E+03  0.22226993836E+03  0.12500237144E+03 0.  0.
          2    1    1    2  501    0 -0.11874924151E+02 -0.23033799695E+02  0.10085575644E+01  0.25934281180E+02  0.00000000000E+00 0. -1.
          1    1    1    2  502    0 -0.29021586676E+02  0.72424234579E+02  0.15792392054E+04  0.15811653899E+04  0.00000000000E+00 0. -1.
         22    1    3    3    0    0  0.61226042328E+02 -0.80491047986E+02  0.14217788053E+03  0.17447632154E+03  0.00000000000E+00 0.  1.
         22    1    3    3    0    0 -0.20329531500E+02  0.31100613102E+02  0.30061467406E+02  0.47793616822E+02  0.00000000000E+00 0.  1.
</event>
<event>
 7    1  0.5064652E-006  0.3128578E+02  0.7818608E-02  0.1611485E+00
          2   -1    0    0  502    0  0.00000000000E+00  0.00000000000E+00  0.25267234270E+04  0.25267234270E+04  0.00000000000E+00 0. -1.
          1   -1    0    0  501    0 -0.00000000000E+00 -0.00000000000E+00 -0.55265049174E+03  0.55265049174E+03  0.00000000000E+00 0. -1.
         25    2    1    2    0    0  0.11488180912E+02  0.30602120719E+02  0.29730200662E+03  0.32416465534E+03  0.12500309013E+03 0.  0.
          2    1    1    2  501    0 -0.26382755050E+02 -0.29979597294E+01 -0.53878121171E+03  0.53943510417E+03  0.00000000000E+00 0. -1.
          1    1    1    2  502    0  0.14894574138E+02 -0.27604160989E+02  0.22155521404E+04  0.22157741592E+04  0.00000000000E+00 0. -1.
         22    1    3    3    0    0  0.73766552243E+01 -0.18425786566E+02 -0.28109099631E+01  0.20045594721E+02  0.00000000000E+00 0.  1.
         22    1    3    3    0    0  0.41115256876E+01  0.49027907285E+02  0.30011291658E+03  0.30411906062E+03  0.00000000000E+00 0.  1.
</event>
<event>
 7    1  0.5064652E-006  0.8321905E+02  0.7818608E-02  0.1464603E+00
          2   -1    0    0  502    0  0.00000000000E+00  0.00000000000E+00  0.83493114917E+03  0.83493114917E+03  0.00000000000E+00 0. -1.
          1   -1    0    0  501    0 -0.00000000000E+00 -0.00000000000E+00 -0.88863953899E+03  0.88863953899E+03  0.00000000000E+00 0. -1.
         25    2    1    2    0    0 -0.20167165376E+01 -0.71053399843E+02  0.15960889602E+03  0.21482652764E+03  0.12499113776E+03 0.  0.
          2    1    1    2  501    0 -0.22372616322E+02  0.80326467353E+02 -0.85874773609E+03  0.86278650288E+03  0.00000000000E+00 0. -1.
          1    1    1    2  502    0  0.24389332860E+02 -0.92730675103E+01  0.64543045025E+03  0.64595765763E+03  0.00000000000E+00 0. -1.
         22    1    3    3    0    0 -0.60544345642E+02 -0.24456682507E+02  0.50563966988E+02  0.82586087606E+02  0.00000000000E+00 0. -1.
         22    1    3    3    0    0  0.58527629104E+02 -0.46596717336E+02  0.10904492903E+03  0.13224044004E+03  0.00000000000E+00 0. -1.
</event>
<event>
 7    1  0.5064652E-006  0.4370034E+02  0.7818608E-02  0.1547518E+00
          2   -1    0    0  502    0  0.00000000000E+00  0.00000000000E+00  0.79460710121E+03  0.79460710121E+03  0.00000000000E+00 0. -1.
          1   -1    0    0  501    0 -0.00000000000E+00 -0.00000000000E+00 -0.72909772664E+02  0.72909772664E+02  0.00000000000E+00 0. -1.
         25    2    1    2    0    0 -0.65537383607E+02  0.69996951521E+01  0.21589036425E+03  0.25802309763E+03  0.12499250040E+03 0.  0.
          2    1    1    2  501    0  0.26260485288E+02  0.10353641143E+02 -0.47105882062E+02  0.54916073215E+02  0.00000000000E+00 0. -1.
          1    1    1    2  502    0  0.39276898320E+02 -0.17353336295E+02  0.55291284636E+03  0.55457770302E+03  0.00000000000E+00 0. -1.
         22    1    3    3    0    0 -0.54447851328E+02 -0.49781464124E+02  0.72653309140E+02  0.10354354646E+03  0.00000000000E+00 0. -1.
         22    1    3    3    0    0 -0.11089532280E+02  0.56781159276E+02  0.14323705511E+03  0.15447955117E+03  0.00000000000E+00 0. -1.
</event>
<event>
 7    1  0.5064652E-006  0.8618801E+02  0.7818608E-02  0.1320019E+00
          2   -1    0    0  502    0  0.00000000000E+00  0.00000000000E+00  0.82541836094E+03  0.82541836094E+03  0.00000000000E+00 0. -1.
          1   -1    0    0  501    0 -0.00000000000E+00 -0.00000000000E+00 -0.68995920225E+02  0.68995920225E+02  0.00000000000E+00 0. -1.
         25    2    1    2    0    0 -0.57409787845E+02  0.19006861394E+02  0.46315489488E+03  0.48352305712E+03  0.12499978238E+03 0.  0.
          2    1    1    2  501    0 -0.63019577721E+02 -0.50009210817E+02 -0.11930135425E+02  0.81330907249E+02  0.00000000000E+00 0. -1.
          1    1    1    2  502    0  0.12042936557E+03  0.31002349423E+02  0.30519768126E+03  0.32956031680E+03  0.00000000000E+00 0. -1.
         22    1    3    3    0    0  0.21410594457E+02 -0.17373007412E+02  0.27417364440E+03  0.27555656811E+03  0.00000000000E+00 0. -1.
         22    1    3    3    0    0 -0.78820382302E+02  0.36379868806E+02  0.18898125048E+03  0.20796648901E+03  0.00000000000E+00 0. -1.
</event>
<event>
 7    1  0.5064652E-006  0.9129501E+02  0.7818608E-02  0.1384502E+00
          2   -1    0    0  502    0  0.00000000000E+00  0.00000000000E+00  0.11896979647E+04  0.11896979647E+04  0.00000000000E+00 0. -1.
          1   -1    0    0  501    0 -0.00000000000E+00 -0.00000000000E+00 -0.22991367818E+03  0.22991367818E+03  0.00000000000E+00 0. -1.
         25    2    1    2    0    0 -0.59845112517E+02 -0.10213740430E+03  0.31860400630E+02  0.17508211526E+03  0.12500070043E+03 0.  0.
          2    1    1    2  501    0  0.41850446149E+02  0.13198948090E+02 -0.15332430244E+03  0.15948044956E+03  0.00000000000E+00 0. -1.
          1    1    1    2  502    0  0.17994666367E+02  0.88938456206E+02  0.10812481884E+04  0.10850490781E+04  0.00000000000E+00 0. -1.
         22    1    3    3    0    0 -0.24154932678E+02  0.18253733239E+02 -0.23029182060E+02  0.38039489695E+02  0.00000000000E+00 0. -1.
         22    1    3    3    0    0 -0.35690179838E+02 -0.12039113754E+03  0.54889582690E+02  0.13704262557E+03  0.00000000000E+00 0. -1.
</event>
<event>
 7    1  0.5064652E-006  0.4959066E+02  0.7818608E-02  0.1474223E+00
          2   -1    0    0  502    0  0.00000000000E+00  0.00000000000E+00  0.45390448572E+03  0.45390448572E+03  0.00000000000E+00 0. -1.
          1   -1    0    0  501    0 -0.00000000000E+00 -0.00000000000E+00 -0.18115301643E+03  0.18115301643E+03  0.00000000000E+00 0. -1.
         25    2    1    2    0    0 -0.42247082068E+02  0.67334309980E+01 -0.58000255921E+02  0.14428903361E+03  0.12500056199E+03 0.  0.
          2    1    1    2  501    0  0.17778299269E+02  0.36799193294E+02 -0.73149396021E+02  0.83791901101E+02  0.00000000000E+00 0. -1.
          1    1    1    2  502    0  0.24468782799E+02 -0.43532624292E+02  0.40390112123E+03  0.40697656743E+03  0.00000000000E+00 0. -1.
         22    1    3    3    0    0 -0.47902137528E+02 -0.45960294213E+02 -0.62402739931E+02  0.91110182607E+02  0.00000000000E+00 0. -1.
         22    1    3    3    0    0  0.56550554596E+01  0.52693725211E+02  0.44024840098E+01  0.53178851006E+02  0.00000000000E+00 0. -1.
</event>
<event>
 7    1  0.5064652E-006  0.4801285E+02  0.7818608E-02  0.1472788E+00
          2   -1    0    0  502    0  0.00000000000E+00  0.00000000000E+00  0.12848624679E+03  0.12848624679E+03  0.00000000000E+00 0. -1.
          1   -1    0    0  501    0 -0.00000000000E+00 -0.00000000000E+00 -0.21714688546E+03  0.21714688546E+03  0.00000000000E+00 0. -1.
         25    2    1    2    0    0 -0.68281384965E+01 -0.99761088460E+01 -0.66154531876E+02  0.14194294567E+03  0.12500092606E+03 0.  0.
          2    1    1    2  501    0  0.36635716524E+02  0.40474935900E+02 -0.10074360026E+03  0.11458476843E+03  0.00000000000E+00 0. -1.
          1    1    1    2  502    0 -0.29807578028E+02 -0.30498827054E+02  0.78237493471E+02  0.89105418153E+02  0.00000000000E+00 0. -1.
         22    1    3    3    0    0  0.20525492249E+02  0.23685248341E+02 -0.87973860690E+02  0.93389972618E+02  0.00000000000E+00 0.  1.
         22    1    3    3    0    0 -0.27353630745E+02 -0.33661357187E+02  0.21819328813E+02  0.48552973055E+02  0.00000000000E+00 0.  1.
</event>
<event>
 7    1  0.5064652E-006  0.5823693E+02  0.7818608E-02  0.1469461E+00
          2   -1    0    0  502    0  0.00000000000E+00  0.00000000000E+00  0.11143309639E+04  0.11143309639E+04  0.00000000000E+00 0. -1.
          1   -1    0    0  501    0 -0.00000000000E+00 -0.00000000000E+00 -0.22269644937E+02  0.22269644937E+02  0.00000000000E+00 0. -1.
         25    2    1    2    0    0  0.83453786084E+02 -0.35478119450E+02  0.48903840151E+03  0.51284332470E+03  0.12500594452E+03 0.  0.
          2    1    1    2  501    0 -0.32660082418E+02  0.15156581862E+02  0.26653904105E+02  0.44797695938E+02  0.00000000000E+00 0. -1.
          1    1    1    2  502    0 -0.50793703666E+02  0.20321537588E+02  0.57636901336E+03  0.57895958821E+03  0.00000000000E+00 0. -1.
         22    1    3    3    0    0  0.16596197416E+02  0.18807605249E+02  0.11486492463E+02  0.27588028073E+02  0.00000000000E+00 0. -1.
         22    1    3    3    0    0  0.66857588669E+02 -0.54285724699E+02  0.47755190905E+03  0.48525529663E+03  0.00000000000E+00 0. -1.
</event>
<event>
 7    1  0.5064652E-006  0.3120123E+02  0.7818608E-02  0.1603615E+00
          2   -1    0    0  502    0  0.00000000000E+00  0.00000000000E+00  0.24112863625E+03  0.24112863625E+03  0.00000000000E+00 0. -1.
          1   -1    0    0  501    0 -0.00000000000E+00 -0.00000000000E+00 -0.59870594203E+03  0.59870594203E+03  0.00000000000E+00 0. -1.
         25    2    1    2    0    0 -0.41255678141E+02 -0.11173688063E+02 -0.41711443585E+03  0.43753447611E+03  0.12500033165E+03 0.  0.
          2    1    1    2  501    0  0.27822873996E+02 -0.13282866010E+02 -0.16913998061E+03  0.17192696091E+03  0.00000000000E+00 0. -1.
          1    1    1    2  502    0  0.13432804144E+02  0.24456554074E+02  0.22867711068E+03  0.23037314126E+03  0.00000000000E+00 0. -1.
         22    1    3    3    0    0  0.96572155280E+01  0.50850824798E+02 -0.17200644653E+03  0.17962540422E+03  0.00000000000E+00 0.  1.
         22    1    3    3    0    0 -0.50912893669E+02 -0.62024512861E+02 -0.24510798932E+03  0.25790907189E+03  0.00000000000E+00 0.  1.
</event>
<event>
 7    1  0.5064652E-006  0.9550061E+02  0.7818608E-02  0.1293174E+00
          2   -1    0    0  502    0  0.00000000000E+00  0.00000000000E+00  0.16166619498E+03  0.16166619498E+03  0.00000000000E+00 0. -1.
          1   -1    0    0  501    0 -0.00000000000E+00 -0.00000000000E+00 -0.98631875573E+03  0.98631875573E+03  0.00000000000E+00 0. -1.
         25    2    1    2    0    0  0.87834498880E+02  0.65696145536E+02 -0.19509429496E+03  0.25635314832E+03  0.12499707995E+03 0.  0.
          2    1    1    2  501    0  0.60484593818E+01 -0.92558644870E+02 -0.73909200157E+03  0.74488970552E+03  0.00000000000E+00 0. -1.
          1    1    1    2  502    0 -0.93882958262E+02  0.26862499334E+02  0.10953373578E+03  0.14674209688E+03  0.00000000000E+00 0. -1.
         22    1    3    3    0    0  0.10931417150E+03  0.13877218156E+02 -0.12778927602E+03  0.16873726423E+03  0.00000000000E+00 0. -1.
         22    1    3    3    0    0 -0.21479672618E+02  0.51818927380E+02 -0.67305018942E+02  0.87615884093E+02  0.00000000000E+00 0. -1.
</event>
<event>
 7    1  0.5064652E-006  0.1966015E+03  0.7818608E-02  0.1214780E+00
          2   -1    0    0  502    0  0.00000000000E+00  0.00000000000E+00  0.63512876468E+03  0.63512876468E+03  0.00000000000E+00 0. -1.
          1   -1    0    0  501    0 -0.00000000000E+00 -0.00000000000E+00 -0.20997215807E+04  0.20997215807E+04  0.00000000000E+00 0. -1.
         25    2    1    2    0    0  0.13510208294E+03  0.65712126987E+02 -0.42386370362E+02  0.19997871082E+03  0.12499689573E+03 0.  0.
          2    1    1    2  501    0 -0.11795521211E+03 -0.16237513383E+03 -0.19690672623E+04  0.19792688043E+04  0.00000000000E+00 0. -1.
          1    1    1    2  502    0 -0.17146870829E+02  0.96663006847E+02  0.54686081672E+03  0.55560283020E+03  0.00000000000E+00 0. -1.
         22    1    3    3    0    0  0.14923467023E+03  0.28714175363E+02 -0.49312482948E+02  0.15977237446E+03  0.00000000000E+00 0. -1.
         22    1    3    3    0    0 -0.14132587295E+02  0.36997951624E+02  0.69261125862E+01  0.40206336361E+02  0.00000000000E+00 0. -1.
</event>
<event>
 7    1  0.5064652E-006  0.1482568E+03  0.7818608E-02  0.1271456E+00
          2   -1    0    0  502    0  0.00000000000E+00  0.00000000000E+00  0.16870434760E+03  0.16870434760E+03  0.00000000000E+00 0. -1.
          1   -1    0    0  501    0 -0.00000000000E+00 -0.00000000000E+00 -0.91869548431E+03  0.91869548431E+03  0.00000000000E+00 0. -1.
         25    2    1    2    0    0 -0.79392991298E+02 -0.12364306151E+03 -0.30951977886E+03  0.36471723028E+03  0.12500124330E+03 0.  0.
          2    1    1    2  501    0  0.12159306099E+02  0.15311772067E+03 -0.56095050804E+03  0.58159982598E+03  0.00000000000E+00 0. -1.
          1    1    1    2  502    0  0.67233685199E+02 -0.29474659159E+02  0.12047915019E+03  0.14108277566E+03  0.00000000000E+00 0. -1.
         22    1    3    3    0    0 -0.67416769457E+02 -0.90092327351E+00 -0.13650517477E+03  0.15224813695E+03  0.00000000000E+00 0.  1.
         22    1    3    3    0    0 -0.11976221841E+02 -0.12274213824E+03 -0.17301460410E+03  0.21246909333E+03  0.00000000000E+00 0.  1.
</event>
<event>
 7    1  0.5064652E-006  0.6914551E+02  0.7818608E-02  0.1393007E+00
          2   -1    0    0  502    0  0.00000000000E+00  0.00000000000E+00  0.10625557050E+04  0.10625557050E+04  0.00000000000E+00 0. -1.
          1   -1    0    0  501    0 -0.00000000000E+00 -0.00000000000E+00 -0.21065557539E+03  0.21065557539E+03  0.00000000000E+00 0. -1.
         25    2    1    2    0    0 -0.85092291904E+02  0.86382298662E+02  0.64171880249E+03  0.66492903477E+03  0.12500000057E+03 0.  0.
          2    1    1    2  501    0  0.40890688241E+02 -0.55179762194E+02 -0.19125690072E+03  0.20321431203E+03  0.00000000000E+00 0. -1.
          1    1    1    2  502    0  0.44201603663E+02 -0.31202536468E+02  0.40143822787E+03  0.40506793361E+03  0.00000000000E+00 0. -1.
         22    1    3    3    0    0 -0.11659168046E+03  0.60779545557E+02  0.52995663181E+03  0.54602363018E+03  0.00000000000E+00 0. -1.
         22    1    3    3    0    0  0.31499388553E+02  0.25602753105E+02  0.11176217068E+03  0.11890540459E+03  0.00000000000E+00 0. -1.
</event>
<event>
 7    1  0.9455181E-006  0.6443563E+02  0.7818608E-02  0.1391065E+00
          2   -1    0    0  502    0  0.00000000000E+00  0.00000000000E+00  0.18150838328E+04  0.18150838328E+04  0.00000000000E+00 0. -1.
          1   -1    0    0  501    0 -0.00000000000E+00 -0.00000000000E+00 -0.71373528856E+03  0.71373528856E+03  0.00000000000E+00 0. -1.
         25    2    1    2    0    0  0.15199184263E+02 -0.38697109837E+01 -0.59322660542E+02  0.13924939426E+03  0.12500090353E+03 0.  0.
          2    1    1    2  501    0 -0.25369348763E+02  0.61956546557E+02 -0.61213387080E+03  0.61578412881E+03  0.00000000000E+00 0. -1.
          1    1    1    2  502    0  0.10170164500E+02 -0.58086835573E+02  0.17728050756E+04  0.17737855983E+04  0.00000000000E+00 0. -1.
         22    1    3    3    0    0 -0.10434138777E+02 -0.14161031426E+02  0.35966534527E+02  0.40037453327E+02  0.00000000000E+00 0. -1.
         22    1    3    3    0    0  0.25633323040E+02  0.10291320442E+02 -0.95289195068E+02  0.99211940931E+02  0.00000000000E+00 0. -1.
</event>
<event>
 7    1  0.5064652E-006  0.3654649E+02  0.7818608E-02  0.1579615E+00
          2   -1    0    0  502    0  0.00000000000E+00  0.00000000000E+00  0.21402741638E+04  0.21402741638E+04  0.00000000000E+00 0. -1.
          1   -1    0    0  501    0 -0.00000000000E+00 -0.00000000000E+00 -0.13153603926E+02  0.13153603926E+02  0.00000000000E+00 0. -1.
         25    2    1    2    0    0  0.19818635553E+02  0.60150436066E+02  0.13949644387E+04  0.14019843943E+04  0.12499441294E+03 0.  0.
          2    1    1    2  501    0 -0.93384817036E+01 -0.34654652579E+02  0.24975248623E+02  0.43725452882E+02  0.00000000000E+00 0. -1.
          1    1    1    2  502    0 -0.10480153849E+02 -0.25495783487E+02  0.70718087249E+03  0.70771792051E+03  0.00000000000E+00 0. -1.
         22    1    3    3    0    0  0.18097277382E+02 -0.27995897455E+02  0.78220580310E+03  0.78291583209E+03  0.00000000000E+00 0. -1.
         22    1    3    3    0    0  0.17213581709E+01  0.88146333521E+02  0.61275863563E+03  0.61906856221E+03  0.00000000000E+00 0. -1.
</event>
<event>
 7    1  0.5064652E-006  0.4496175E+02  0.7818608E-02  0.1522120E+00
          2   -1    0    0  502    0  0.00000000000E+00  0.00000000000E+00  0.11139782005E+04  0.11139782005E+04  0.00000000000E+00 0. -1.
          1   -1    0    0  501    0 -0.00000000000E+00 -0.00000000000E+00 -0.53459108415E+03  0.53459108415E+03  0.00000000000E+00 0. -1.
         25    2    1    2    0    0 -0.54438504827E+02  0.53333872080E+02  0.34731902313E+03  0.37691322510E+03  0.12500009083E+03 0.  0.
          2    1    1    2  501    0  0.36172029964E+02 -0.26567089467E+02 -0.51847494397E+03  0.52041377145E+03  0.00000000000E+00 0. -1.
          1    1    1    2  502    0  0.18266474863E+02 -0.26766782613E+02  0.75054303723E+03  0.75124228814E+03  0.00000000000E+00 0. -1.
         22    1    3    3    0    0 -0.21717185333E+02 -0.37751872442E+02  0.16312946011E+03  0.16884330240E+03  0.00000000000E+00 0.  1.
         22    1    3    3    0    0 -0.32721319494E+02  0.91085744521E+02  0.18418956302E+03  0.20806992270E+03  0.00000000000E+00 0.  1.
</event>
<event>
 7    1  0.5064652E-006  0.1118990E+03  0.7818608E-02  0.1307600E+00
          2   -1    0    0  502    0  0.00000000000E+00  0.00000000000E+00  0.15458734573E+03  0.15458734573E+03  0.00000000000E+00 0. -1.
          1   -1    0    0  501    0 -0.00000000000E+00 -0.00000000000E+00 -0.17608922769E+04  0.17608922769E+04  0.00000000000E+00 0. -1.
         25    2    1    2    0    0  0.38626615047E+02  0.15023610642E+03 -0.13978416563E+03  0.24336550030E+03  0.12499700282E+03 0.  0.
          2    1    1    2  501    0  0.25365965595E+02 -0.64503204607E+02 -0.15404910815E+04  0.15420495673E+04  0.00000000000E+00 0. -1.
          1    1    1    2  502    0 -0.63992580643E+02 -0.85732901817E+02  0.73970316008E+02  0.13006455505E+03  0.00000000000E+00 0. -1.
         22    1    3    3    0    0  0.45450872132E+02  0.36958090503E+02 -0.11220861788E+03  0.12657984104E+03  0.00000000000E+00 0.  1.
         22    1    3    3    0    0 -0.68242570843E+01  0.11327801592E+03 -0.27575547752E+02  0.11678565926E+03  0.00000000000E+00 0.  1.
</event>
<event>
 7    1  0.5064652E-006  0.5071530E+02  0.7818608E-02  0.1478640E+00
          2   -1    0    0  502    0  0.00000000000E+00  0.00000000000E+00  0.47310507229E+03  0.47310507229E+03  0.00000000000E+00 0. -1.
          1   -1    0    0  501    0 -0.00000000000E+00 -0.00000000000E+00 -0.10038692683E+04  0.10038692683E+04  0.00000000000E+00 0. -1.
         25    2    1    2    0    0  0.34191700126E+02  0.30373963303E+02 -0.40488677595E+02  0.13912458831E+03  0.12499867222E+03 0.  0.
          2    1    1    2  501    0 -0.13959218031E+01 -0.50974208451E+02 -0.91246441925E+03  0.91388819608E+03  0.00000000000E+00 0. -1.
          1    1    1    2  502    0 -0.32795778323E+02  0.20600245148E+02  0.42218890082E+03  0.42396155621E+03  0.00000000000E+00 0. -1.
         22    1    3    3    0    0 -0.27910466596E+02 -0.28203390248E+02 -0.36097686407E+02  0.53642038841E+02  0.00000000000E+00 0. -1.
         22    1    3    3    0    0  0.62102166722E+02  0.58577353551E+02 -0.43909911877E+01  0.85482549472E+02  0.00000000000E+00 0. -1.
</event>
<event>
 7    1  0.5064652E-006  0.1181340E+03  0.7818608E-02  0.1350289E+00
          2   -1    0    0  502    0  0.00000000000E+00  0.00000000000E+00  0.18777513746E+04  0.18777513746E+04  0.00000000000E+00 0. -1.
          1   -1    0    0  501    0 -0.00000000000E+00 -0.00000000000E+00 -0.27472027232E+03  0.27472027232E+03  0.00000000000E+00 0. -1.
         25    2    1    2    0    0 -0.15252436284E+02 -0.15715211323E+03  0.10701867690E+04  0.10889693335E+04  0.12500026093E+03 0.  0.
          2    1    1    2  501    0  0.28668098967E+02  0.11412780786E+03 -0.25160332364E+03  0.27776113640E+03  0.00000000000E+00 0. -1.
          1    1    1    2  502    0 -0.13415662682E+02  0.43024305364E+02  0.78444765698E+03  0.78574117710E+03  0.00000000000E+00 0. -1.
         22    1    3    3    0    0  0.25573597402E+02 -0.38951712540E+01  0.47772786398E+02  0.54326976388E+02  0.00000000000E+00 0. -1.
         22    1    3    3    0    0 -0.40826033687E+02 -0.15325694197E+03  0.10224139826E+04  0.10346423571E+04  0.00000000000E+00 0. -1.
</event>
<event>
 7    1  0.5064652E-006  0.4582448E+02  0.7818608E-02  0.1480266E+00
          2   -1    0    0  502    0  0.00000000000E+00  0.00000000000E+00  0.12852856432E+04  0.12852856432E+04  0.00000000000E+00 0. -1.
          1   -1    0    0  501    0 -0.00000000000E+00 -0.00000000000E+00 -0.12838452934E+04  0.12838452934E+04  0.00000000000E+00 0. -1.
         25    2    1    2    0    0 -0.17966797095E+02  0.85699083325E+01  0.13698513457E+03  0.18651180048E+03  0.12500190198E+03 0.  0.
          2    1    1    2  501    0 -0.17689360172E+02 -0.38503494834E+02 -0.12582429070E+04  0.12589561730E+04  0.00000000000E+00 0. -1.
          1    1    1    2  502    0  0.35656157267E+02  0.29933586501E+02  0.11226981222E+04  0.11236629631E+04  0.00000000000E+00 0. -1.
         22    1    3    3    0    0 -0.58741995714E+02 -0.28211930585E+02  0.10315329018E+03  0.12201285327E+03  0.00000000000E+00 0. -1.
         22    1    3    3    0    0  0.40775198619E+02  0.36781838917E+02  0.33831844395E+02  0.64498947214E+02  0.00000000000E+00 0. -1.
</event>
<event>
 7    1  0.5064652E-006  0.2516781E+03  0.7818608E-02  0.1244259E+00
          2   -1    0    0  502    0  0.00000000000E+00  0.00000000000E+00  0.37244177295E+04  0.37244177295E+04  0.00000000000E+00 0. -1.
          1   -1    0    0  501    0 -0.00000000000E+00 -0.00000000000E+00 -0.25747300720E+03  0.25747300720E+03  0.00000000000E+00 0. -1.
         25    2    1    2    0    0 -0.33998246371E+02  0.20902709264E+03  0.40124917111E+03  0.47061051995E+03  0.12500063185E+03 0.  0.
          2    1    1    2  501    0  0.70808006063E+01 -0.25875840410E+03 -0.14727056825E+03  0.29781650341E+03  0.00000000000E+00 0. -1.
          1    1    1    2  502    0  0.26917445764E+02  0.49731311463E+02  0.32129661194E+04  0.32134637133E+04  0.00000000000E+00 0. -1.
         22    1    3    3    0    0 -0.56280919591E+01  0.98329135133E+01 -0.84751910074E+01  0.14148868148E+02  0.00000000000E+00 0. -1.
         22    1    3    3    0    0 -0.28370154412E+02  0.19919417913E+03  0.40972436211E+03  0.45646165180E+03  0.00000000000E+00 0. -1.
</event>
<event>
 7    1  0.5064652E-006  0.1085488E+03  0.7818608E-02  0.1358437E+00
          2   -1    0    0  502    0  0.00000000000E+00  0.00000000000E+00  0.25945113837E+04  0.25945113837E+04  0.00000000000E+00 0. -1.
          1   -1    0    0  501    0 -0.00000000000E+00 -0.00000000000E+00 -0.31241285852E+02  0.31241285852E+02  0.00000000000E+00 0. -1.
         25    2    1    2    0    0 -0.12301672523E+03 -0.15043352203E+02  0.63238355498E+03  0.65642539202E+03  0.12500367015E+03 0.  0.
          2    1    1    2  501    0  0.28323490112E+02 -0.35959090281E+02  0.11855491083E+02  0.47284552814E+02  0.00000000000E+00 0. -1.
          1    1    1    2  502    0  0.94693235119E+02  0.51002442484E+02  0.19190310518E+04  0.19220427247E+04  0.00000000000E+00 0. -1.
         22    1    3    3    0    0 -0.10584176960E+03  0.43540432966E+02  0.38758237888E+03  0.40412665084E+03  0.00000000000E+00 0.  1.
         22    1    3    3    0    0 -0.17174955629E+02 -0.58583785169E+02  0.24480117609E+03  0.25229874118E+03  0.00000000000E+00 0.  1.
</event>
<event>
 7    1  0.5064652E-006  0.1130043E+03  0.7818608E-02  0.1333281E+00
          2   -1    0    0  502    0  0.00000000000E+00  0.00000000000E+00  0.23429551940E+04  0.23429551940E+04  0.00000000000E+00 0. -1.
          1   -1    0    0  501    0 -0.00000000000E+00 -0.00000000000E+00 -0.48793699075E+03  0.48793699075E+03  0.00000000000E+00 0. -1.
         25    2    1    2    0    0 -0.14537422903E+03  0.13974216409E+02  0.94264081572E+03  0.96204343370E+03  0.12500766248E+03 0.  0.
          2    1    1    2  501    0  0.40647533320E+02 -0.36410137433E+02 -0.47460765985E+03  0.47773460296E+03  0.00000000000E+00 0. -1.
          1    1    1    2  502    0  0.10472669571E+03  0.22435921024E+02  0.13869850473E+04  0.13911141481E+04  0.00000000000E+00 0. -1.
         22    1    3    3    0    0 -0.11866250131E+03 -0.34915503060E+02  0.46521384463E+03  0.48137698616E+03  0.00000000000E+00 0.  1.
         22    1    3    3    0    0 -0.26711727721E+02  0.48889719468E+02  0.47742697109E+03  0.48066644754E+03  0.00000000000E+00 0.  1.
</event>
<event>
 7    1  0.5064652E-006  0.5071337E+02  0.7818608E-02  0.1460691E+00
          2   -1    0    0  502    0  0.00000000000E+00  0.00000000000E+00  0.38678338094E+03  0.38678338094E+03  0.00000000000E+00 0. -1.
          1   -1    0    0  501    0 -0.00000000000E+00 -0.00000000000E+00 -0.41861915767E+03  0.41861915767E+03  0.00000000000E+00 0. -1.
         25    2    1    2    0    0  0.68071044557E+02 -0.34248598221E+02  0.87440011224E+02  0.17051855781E+03  0.12499675759E+03 0.  0.
          2    1    1    2  501    0 -0.18501031936E+02  0.39972954389E+02 -0.37335850356E+03  0.37594773233E+03  0.00000000000E+00 0. -1.
          1    1    1    2  502    0 -0.49570012620E+02 -0.57243561678E+01  0.25408271560E+03  0.25893624847E+03  0.00000000000E+00 0. -1.
         22    1    3    3    0    0  0.67767290746E+02 -0.24171314540E+02  0.11807393829E+03  0.13826826478E+03  0.00000000000E+00 0.  1.
         22    1    3    3    0    0  0.30375381036E+00 -0.10077283682E+02 -0.30633927071E+02  0.32250293031E+02  0.00000000000E+00 0.  1.
</event>
<event>
 7    1  0.5064652E-006  0.5151734E+02  0.7818608E-02  0.1493960E+00
          2   -1    0    0  502    0  0.00000000000E+00  0.00000000000E+00  0.71441794125E+03  0.71441794125E+03  0.00000000000E+00 0. -1.
          1   -1    0    0  501    0 -0.00000000000E+00 -0.00000000000E+00 -0.66863901213E+02  0.66863901213E+02  0.00000000000E+00 0. -1.
         25    2    1    2    0    0 -0.17009821936E+01  0.36311965909E+02  0.24664483710E+03  0.27889089089E+03  0.12500000457E+03 0.  0.
          2    1    1    2  501    0 -0.32091779609E+02 -0.41875406696E+02 -0.36173614039E+02  0.63968448138E+02  0.00000000000E+00 0. -1.
          1    1    1    2  502    0  0.33792761803E+02  0.55634407868E+01  0.43708281697E+03  0.43842250343E+03  0.00000000000E+00 0. -1.
         22    1    3    3    0    0 -0.16558417013E+02 -0.28625088475E+02  0.12333831403E+02  0.35294479190E+02  0.00000000000E+00 0. -1.
         22    1    3    3    0    0  0.14857434820E+02  0.64937054384E+02  0.23431100570E+03  0.24359641170E+03  0.00000000000E+00 0. -1.
</event>
<event>
 7    1  0.5064652E-006  0.1785254E+03  0.7818608E-02  0.1216209E+00
          2   -1    0    0  502    0  0.00000000000E+00  0.00000000000E+00  0.43064073214E+03  0.43064073214E+03  0.00000000000E+00 0. -1.
          1   -1    0    0  501    0 -0.00000000000E+00 -0.00000000000E+00 -0.51194744742E+03  0.51194744742E+03  0.00000000000E+00 0. -1.
         25    2    1    2    0    0  0.17401054328E+03 -0.19818167827E+03 -0.14106393560E+03  0.32416126842E+03  0.12500338893E+03 0.  0.
          2    1    1    2  501    0 -0.10340382501E+03  0.11846449423E+03 -0.24750639550E+03  0.29323301866E+03  0.00000000000E+00 0. -1.
          1    1    1    2  502    0 -0.70606718267E+02  0.79717184041E+02  0.30726361583E+03  0.32519389248E+03  0.00000000000E+00 0. -1.
         22    1    3    3    0    0  0.11978600049E+02 -0.96879543568E+02 -0.25693259471E+02  0.10094194571E+03  0.00000000000E+00 0.  1.
         22    1    3    3    0    0  0.16203194323E+03 -0.10130213470E+03 -0.11537067613E+03  0.22321932271E+03  0.00000000000E+00 0.  1.
</event>
<event>
 7    1  0.5064652E-006  0.6232632E+02  0.7818608E-02  0.1488625E+00
          2   -1    0    0  502    0  0.00000000000E+00  0.00000000000E+00  0.16482140536E+04  0.16482140536E+04  0.00000000000E+00 0. -1.
          1   -1    0    0  501    0 -0.00000000000E+00 -0.00000000000E+00 -0.17925593081E+03  0.17925593081E+03  0.00000000000E+00 0. -1.
         25    2    1    2    0    0  0.42104441075E+02 -0.40841571908E+02  0.54307210899E+03  0.56034962583E+03  0.12499427845E+03 0.  0.
          2    1    1    2  501    0  0.18611459371E+02  0.22731083488E+02 -0.16842934878E+03  0.17097231971E+03  0.00000000000E+00 0. -1.
          1    1    1    2  502    0 -0.60715900446E+02  0.18110488420E+02  0.10943153626E+04  0.10961480389E+04  0.00000000000E+00 0. -1.
         22    1    3    3    0    0  0.35830769696E+02 -0.85603759701E+02  0.35648078882E+03  0.36836177941E+03  0.00000000000E+00 0. -1.
         22    1    3    3    0    0  0.62736713796E+01  0.44762187793E+02  0.18659132017E+03  0.19198784641E+03  0.00000000000E+00 0. -1.
</event>
<event>
 7    1  0.5064652E-006  0.6794853E+02  0.7818608E-02  0.1376736E+00
          2   -1    0    0  502    0  0.00000000000E+00  0.00000000000E+00  0.64942105571E+03  0.64942105571E+03  0.00000000000E+00 0. -1.
          1   -1    0    0  501    0 -0.00000000000E+00 -0.00000000000E+00 -0.56553634901E+03  0.56553634901E+03  0.00000000000E+00 0. -1.
         25    2    1    2    0    0  0.72035922998E+02  0.39524834637E+02  0.75579917987E+02  0.16759694073E+03  0.12500009514E+03 0.  0.
          2    1    1    2  501    0 -0.15287497867E+02 -0.66448588626E+02 -0.51540593921E+03  0.51989653268E+03  0.00000000000E+00 0. -1.
          1    1    1    2  502    0 -0.56748425131E+02  0.26923753990E+02  0.52371072792E+03  0.52746393130E+03  0.00000000000E+00 0. -1.
         22    1    3    3    0    0  0.12463649712E+02  0.69260665507E+02  0.49733369948E+01  0.70548681288E+02  0.00000000000E+00 0.  1.
         22    1    3    3    0    0  0.59572273286E+02 -0.29735830871E+02  0.70606580992E+02  0.97048259446E+02  0.00000000000E+00 0.  1.
</event>
<event>
 7    1  0.5064652E-006  0.8546078E+02  0.7818608E-02  0.1430029E+00
          2   -1    0    0  502    0  0.00000000000E+00  0.00000000000E+00  0.44390398595E+03  0.44390398595E+03  0.00000000000E+00 0. -1.
          1   -1    0    0  501    0 -0.00000000000E+00 -0.00000000000E+00 -0.92550021231E+03  0.92550021231E+03  0.00000000000E+00 0. -1.
         25    2    1    2    0    0  0.31561986566E+02  0.52559886852E+02 -0.51281423334E+03  0.53137927216E+03  0.12500716886E+03 0.  0.
          2    1    1    2  501    0  0.32528941112E+02  0.43019054811E+01 -0.39850001888E+03  0.39984860066E+03  0.00000000000E+00 0. -1.
          1    1    1    2  502    0 -0.64090927678E+02 -0.56861792333E+02  0.42971802586E+03  0.43817632545E+03  0.00000000000E+00 0. -1.
         22    1    3    3    0    0  0.50683946062E+02  0.26053492496E+02 -0.48536154223E+03  0.48869568602E+03  0.00000000000E+00 0.  1.
         22    1    3    3    0    0 -0.19121959496E+02  0.26506394356E+02 -0.27452691108E+02  0.42683586140E+02  0.00000000000E+00 0.  1.
</event>
<event>
 7    1  0.5064652E-006  0.5799895E+02  0.7818608E-02  0.1508921E+00
          2   -1    0    0  502    0  0.00000000000E+00  0.00000000000E+00  0.20178219737E+03  0.20178219737E+03  0.00000000000E+00 0. -1.
          1   -1    0    0  501    0 -0.00000000000E+00 -0.00000000000E+00 -0.30319507846E+03  0.30319507846E+03  0.00000000000E+00 0. -1.
         25    2    1    2    0    0  0.51808752371E+02 -0.14428628167E+01 -0.14593328452E+03  0.19901425477E+03  0.12499568551E+03 0.  0.
          2    1    1    2  501    0 -0.55138920995E+02 -0.25808543757E+02 -0.12245066332E+03  0.13674994145E+03  0.00000000000E+00 0. -1.
          1    1    1    2  502    0  0.33301686244E+01  0.27251406574E+02  0.16697106674E+03  0.16921307961E+03  0.00000000000E+00 0. -1.
         22    1    3    3    0    0  0.66802522230E+02 -0.48663677635E+02 -0.69797560939E+02  0.10817777041E+03  0.00000000000E+00 0. -1.
         22    1    3    3    0    0 -0.14993769859E+02  0.47220814818E+02 -0.76135723577E+02  0.90836484362E+02  0.00000000000E+00 0. -1.
</event>
<event>
 7    1  0.5064652E-006  0.4984741E+02  0.7818608E-02  0.1537286E+00
          2   -1    0    0  502    0  0.00000000000E+00  0.00000000000E+00  0.49602737050E+03  0.49602737050E+03  0.00000000000E+00 0. -1.
          1   -1    0    0  501    0 -0.00000000000E+00 -0.00000000000E+00 -0.30033615153E+03  0.30033615153E+03  0.00000000000E+00 0. -1.
         25    2    1    2    0    0  0.41774286069E+02  0.11920681846E+02  0.25799105015E+03  0.28995166809E+03  0.12500157694E+03 0.  0.
          2    1    1    2  501    0  0.86309398738E+01 -0.24997507732E+02 -0.28067277522E+03  0.28191590105E+03  0.00000000000E+00 0. -1.
          1    1    1    2  502    0 -0.50405225943E+02  0.13076825886E+02  0.21837294403E+03  0.22449595289E+03  0.00000000000E+00 0. -1.
         22    1    3    3    0    0  0.62303858771E+02  0.50135858774E+02  0.21269941228E+03  0.22723647405E+03  0.00000000000E+00 0.  1.
         22    1    3    3    0    0 -0.20529572702E+02 -0.38215176928E+02  0.45291637872E+02  0.62715194045E+02  0.00000000000E+00 0.  1.
</event>
<event>
 7    1  0.5064652E-006  0.6332031E+02  0.7818608E-02  0.1506558E+00
          2   -1    0    0  502    0  0.00000000000E+00  0.00000000000E+00  0.13907316482E+04  0.13907316482E+04  0.00000000000E+00 0. -1.
          1   -1    0    0  501    0 -0.00000000000E+00 -0.00000000000E+00 -0.23080393506E+03  0.23080393506E+03  0.00000000000E+00 0. -1.
         25    2    1    2    0    0 -0.47123385486E+02 -0.61601262984E+02  0.24596462818E+03  0.28659690443E+03  0.12499543293E+03 0.  0.
          2    1    1    2  501    0  0.21673906226E+02  0.59291117025E+02 -0.20560543227E+03  0.21507856366E+03  0.00000000000E+00 0. -1.
          1    1    1    2  502    0  0.25449479260E+02  0.23101459587E+01  0.11195685172E+04  0.11198601151E+04  0.00000000000E+00 0. -1.
         22    1    3    3    0    0  0.15571354650E+02  0.31206032358E+02  0.51810547794E+02  0.62454914970E+02  0.00000000000E+00 0. -1.
         22    1    3    3    0    0 -0.62694740137E+02 -0.92807295341E+02  0.19415408039E+03  0.22414198946E+03  0.00000000000E+00 0. -1.
</event>
<event>
 7    1  0.5064652E-006  0.6848645E+02  0.7818608E-02  0.1395398E+00
          2   -1    0    0  502    0  0.00000000000E+00  0.00000000000E+00  0.92237268655E+03  0.92237268655E+03  0.00000000000E+00 0. -1.
          1   -1    0    0  501    0 -0.00000000000E+00 -0.00000000000E+00 -0.16615011437E+03  0.16615011437E+03  0.00000000000E+00 0. -1.
         25    2    1    2    0    0 -0.30838996427E+02  0.32352521637E+02  0.12513099909E+03  0.18242997907E+03  0.12500080390E+03 0.  0.
          2    1    1    2  501    0 -0.39778942114E+02 -0.35914540911E+02 -0.13057801906E+03  0.14114828213E+03  0.00000000000E+00 0. -1.
          1    1    1    2  502    0  0.70617938540E+02  0.35620192742E+01  0.76166959216E+03  0.76494453972E+03  0.00000000000E+00 0. -1.
         22    1    3    3    0    0 -0.58530112470E+02  0.16125146595E+02  0.83059517598E+01  0.61276286221E+02  0.00000000000E+00 0. -1.
         22    1    3    3    0    0  0.27691116043E+02  0.16227375042E+02  0.11682504733E+03  0.12115369285E+03  0.00000000000E+00 0. -1.
</event>
<event>
 7    1  0.5064652E-006  0.6480139E+02  0.7818608E-02  0.1485486E+00
          2   -1    0    0  502    0  0.00000000000E+00  0.00000000000E+00  0.40264886956E+03  0.40264886956E+03  0.00000000000E+00 0. -1.
          1   -1    0    0  501    0 -0.00000000000E+00 -0.00000000000E+00 -0.14462657899E+03  0.14462657899E+03  0.00000000000E+00 0. -1.
         25    2    1    2    0    0  0.29395297227E+00  0.48106662317E+02  0.30833656840E+03  0.33617078209E+03  0.12500007180E+03 0.  0.
          2    1    1    2  501    0 -0.26795914171E+02 -0.59591199633E+02 -0.11946433857E+03  0.13616482762E+03  0.00000000000E+00 0. -1.
          1    1    1    2  502    0  0.26501961198E+02  0.11484537315E+02  0.69150060741E+02  0.74939838839E+02  0.00000000000E+00 0. -1.
         22    1    3    3    0    0 -0.11706927120E+02  0.88525768796E+02  0.23754324655E+03  0.25377284698E+03  0.00000000000E+00 0. -1.
         22    1    3    3    0    0  0.12000880092E+02 -0.40419106479E+02  0.70793321851E+02  0.82397935109E+02  0.00000000000E+00 0. -1.
</event>
<event>
 7    1  0.5064652E-006  0.2239980E+03  0.7818608E-02  0.1239287E+00
          2   -1    0    0  502    0  0.00000000000E+00  0.00000000000E+00  0.98156882328E+03  0.98156882328E+03  0.00000000000E+00 0. -1.
          1   -1    0    0  501    0 -0.00000000000E+00 -0.00000000000E+00 -0.78696735829E+03  0.78696735829E+03  0.00000000000E+00 0. -1.
         25    2    1    2    0    0  0.23296511635E+03  0.10440282754E+03  0.19285134043E+03  0.34349492003E+03  0.12499769898E+03 0.  0.
          2    1    1    2  501    0 -0.17488456354E+03 -0.13743592236E+03 -0.69262274492E+03  0.72746100246E+03  0.00000000000E+00 0. -1.
          1    1    1    2  502    0 -0.58080552809E+02  0.33033094825E+02  0.69437286949E+03  0.69758025907E+03  0.00000000000E+00 0. -1.
         22    1    3    3    0    0  0.10603175689E+03  0.78462069685E+02  0.16453257854E+03  0.21087911051E+03  0.00000000000E+00 0.  1.
         22    1    3    3    0    0  0.12693335945E+03  0.25940757853E+02  0.28318761894E+02  0.13261580952E+03  0.00000000000E+00 0.  1.
</event>
<event>
 7    1  0.5064652E-006  0.1663570E+03  0.7818608E-02  0.1298905E+00
          2   -1    0    0  502    0  0.00000000000E+00  0.00000000000E+00  0.17886592778E+04  0.17886592778E+04  0.00000000000E+00 0. -1.
          1   -1    0    0  501    0 -0.00000000000E+00 -0.00000000000E+00 -0.28478678729E+03  0.28478678729E+03  0.00000000000E+00 0. -1.
         25    2    1    2    0    0 -0.19096018293E+03  0.36407745816E+02 -0.88896159424E+02  0.24762718101E+03  0.12500151277E+03 0.  0.
          2    1    1    2  501    0  0.14973681975E+03 -0.72520848988E+01 -0.67765625757E+02  0.16451713576E+03  0.00000000000E+00 0. -1.
          1    1    1    2  502    0  0.41223363180E+02 -0.29155660917E+02  0.16605342757E+04  0.16613017484E+04  0.00000000000E+00 0. -1.
         22    1    3    3    0    0 -0.13505638190E+03  0.58355059916E+02 -0.11028941256E+03  0.18387303726E+03  0.00000000000E+00 0. -1.
         22    1    3    3    0    0 -0.55903801026E+02 -0.21947314099E+02  0.21393253132E+02  0.63754143747E+02  0.00000000000E+00 0. -1.
</event>
<event>
 7    1  0.5064652E-006  0.1385600E+03  0.7818608E-02  0.1307947E+00
          2   -1    0    0  502    0  0.00000000000E+00  0.00000000000E+00  0.42021048847E+04  0.42021048847E+04  0.00000000000E+00 0. -1.
          1   -1    0    0  501    0 -0.00000000000E+00 -0.00000000000E+00 -0.37191650239E+03  0.37191650239E+03  0.00000000000E+00 0. -1.
         25    2    1    2    0    0 -0.11306787965E+03  0.43317131570E+02 -0.21480153241E+02  0.17534889473E+03  0.12500047441E+03 0.  0.
          2    1    1    2  501    0  0.14471758256E+03  0.26370307967E+01 -0.25414923564E+03  0.29247558293E+03  0.00000000000E+00 0. -1.
          1    1    1    2  502    0 -0.31649702916E+02 -0.45954162367E+02  0.41058177712E+04  0.41061969095E+04  0.00000000000E+00 0. -1.
         22    1    3    3    0    0  0.22867799314E+02  0.10521467362E+02 -0.24988313789E+02  0.35469047731E+02  0.00000000000E+00 0.  1.
         22    1    3    3    0    0 -0.13593567896E+03  0.32795664208E+02  0.35081605481E+01  0.13987984700E+03  0.00000000000E+00 0.  1.
</event>
<event>
 7    1  0.5064652E-006  0.5550691E+02  0.7818608E-02  0.1477975E+00
          2   -1    0    0  502    0  0.00000000000E+00  0.00000000000E+00  0.39164358227E+03  0.39164358227E+03  0.00000000000E+00 0. -1.
          1   -1    0    0  501    0 -0.00000000000E+00 -0.00000000000E+00 -0.17616188919E+03  0.17616188919E+03  0.00000000000E+00 0. -1.
         25    2    1    2    0    0 -0.58377424454E+02  0.60315430549E+02  0.48377533023E+02  0.15815003881E+03  0.12500069691E+03 0.  0.
          2    1    1    2  501    0  0.25084552008E+02 -0.47842004350E+02 -0.11408484034E+03  0.12622774229E+03  0.00000000000E+00 0. -1.
          1    1    1    2  502    0  0.33292872446E+02 -0.12473426199E+02  0.28118900039E+03  0.28342769035E+03  0.00000000000E+00 0. -1.
         22    1    3    3    0    0 -0.81309163160E+02  0.84417385821E+02  0.35346052680E+02  0.12242066199E+03  0.00000000000E+00 0.  1.
         22    1    3    3    0    0  0.22931738706E+02 -0.24101955272E+02  0.13031480343E+02  0.35729376820E+02  0.00000000000E+00 0.  1.
</event>
<event>
 7    1  0.5064652E-006  0.5571928E+02  0.7818608E-02  0.1427273E+00
          2   -1    0    0  502    0  0.00000000000E+00  0.00000000000E+00  0.96016973748E+02  0.96016973748E+02  0.00000000000E+00 0. -1.
          1   -1    0    0  501    0 -0.00000000000E+00 -0.00000000000E+00 -0.37979111300E+03  0.37979111300E+03  0.00000000000E+00 0. -1.
         25    2    1    2    0    0 -0.58151188038E+02 -0.14568206042E+01 -0.19059589540E+03  0.23522989621E+03  0.12499050256E+03 0.  0.
          2    1    1    2  501    0  0.22911342761E+02  0.46000864213E+02 -0.15101265049E+03  0.15951749040E+03  0.00000000000E+00 0. -1.
          1    1    1    2  502    0  0.35239845277E+02 -0.44544043609E+02  0.57834406638E+02  0.81060700141E+02  0.00000000000E+00 0. -1.
         22    1    3    3    0    0 -0.23189634818E+02  0.42413424145E+02 -0.16789208775E+03  0.17471236602E+03  0.00000000000E+00 0. -1.
         22    1    3    3    0    0 -0.34961553220E+02 -0.43870244749E+02 -0.22703807644E+02  0.60517530183E+02  0.00000000000E+00 0. -1.
</event>
<event>
 7    1  0.5064652E-006  0.1226779E+03  0.7818608E-02  0.1313770E+00
          2   -1    0    0  502    0  0.00000000000E+00  0.00000000000E+00  0.11548932387E+04  0.11548932387E+04  0.00000000000E+00 0. -1.
          1   -1    0    0  501    0 -0.00000000000E+00 -0.00000000000E+00 -0.75841998278E+02  0.75841998278E+02  0.00000000000E+00 0. -1.
         25    2    1    2    0    0  0.88557801818E+02 -0.20245912274E+02  0.36049520086E+03  0.39221787099E+03  0.12500274898E+03 0.  0.
          2    1    1    2  501    0 -0.12768352580E+03 -0.24955724196E+02  0.13350866043E+02  0.13078270740E+03  0.00000000000E+00 0. -1.
          1    1    1    2  502    0  0.39125723979E+02  0.45201636471E+02  0.70520517355E+03  0.70773465863E+03  0.00000000000E+00 0. -1.
         22    1    3    3    0    0  0.61646915688E+02 -0.71377478491E+02  0.25585557476E+03  0.27268509637E+03  0.00000000000E+00 0.  1.
         22    1    3    3    0    0  0.26910886130E+02  0.51131566216E+02  0.10463962610E+03  0.11953277461E+03  0.00000000000E+00 0.  1.
</event>
<event>
 7    1  0.5064652E-006  0.6132883E+02  0.7818608E-02  0.1500046E+00
          2   -1    0    0  502    0  0.00000000000E+00  0.00000000000E+00  0.91781568794E+03  0.91781568794E+03  0.00000000000E+00 0. -1.
          1   -1    0    0  501    0 -0.00000000000E+00 -0.00000000000E+00 -0.48000541498E+03  0.48000541498E+03  0.00000000000E+00 0. -1.
         25    2    1    2    0    0  0.36603117344E+01  0.53382375845E+02 -0.22966317876E+03  0.26689452290E+03  0.12499773895E+03 0.  0.
          2    1    1    2  501    0 -0.31104523151E+02 -0.56172975315E+02 -0.22706184044E+03  0.23596604396E+03  0.00000000000E+00 0. -1.
          1    1    1    2  502    0  0.27444211416E+02  0.27905994705E+01  0.89453529217E+03  0.89496053607E+03  0.00000000000E+00 0. -1.
         22    1    3    3    0    0  0.26052355879E+02  0.32637555198E+02 -0.72361396597E+01  0.42382743815E+02  0.00000000000E+00 0.  1.
         22    1    3    3    0    0 -0.22392044145E+02  0.20744820646E+02 -0.22242703910E+03  0.22451177909E+03  0.00000000000E+00 0.  1.
</event>
<event>
 7    1  0.5064652E-006  0.1244566E+03  0.7818608E-02  0.1296128E+00
          2   -1    0    0  502    0  0.00000000000E+00  0.00000000000E+00  0.93260243982E+03  0.93260243982E+03  0.00000000000E+00 0. -1.
          1   -1    0    0  501    0 -0.00000000000E+00 -0.00000000000E+00 -0.63584254847E+02  0.63584254847E+02  0.00000000000E+00 0. -1.
         25    2    1    2    0    0  0.71573881511E+02  0.44954092019E+02  0.12021951083E+03  0.19293002687E+03  0.12500229430E+03 0.  0.
          2    1    1    2  501    0  0.60539432911E+02 -0.33618328022E+02  0.35650000282E+02  0.77885412217E+02  0.00000000000E+00 0. -1.
          1    1    1    2  502    0 -0.13211331442E+03 -0.11335763997E+02  0.71314867387E+03  0.72537125559E+03  0.00000000000E+00 0. -1.
         22    1    3    3    0    0  0.59242866791E+02  0.70056625636E+01 -0.65640917733E+01  0.60015696900E+02  0.00000000000E+00 0. -1.
         22    1    3    3    0    0  0.12331014720E+02  0.37948429456E+02  0.12678360260E+03  0.13291432997E+03  0.00000000000E+00 0. -1.
</event>
<event>
 7    1  0.5064652E-006  0.7952076E+02  0.7818608E-02  0.1434450E+00
          2   -1    0    0  502    0  0.00000000000E+00  0.00000000000E+00  0.34856752395E+03  0.34856752395E+03  0.00000000000E+00 0. -1.
          1   -1    0    0  501    0 -0.00000000000E+00 -0.00000000000E+00 -0.25952717670E+03  0.25952717670E+03  0.00000000000E+00 0. -1.
         25    2    1    2    0    0  0.44955990791E+02  0.95928704827E+02  0.85002117421E+02  0.18459007789E+03  0.12499911748E+03 0.  0.
          2    1    1    2  501    0 -0.17045444164E+02 -0.76329856809E+02 -0.20098413706E+03  0.21566505873E+03  0.00000000000E+00 0. -1.
          1    1    1    2  502    0 -0.27910546627E+02 -0.19598848018E+02  0.20502236688E+03  0.20783956404E+03  0.00000000000E+00 0. -1.
         22    1    3    3    0    0  0.55132869314E+02  0.98300623250E+02  0.14868821195E+02  0.11368257410E+03  0.00000000000E+00 0.  1.
         22    1    3    3    0    0 -0.10176878524E+02 -0.23719184238E+01  0.70133296227E+02  0.70907503785E+02  0.00000000000E+00 0.  1.
</event>
<event>
 7    1  0.5064652E-006  0.1051334E+03  0.7818608E-02  0.1302066E+00
          2   -1    0    0  502    0  0.00000000000E+00  0.00000000000E+00  0.32719789551E+02  0.32719789551E+02  0.00000000000E+00 0. -1.
          1   -1    0    0  501    0 -0.00000000000E+00 -0.00000000000E+00 -0.13311896469E+04  0.13311896469E+04  0.00000000000E+00 0. -1.
         25    2    1    2    0    0 -0.66433086825E+02  0.30458526011E+02 -0.27602156659E+03  0.31169460747E+03  0.12499818507E+03 0.  0.
          2    1    1    2  501    0  0.11009178825E+03  0.33698342498E+02 -0.89940151956E+03  0.90674079731E+03  0.00000000000E+00 0. -1.
          1    1    1    2  502    0 -0.43658701423E+02 -0.64156868509E+02 -0.12304677118E+03  0.14547403165E+03  0.00000000000E+00 0. -1.
         22    1    3    3    0    0 -0.84558967632E+01  0.71697178130E+02 -0.11697263949E+03  0.13745757866E+03  0.00000000000E+00 0. -1.
         22    1    3    3    0    0 -0.57977190062E+02 -0.41238652119E+02 -0.15904892711E+03  0.17423702881E+03  0.00000000000E+00 0. -1.
</event>
<event>
 7    1  0.5064652E-006  0.2076480E+03  0.7818608E-02  0.1245360E+00
          2   -1    0    0  502    0  0.00000000000E+00  0.00000000000E+00  0.75026723825E+03  0.75026723825E+03  0.00000000000E+00 0. -1.
          1   -1    0    0  501    0 -0.00000000000E+00 -0.00000000000E+00 -0.12173569981E+04  0.12173569981E+04  0.00000000000E+00 0. -1.
         25    2    1    2    0    0  0.22953086864E+03 -0.19250309713E+02  0.38021503696E+03  0.46178327544E+03  0.12500130022E+03 0.  0.
          2    1    1    2  501    0 -0.19283726090E+03  0.76243358255E+02 -0.11638199883E+04  0.11821489856E+04  0.00000000000E+00 0. -1.
          1    1    1    2  502    0 -0.36693607746E+02 -0.56993048541E+02  0.31651519152E+03  0.32369197533E+03  0.00000000000E+00 0. -1.
         22    1    3    3    0    0  0.19515884789E+02 -0.22581720504E+02  0.29535801297E+01  0.29992123892E+02  0.00000000000E+00 0. -1.
         22    1    3    3    0    0  0.21001498385E+03  0.33314107904E+01  0.37726145683E+03  0.43179115154E+03  0.00000000000E+00 0. -1.
</event>
<event>
 7    1  0.5064652E-006  0.6060158E+02  0.7818608E-02  0.1435985E+00
          2   -1    0    0  502    0  0.00000000000E+00  0.00000000000E+00  0.80378602663E+03  0.80378602663E+03  0.00000000000E+00 0. -1.
          1   -1    0    0  501    0 -0.00000000000E+00 -0.00000000000E+00 -0.17743774756E+04  0.17743774756E+04  0.00000000000E+00 0. -1.
         25    2    1    2    0    0 -0.25766686474E+02  0.79599031920E+01  0.90314218542E+01  0.12819697262E+03  0.12500246005E+03 0.  0.
          2    1    1    2  501    0 -0.30970287971E+02 -0.31588351964E+02 -0.17132241531E+04  0.17137951982E+04  0.00000000000E+00 0. -1.
          1    1    1    2  502    0  0.56736974445E+02  0.23628448772E+02  0.73360128225E+03  0.73617133140E+03  0.00000000000E+00 0. -1.
         22    1    3    3    0    0  0.33003009953E+02 -0.36193387888E+02  0.21756770465E+02  0.53595867880E+02  0.00000000000E+00 0.  1.
         22    1    3    3    0    0 -0.58769696427E+02  0.44153291080E+02 -0.12725348611E+02  0.74601104741E+02  0.00000000000E+00 0.  1.
</event>
<event>
 7    1  0.5064652E-006  0.5457244E+02  0.7818608E-02  0.1488170E+00
          2   -1    0    0  502    0  0.00000000000E+00  0.00000000000E+00  0.26011701016E+04  0.26011701016E+04  0.00000000000E+00 0. -1.
          1   -1    0    0  501    0 -0.00000000000E+00 -0.00000000000E+00 -0.86525088889E+03  0.86525088889E+03  0.00000000000E+00 0. -1.
         25    2    1    2    0    0 -0.29770070819E+02  0.80574842751E+02  0.76026728003E+02  0.16965698164E+03  0.12499946259E+03 0.  0.
          2    1    1    2  501    0  0.24201376925E+01 -0.33572047120E+02 -0.81779121151E+03  0.81848360096E+03  0.00000000000E+00 0. -1.
          1    1    1    2  502    0  0.27349933126E+02 -0.47002795631E+02  0.24776836962E+04  0.24782804079E+04  0.00000000000E+00 0. -1.
         22    1    3    3    0    0  0.39866770390E+02  0.13394555139E+02 -0.64090389681E+01  0.42542323270E+02  0.00000000000E+00 0. -1.
         22    1    3    3    0    0 -0.69636841208E+02  0.67180287612E+02  0.82435766971E+02  0.12711465837E+03  0.00000000000E+00 0. -1.
</event>
<event>
 7    1  0.5064652E-006  0.8879519E+02  0.7818608E-02  0.1428714E+00
          2   -1    0    0  502    0  0.00000000000E+00  0.00000000000E+00  0.21735935770E+04  0.21735935770E+04  0.00000000000E+00 0. -1.
          1   -1    0    0  501    0 -0.00000000000E+00 -0.00000000000E+00 -0.60987527345E+02  0.60987527345E+02  0.00000000000E+00 0. -1.
         25    2    1    2    0    0 -0.55061446598E+02  0.25876216798E+02  0.17784173628E+03  0.22573069900E+03  0.12500129524E+03 0.  0.
          2    1    1    2  501    0 -0.31817963414E+02 -0.22375041443E+01 -0.28948564898E+02  0.43074454497E+02  0.00000000000E+00 0. -1.
          1    1    1    2  502    0  0.86879410012E+02 -0.23638712653E+02  0.19637128783E+04  0.19657759509E+04  0.00000000000E+00 0. -1.
         22    1    3    3    0    0 -0.11002904400E+02  0.57281707373E+02  0.15745439481E+03  0.16791112039E+03  0.00000000000E+00 0. -1.
         22    1    3    3    0    0 -0.44058542198E+02 -0.31405490576E+02  0.20387341464E+02  0.57819578612E+02  0.00000000000E+00 0. -1.
</event>
<event>
 7    1  0.5064652E-006  0.1321461E+03  0.7818608E-02  0.1240291E+00
          2   -1    0    0  502    0  0.00000000000E+00  0.00000000000E+00  0.41191721275E+04  0.41191721275E+04  0.00000000000E+00 0. -1.
          1   -1    0    0  501    0 -0.00000000000E+00 -0.00000000000E+00 -0.14041521129E+04  0.14041521129E+04  0.00000000000E+00 0. -1.
         25    2    1    2    0    0 -0.11013772601E+03  0.23370373697E+02  0.11016673918E+03  0.20109209281E+03  0.12499930525E+03 0.  0.
          2    1    1    2  501    0  0.10013594522E+03  0.88294019053E+02 -0.13546146218E+04  0.13611773635E+04  0.00000000000E+00 0. -1.
          1    1    1    2  502    0  0.10001780789E+02 -0.11166439275E+03  0.39594678973E+04  0.39610547840E+04  0.00000000000E+00 0. -1.
         22    1    3    3    0    0 -0.29942451965E+02 -0.26136037772E+02  0.98389550626E+02  0.10611383780E+03  0.00000000000E+00 0. -1.
         22    1    3    3    0    0 -0.80195274043E+02  0.49506411469E+02  0.11777188553E+02  0.94978255014E+02  0.00000000000E+00 0. -1.
</event>
<event>
 7    1  0.5064652E-006  0.1288070E+03  0.7818608E-02  0.1285717E+00
          2   -1    0    0  502    0  0.00000000000E+00  0.00000000000E+00  0.71121450495E+03  0.71121450495E+03  0.00000000000E+00 0. -1.
          1   -1    0    0  501    0 -0.00000000000E+00 -0.00000000000E+00 -0.62913298190E+02  0.62913298190E+02  0.00000000000E+00 0. -1.
         25    2    1    2    0    0 -0.88307837640E+02  0.11300219659E+02  0.31203875823E+03  0.34773432799E+03  0.12500002830E+03 0.  0.
          2    1    1    2  501    0  0.14261765883E+03  0.38595322330E+02  0.98790152654E+02  0.17773263566E+03  0.00000000000E+00 0. -1.
          1    1    1    2  502    0 -0.54309821190E+02 -0.49895541989E+02  0.23747229588E+03  0.24866083949E+03  0.00000000000E+00 0. -1.
         22    1    3    3    0    0 -0.46152234130E+02  0.34589577283E+02  0.28835210215E+03  0.29406360262E+03  0.00000000000E+00 0. -1.
         22    1    3    3    0    0 -0.42155603510E+02 -0.23289357624E+02  0.23686656082E+02  0.53670725374E+02  0.00000000000E+00 0. -1.
</event>
<event>
 7    1  0.5064652E-006  0.9814714E+02  0.7818608E-02  0.1430325E+00
          2   -1    0    0  502    0  0.00000000000E+00  0.00000000000E+00  0.47366062110E+03  0.47366062110E+03  0.00000000000E+00 0. -1.
          1   -1    0    0  501    0 -0.00000000000E+00 -0.00000000000E+00 -0.44541297957E+03  0.44541297957E+03  0.00000000000E+00 0. -1.
         25    2    1    2    0    0  0.86903262030E+02 -0.37224505595E+02 -0.62560927679E+02  0.16874953077E+03  0.12499877477E+03 0.  0.
          2    1    1    2  501    0  0.11008980602E+02  0.26295303781E+02 -0.32335230442E+03  0.32460645932E+03  0.00000000000E+00 0. -1.
          1    1    1    2  502    0 -0.97912242633E+02  0.10929201814E+02  0.41416087364E+03  0.42571761059E+03  0.00000000000E+00 0. -1.
         22    1    3    3    0    0  0.83141052718E+02  0.26481687780E+02 -0.57989591800E+02  0.10476882739E+03  0.00000000000E+00 0. -1.
         22    1    3    3    0    0  0.37622093123E+01 -0.63706193375E+02 -0.45713358793E+01  0.63980703380E+02  0.00000000000E+00 0. -1.
</event>
<event>
 7    1  0.7119690E-006  0.1031495E+03  0.7818608E-02  0.1299910E+00
          2   -1    0    0  502    0  0.00000000000E+00  0.00000000000E+00  0.82763978591E+03  0.82763978591E+03  0.00000000000E+00 0. -1.
          1   -1    0    0  501    0 -0.00000000000E+00 -0.00000000000E+00 -0.22669447687E+04  0.22669447687E+04  0.00000000000E+00 0. -1.
         25    2    1    2    0    0  0.38064215499E+02 -0.77161830705E+02 -0.25826875722E+03  0.29955052211E+03  0.12499972687E+03 0.  0.
          2    1    1    2  501    0 -0.10234609549E+03  0.28404912858E+02 -0.19845949040E+04  0.19874351550E+04  0.00000000000E+00 0. -1.
          1    1    1    2  502    0  0.64281879993E+02  0.48756917847E+02  0.80355867847E+03  0.80759887746E+03  0.00000000000E+00 0. -1.
         22    1    3    3    0    0 -0.10651843132E+02  0.18043789917E+02 -0.10440031866E+01  0.20979276902E+02  0.00000000000E+00 0. -1.
         22    1    3    3    0    0  0.48716058631E+02 -0.95205620622E+02 -0.25722475403E+03  0.27857124520E+03  0.00000000000E+00 0. -1.
</event>
<event>
 7    1  0.5064652E-006  0.9089511E+02  0.7818608E-02  0.1445579E+00
          2   -1    0    0  502    0  0.00000000000E+00  0.00000000000E+00  0.70552578636E+03  0.70552578636E+03  0.00000000000E+00 0. -1.
          1   -1    0    0  501    0 -0.00000000000E+00 -0.00000000000E+00 -0.54495672309E+03  0.54495672309E+03  0.00000000000E+00 0. -1.
         25    2    1    2    0    0  0.16317913965E+02  0.99312948012E+02  0.11694397267E+03  0.19857246225E+03  0.12500317620E+03 0.  0.
          2    1    1    2  501    0 -0.37956229242E+02 -0.82413081676E+02 -0.49971056878E+03  0.50788113168E+03  0.00000000000E+00 0. -1.
          1    1    1    2  502    0  0.21638315277E+02 -0.16899866336E+02  0.54333565938E+03  0.54402891553E+03  0.00000000000E+00 0. -1.
         22    1    3    3    0    0  0.10237354608E+02  0.61102463885E+02 -0.12730741418E+02  0.63248607093E+02  0.00000000000E+00 0. -1.
         22    1    3    3    0    0  0.60805593577E+01  0.38210484127E+02  0.12967471409E+03  0.13532385515E+03  0.00000000000E+00 0. -1.
</event>
<event>
 7    1  0.5064652E-006  0.1341337E+03  0.7818608E-02  0.1320542E+00
          2   -1    0    0  502    0  0.00000000000E+00  0.00000000000E+00  0.26884015726E+04  0.26884015726E+04  0.00000000000E+00 0. -1.
          1   -1    0    0  501    0 -0.00000000000E+00 -0.00000000000E+00 -0.33149501619E+03  0.33149501619E+03  0.00000000000E+00 0. -1.
         25    2    1    2    0    0 -0.11585264642E+03 -0.14195339370E+03  0.21918339558E+03  0.31183497869E+03  0.12500836520E+03 0.  0.
          2    1    1    2  501    0  0.27853074076E+02  0.43262370181E+02 -0.28102774176E+03  0.28569917404E+03  0.00000000000E+00 0. -1.
          1    1    1    2  502    0  0.87999572342E+02  0.98691023514E+02  0.24187509026E+04  0.24223624361E+04  0.00000000000E+00 0. -1.
         22    1    3    3    0    0 -0.90651535612E+02 -0.91972180481E+02  0.22085055307E+03  0.25583500481E+03  0.00000000000E+00 0.  1.
         22    1    3    3    0    0 -0.25201110806E+02 -0.49981213215E+02 -0.16671574933E+01  0.55999973878E+02  0.00000000000E+00 0.  1.
</event>
<event>
 7    1  0.5064652E-006  0.7795373E+02  0.7818608E-02  0.1475695E+00
          2   -1    0    0  502    0  0.00000000000E+00  0.00000000000E+00  0.81940822081E+03  0.81940822081E+03  0.00000000000E+00 0. -1.
          1   -1    0    0  501    0 -0.00000000000E+00 -0.00000000000E+00 -0.14703095883E+03  0.14703095883E+03  0.00000000000E+00 0. -1.
         25    2    1    2    0    0  0.71201440347E+02 -0.14848414056E+02  0.65004877656E+03  0.66594329157E+03  0.12500774045E+03 0.  0.
          2    1    1    2  501    0 -0.77451574747E+02 -0.10108875608E+02 -0.12692934110E+03  0.14903688614E+03  0.00000000000E+00 0. -1.
          1    1    1    2  502    0  0.62501344004E+01  0.24957289664E+02  0.14925782653E+03  0.15145900193E+03  0.00000000000E+00 0. -1.
         22    1    3    3    0    0  0.21758769700E+01 -0.51493622458E+02  0.41625932306E+03  0.41943789961E+03  0.00000000000E+00 0. -1.
         22    1    3    3    0    0  0.69025563377E+02  0.36645208401E+02  0.23378945350E+03  0.24650539196E+03  0.00000000000E+00 0. -1.
</event>
<event>
 7    1  0.5064652E-006  0.9879354E+02  0.7818608E-02  0.1286326E+00
          2   -1    0    0  502    0  0.00000000000E+00  0.00000000000E+00  0.88930179795E+03  0.88930179795E+03  0.00000000000E+00 0. -1.
          1   -1    0    0  501    0 -0.00000000000E+00 -0.00000000000E+00 -0.14838480363E+04  0.14838480363E+04  0.00000000000E+00 0. -1.
         25    2    1    2    0    0  0.10976224531E+03 -0.15498417717E+03  0.65204656739E+00  0.22736051476E+03  0.12499813134E+03 0.  0.
          2    1    1    2  501    0 -0.43027671699E+02  0.85375923753E+02 -0.13658178276E+04  0.13691598764E+04  0.00000000000E+00 0. -1.
          1    1    1    2  502    0 -0.66734573615E+02  0.69608253419E+02  0.77061954271E+03  0.77662944308E+03  0.00000000000E+00 0. -1.
         22    1    3    3    0    0  0.48932053594E+02 -0.49633878107E+02 -0.59508274504E+02  0.91646617282E+02  0.00000000000E+00 0.  1.
         22    1    3    3    0    0  0.60830191720E+02 -0.10535029906E+03  0.60160321071E+02  0.13571389748E+03  0.00000000000E+00 0.  1.
</event>
<event>
 7    1  0.5064652E-006  0.1559864E+03  0.7818608E-02  0.1232222E+00
          2   -1    0    0  502    0  0.00000000000E+00  0.00000000000E+00  0.13704517759E+03  0.13704517759E+03  0.00000000000E+00 0. -1.
          1   -1    0    0  501    0 -0.00000000000E+00 -0.00000000000E+00 -0.33166094882E+04  0.33166094882E+04  0.00000000000E+00 0. -1.
         25    2    1    2    0    0  0.80522639589E+02 -0.21569877665E+03 -0.98184205408E+03  0.10161933314E+04  0.12500083956E+03 0.  0.
          2    1    1    2  501    0  0.20795839641E+02  0.10102096719E+03 -0.22670996201E+04  0.22694445114E+04  0.00000000000E+00 0. -1.
          1    1    1    2  502    0 -0.10131847923E+03  0.11467780946E+03  0.69377363619E+02  0.16801682296E+03  0.00000000000E+00 0. -1.
         22    1    3    3    0    0  0.34199801085E+02 -0.15160982728E+03 -0.40223955694E+03  0.43122132054E+03  0.00000000000E+00 0.  1.
         22    1    3    3    0    0  0.46322838504E+02 -0.64088949370E+02 -0.57960249714E+03  0.58497201086E+03  0.00000000000E+00 0.  1.
</event>
<event>
 7    1  0.5064652E-006  0.1016015E+03  0.7818608E-02  0.1322630E+00
          2   -1    0    0  502    0  0.00000000000E+00  0.00000000000E+00  0.90270822896E+03  0.90270822896E+03  0.00000000000E+00 0. -1.
          1   -1    0    0  501    0 -0.00000000000E+00 -0.00000000000E+00 -0.14353697461E+04  0.14353697461E+04  0.00000000000E+00 0. -1.
         25    2    1    2    0    0  0.14946469683E+03  0.28072095670E+02  0.35725288655E+03  0.40790020620E+03  0.12500086046E+03 0.  0.
          2    1    1    2  501    0 -0.55935602038E+02 -0.36288809377E+02 -0.14050120367E+04  0.14065932222E+04  0.00000000000E+00 0. -1.
          1    1    1    2  502    0 -0.93529094796E+02  0.82167137063E+01  0.51509763305E+03  0.52358454669E+03  0.00000000000E+00 0. -1.
         22    1    3    3    0    0  0.62284238507E+02  0.65272362725E+02  0.10505644697E+03  0.13847983518E+03  0.00000000000E+00 0.  1.
         22    1    3    3    0    0  0.87180458327E+02 -0.37200267055E+02  0.25219643958E+03  0.26942037102E+03  0.00000000000E+00 0.  1.
</event>
<event>
 7    1  0.5064652E-006  0.1482369E+03  0.7818608E-02  0.1251116E+00
          2   -1    0    0  502    0  0.00000000000E+00  0.00000000000E+00  0.96417437459E+03  0.96417437459E+03  0.00000000000E+00 0. -1.
          1   -1    0    0  501    0 -0.00000000000E+00 -0.00000000000E+00 -0.73176709693E+03  0.73176709693E+03  0.00000000000E+00 0. -1.
         25    2    1    2    0    0 -0.85283102656E+02  0.69613361350E+01 -0.14308685145E+03  0.20837545511E+03  0.12499926173E+03 0.  0.
          2    1    1    2  501    0  0.17477286602E+03 -0.19593055540E+01 -0.54005794788E+03  0.56763719103E+03  0.00000000000E+00 0. -1.
          1    1    1    2  502    0 -0.89489763366E+02 -0.50020305810E+01  0.91555207700E+03  0.91992882537E+03  0.00000000000E+00 0. -1.
         22    1    3    3    0    0 -0.20166392715E+02  0.20055041793E+02 -0.13894541087E+03  0.14182635615E+03  0.00000000000E+00 0. -1.
         22    1    3    3    0    0 -0.65116709941E+02 -0.13093705658E+02 -0.41414405801E+01  0.66549098953E+02  0.00000000000E+00 0. -1.
</event>
<event>
 7    1  0.5064652E-006  0.1238066E+03  0.7818608E-02  0.1438739E+00
          2   -1    0    0  502    0  0.00000000000E+00  0.00000000000E+00  0.38912934959E+03  0.38912934959E+03  0.00000000000E+00 0. -1.
          1   -1    0    0  501    0 -0.00000000000E+00 -0.00000000000E+00 -0.29710145102E+03  0.29710145102E+03  0.00000000000E+00 0. -1.
         25    2    1    2    0    0  0.37086323941E+02  0.10926361818E+03  0.54979102042E+02  0.17878043481E+03  0.12500323408E+03 0.  0.
          2    1    1    2  501    0 -0.15131692648E+02  0.14864004703E+02 -0.22007240703E+03  0.22109222306E+03  0.00000000000E+00 0. -1.
          1    1    1    2  502    0 -0.21954631293E+02 -0.12412762288E+03  0.25712120356E+03  0.28635814275E+03  0.00000000000E+00 0. -1.
         22    1    3    3    0    0 -0.64170424564E+01 -0.22067220384E+02  0.30650264774E+02  0.38308998683E+02  0.00000000000E+00 0.  1.
         22    1    3    3    0    0  0.43503366397E+02  0.13133083856E+03  0.24328837268E+02  0.14047143613E+03  0.00000000000E+00 0.  1.
</event>
<event>
 7    1  0.5064652E-006  0.1924484E+03  0.7818608E-02  0.1158215E+00
          2   -1    0    0  502    0  0.00000000000E+00  0.00000000000E+00  0.32394496054E+03  0.32394496054E+03  0.00000000000E+00 0. -1.
          1   -1    0    0  501    0 -0.00000000000E+00 -0.00000000000E+00 -0.79070321424E+03  0.79070321424E+03  0.00000000000E+00 0. -1.
         25    2    1    2    0    0 -0.33181125295E+02  0.58392036395E+02 -0.87331877231E+02  0.16662573958E+03  0.12500665310E+03 0.  0.
          2    1    1    2  501    0  0.45285679305E+02  0.18704436984E+03 -0.59237805425E+03  0.62285483718E+03  0.00000000000E+00 0. -1.
          1    1    1    2  502    0 -0.12104554010E+02 -0.24543640624E+03  0.21295167778E+03  0.32516759802E+03  0.00000000000E+00 0. -1.
         22    1    3    3    0    0 -0.92210786615E+00  0.53682642751E+02 -0.11301708711E+03  0.12512209395E+03  0.00000000000E+00 0.  1.
         22    1    3    3    0    0 -0.32259017429E+02  0.47093936437E+01  0.25685209877E+02  0.41503645628E+02  0.00000000000E+00 0.  1.
</event>
<event>
 7    1  0.5064652E-006  0.3212820E+02  0.7818608E-02  0.1638197E+00
          2   -1    0    0  502    0  0.00000000000E+00  0.00000000000E+00  0.10911777069E+04  0.10911777069E+04  0.00000000000E+00 0. -1.
          1   -1    0    0  501    0 -0.00000000000E+00 -0.00000000000E+00 -0.78309439722E+01  0.78309439722E+01  0.00000000000E+00 0. -1.
         25    2    1    2    0    0  0.53211050179E+01 -0.15773569272E+02  0.72201969796E+03  0.73294959397E+03  0.12500217366E+03 0.  0.
          2    1    1    2  501    0 -0.85348298225E+01 -0.20416223747E+02  0.12214443710E+03  0.12413270733E+03  0.00000000000E+00 0. -1.
          1    1    1    2  502    0  0.32137248046E+01  0.36189793019E+02  0.23918262786E+03  0.24192634956E+03  0.00000000000E+00 0. -1.
         22    1    3    3    0    0 -0.54496998380E+02 -0.87353517538E+01  0.20031259772E+03  0.20777720281E+03  0.00000000000E+00 0. -1.
         22    1    3    3    0    0  0.59818103398E+02 -0.70382175184E+01  0.52170710024E+03  0.52517239116E+03  0.00000000000E+00 0. -1.
</event>
<event>
 7    1  0.5064652E-006  0.6538902E+02  0.7818608E-02  0.1412860E+00
          2   -1    0    0  502    0  0.00000000000E+00  0.00000000000E+00  0.92698206159E+03  0.92698206159E+03  0.00000000000E+00 0. -1.
          1   -1    0    0  501    0 -0.00000000000E+00 -0.00000000000E+00 -0.75651374110E+03  0.75651374110E+03  0.00000000000E+00 0. -1.
         25    2    1    2    0    0  0.66832676484E+02 -0.10504720093E+02  0.14846702596E+03  0.20552918353E+03  0.12499132648E+03 0.  0.
          2    1    1    2  501    0 -0.25925354164E+02 -0.41490078899E+02 -0.72569843789E+03  0.72734570418E+03  0.00000000000E+00 0. -1.
          1    1    1    2  502    0 -0.40907322319E+02  0.51994798992E+02  0.74769973242E+03  0.75062091498E+03  0.00000000000E+00 0. -1.
         22    1    3    3    0    0  0.10149817849E+03  0.20365351538E+01  0.86249193305E+02  0.13321017626E+03  0.00000000000E+00 0. -1.
         22    1    3    3    0    0 -0.34665502009E+02 -0.12541255247E+02  0.62217832658E+02  0.72319007276E+02  0.00000000000E+00 0. -1.
</event>
<event>
 7    1  0.5064652E-006  0.1947859E+03  0.7818608E-02  0.1217559E+00
          2   -1    0    0  502    0  0.00000000000E+00  0.00000000000E+00  0.18449186119E+04  0.18449186119E+04  0.00000000000E+00 0. -1.
          1   -1    0    0  501    0 -0.00000000000E+00 -0.00000000000E+00 -0.17254427881E+03  0.17254427881E+03  0.00000000000E+00 0. -1.
         25    2    1    2    0    0 -0.13136017805E+03  0.13045678509E+02  0.20003750086E+03  0.27030884030E+03  0.12500472505E+03 0.  0.
          2    1    1    2  501    0  0.21756251504E+03  0.29702380790E+02 -0.47181389530E+02  0.22459243730E+03  0.00000000000E+00 0. -1.
          1    1    1    2  502    0 -0.86202336992E+02 -0.42748059299E+02  0.15195182218E+04  0.15225616131E+04  0.00000000000E+00 0. -1.
         22    1    3    3    0    0 -0.15480172894E+02  0.55816138441E+02  0.71901626707E+02  0.92330498680E+02  0.00000000000E+00 0.  1.
         22    1    3    3    0    0 -0.11588000516E+03 -0.42770459933E+02  0.12813587416E+03  0.17797834162E+03  0.00000000000E+00 0.  1.
</event>
<event>
 7    1  0.5064652E-006  0.3415806E+02  0.7818608E-02  0.1611733E+00
          2   -1    0    0  502    0  0.00000000000E+00  0.00000000000E+00  0.92948466506E+03  0.92948466506E+03  0.00000000000E+00 0. -1.
          1   -1    0    0  501    0 -0.00000000000E+00 -0.00000000000E+00 -0.30005007806E+03  0.30005007806E+03  0.00000000000E+00 0. -1.
         25    2    1    2    0    0 -0.26715671598E+02  0.17191319589E+02 -0.13851960777E+03  0.18926723258E+03  0.12500054005E+03 0.  0.
          2    1    1    2  501    0 -0.69176069884E+01 -0.23277999043E+02 -0.13474786028E+03  0.13691860493E+03  0.00000000000E+00 0. -1.
          1    1    1    2  502    0  0.33633278587E+02  0.60866794549E+01  0.90270205504E+03  0.90334890561E+03  0.00000000000E+00 0. -1.
         22    1    3    3    0    0 -0.31788612902E+01  0.61934771149E+02 -0.28630365679E+02  0.68306067632E+02  0.00000000000E+00 0. -1.
         22    1    3    3    0    0 -0.23536810308E+02 -0.44743451561E+02 -0.10988924209E+03  0.12096116494E+03  0.00000000000E+00 0. -1.
</event>
<event>
 7    1  0.5064652E-006  0.7870907E+02  0.7818608E-02  0.1348184E+00
          2   -1    0    0  502    0  0.00000000000E+00  0.00000000000E+00  0.11621695445E+04  0.11621695445E+04  0.00000000000E+00 0. -1.
          1   -1    0    0  501    0 -0.00000000000E+00 -0.00000000000E+00 -0.34367090028E+03  0.34367090028E+03  0.00000000000E+00 0. -1.
         25    2    1    2    0    0 -0.13337672965E+02  0.28385897422E+01  0.29688157067E+01  0.12578626567E+03  0.12500967823E+03 0.  0.
          2    1    1    2  501    0 -0.62979381243E+02 -0.27865683757E+02 -0.27656464326E+03  0.28501035191E+03  0.00000000000E+00 0. -1.
          1    1    1    2  502    0  0.76317054208E+02  0.25027094015E+02  0.10920944718E+04  0.10950438272E+04  0.00000000000E+00 0. -1.
         22    1    3    3    0    0  0.15065700701E+02  0.39444626527E+02  0.46079185262E+02  0.62499161706E+02  0.00000000000E+00 0.  1.
         22    1    3    3    0    0 -0.28403373665E+02 -0.36606036785E+02 -0.43110369556E+02  0.63287103962E+02  0.00000000000E+00 0.  1.
</event>
<event>
 7    1  0.5064652E-006  0.3129700E+02  0.7818608E-02  0.1594919E+00
          2   -1    0    0  502    0  0.00000000000E+00  0.00000000000E+00  0.20090000076E+04  0.20090000076E+04  0.00000000000E+00 0. -1.
          1   -1    0    0  501    0 -0.00000000000E+00 -0.00000000000E+00 -0.12503125319E+02  0.12503125319E+02  0.00000000000E+00 0. -1.
         25    2    1    2    0    0  0.40702453969E+02 -0.36700717039E+02  0.12625271776E+04  0.12698832768E+04  0.12500012034E+03 0.  0.
          2    1    1    2  501    0 -0.29317061882E+02  0.96891795392E+01  0.19434916961E+02  0.36484055625E+02  0.00000000000E+00 0. -1.
          1    1    1    2  502    0 -0.11385392086E+02  0.27011537499E+02  0.71453478764E+03  0.71513580043E+03  0.00000000000E+00 0. -1.
         22    1    3    3    0    0  0.53928051354E+01 -0.79335891963E+02  0.83738390921E+03  0.84115104322E+03  0.00000000000E+00 0. -1.
         22    1    3    3    0    0  0.35309648833E+02  0.42635174924E+02  0.42514326843E+03  0.42873223361E+03  0.00000000000E+00 0. -1.
</event>
<event>
 7    1  0.5064652E-006  0.1458161E+03  0.7818608E-02  0.1339753E+00
          2   -1    0    0  502    0  0.00000000000E+00  0.00000000000E+00  0.36291239175E+03  0.36291239175E+03  0.00000000000E+00 0. -1.
          1   -1    0    0  501    0 -0.00000000000E+00 -0.00000000000E+00 -0.23626730320E+03  0.23626730320E+03  0.00000000000E+00 0. -1.
         25    2    1    2    0    0 -0.11525174529E+03  0.28243637653E+02  0.71516683724E+02  0.18660283643E+03  0.12500125860E+03 0.  0.
          2    1    1    2  501    0  0.14150897387E+03 -0.58383434995E+02 -0.14358605558E+03  0.20988180132E+03  0.00000000000E+00 0. -1.
          1    1    1    2  502    0 -0.26257228580E+02  0.30139797343E+02  0.19871446041E+03  0.20269505720E+03  0.00000000000E+00 0. -1.
         22    1    3    3    0    0 -0.10669370103E+03 -0.25091507943E+02  0.74461465263E+02  0.13250524299E+03  0.00000000000E+00 0. -1.
         22    1    3    3    0    0 -0.85580442576E+01  0.53335145596E+02 -0.29447815392E+01  0.54097593436E+02  0.00000000000E+00 0. -1.
</event>
<event>
 7    1  0.5064652E-006  0.9167671E+02  0.7818608E-02  0.1436601E+00
          2   -1    0    0  502    0  0.00000000000E+00  0.00000000000E+00  0.59367635280E+03  0.59367635280E+03  0.00000000000E+00 0. -1.
          1   -1    0    0  501    0 -0.00000000000E+00 -0.00000000000E+00 -0.83404419621E+03  0.83404419621E+03  0.00000000000E+00 0. -1.
         25    2    1    2    0    0  0.35615758719E+02 -0.76717101248E+02  0.30752344731E+03  0.34255892642E+03  0.12498780552E+03 0.  0.
          2    1    1    2  501    0 -0.62966318134E+02  0.66756765869E+02 -0.81314943631E+03  0.81831120534E+03  0.00000000000E+00 0. -1.
          1    1    1    2  502    0  0.27350559415E+02  0.99603353796E+01  0.26525814559E+03  0.26685041725E+03  0.00000000000E+00 0. -1.
         22    1    3    3    0    0  0.85496319449E+01 -0.87827396955E+02  0.29948837270E+03  0.31221792589E+03  0.00000000000E+00 0.  1.
         22    1    3    3    0    0  0.27066126774E+02  0.11110295707E+02  0.80350746134E+01  0.30341000532E+02  0.00000000000E+00 0.  1.
</event>
<event>
 7    1  0.5064652E-006  0.7831301E+02  0.7818608E-02  0.1342596E+00
          2   -1    0    0  502    0  0.00000000000E+00  0.00000000000E+00  0.99500768494E+02  0.99500768494E+02  0.00000000000E+00 0. -1.
          1   -1    0    0  501    0 -0.00000000000E+00 -0.00000000000E+00 -0.80531471795E+03  0.80531471795E+03  0.00000000000E+00 0. -1.
         25    2    1    2    0    0 -0.47887570566E+02  0.12442160879E+03 -0.33976929031E+03  0.38580087851E+03  0.12500076428E+03 0.  0.
          2    1    1    2  501    0 -0.73475163865E+01 -0.72248330197E+02 -0.41974015165E+03  0.42597605815E+03  0.00000000000E+00 0. -1.
          1    1    1    2  502    0  0.55235086953E+02 -0.52173278588E+02  0.53695492508E+02  0.93038549779E+02  0.00000000000E+00 0. -1.
         22    1    3    3    0    0 -0.18318901838E+02  0.13690702081E+03 -0.31886584102E+03  0.34749753823E+03  0.00000000000E+00 0. -1.
         22    1    3    3    0    0 -0.29568668729E+02 -0.12485412024E+02 -0.20903449297E+02  0.38303340276E+02  0.00000000000E+00 0. -1.
</event>
<event>
 7    1  0.5064652E-006  0.1393674E+03  0.7818608E-02  0.1279132E+00
          2   -1    0    0  502    0  0.00000000000E+00  0.00000000000E+00  0.93632056785E+03  0.93632056785E+03  0.00000000000E+00 0. -1.
          1   -1    0    0  501    0 -0.00000000000E+00 -0.00000000000E+00 -0.62648175838E+03  0.62648175838E+03  0.00000000000E+00 0. -1.
         25    2    1    2    0    0 -0.45009805569E+02 -0.52543964937E+02 -0.13375594863E+03  0.19571019447E+03  0.12500030231E+03 0.  0.
          2    1    1    2  501    0 -0.47082790198E+02 -0.55199779744E+02 -0.45329870409E+03  0.45906809947E+03  0.00000000000E+00 0. -1.
          1    1    1    2  502    0  0.92092595767E+02  0.10774374468E+03  0.89689346218E+03  0.90802403229E+03  0.00000000000E+00 0. -1.
         22    1    3    3    0    0 -0.15308058082E+02  0.16912484396E+02  0.16079796331E+02  0.27909292731E+02  0.00000000000E+00 0. -1.
         22    1    3    3    0    0 -0.29701747487E+02 -0.69456449333E+02 -0.14983574496E+03  0.16780090174E+03  0.00000000000E+00 0. -1.
</event>
<event>
 7    1  0.5064652E-006  0.1153297E+03  0.7818608E-02  0.1404947E+00
          2   -1    0    0  502    0  0.00000000000E+00  0.00000000000E+00  0.15737175356E+03  0.15737175356E+03  0.00000000000E+00 0. -1.
          1   -1    0    0  501    0 -0.00000000000E+00 -0.00000000000E+00 -0.27780860274E+03  0.27780860274E+03  0.00000000000E+00 0. -1.
         25    2    1    2    0    0 -0.52639614783E+02  0.77380991195E+02 -0.39561693264E+02  0.16108376053E+03  0.12499641391E+03 0.  0.
          2    1    1    2  501    0  0.69611406259E+02 -0.10152014596E+03 -0.15288211809E+03  0.19627794056E+03  0.00000000000E+00 0. -1.
          1    1    1    2  502    0 -0.16971791476E+02  0.24139154769E+02  0.72006962166E+02  0.77818655213E+02  0.00000000000E+00 0. -1.
         22    1    3    3    0    0 -0.71486079333E+01  0.76551697703E+02  0.26104308954E+02  0.81195442991E+02  0.00000000000E+00 0. -1.
         22    1    3    3    0    0 -0.45491006850E+02  0.82929349230E+00 -0.65666002217E+02  0.79888317539E+02  0.00000000000E+00 0. -1.
</event>
<event>
 7    1  0.5064652E-006  0.5586503E+02  0.7818608E-02  0.1530906E+00
          2   -1    0    0  502    0  0.00000000000E+00  0.00000000000E+00  0.20090481659E+03  0.20090481659E+03  0.00000000000E+00 0. -1.
          1   -1    0    0  501    0 -0.00000000000E+00 -0.00000000000E+00 -0.99225976923E+02  0.99225976923E+02  0.00000000000E+00 0. -1.
         25    2    1    2    0    0  0.37105988258E+01 -0.37058817382E+02 -0.18556714667E+02  0.13174456241E+03  0.12500061430E+03 0.  0.
          2    1    1    2  501    0 -0.15310664900E+02 -0.19261769870E+02 -0.95802881310E+01  0.26404813176E+02  0.00000000000E+00 0. -1.
          1    1    1    2  502    0  0.11600066074E+02  0.56320587252E+02  0.12981584247E+03  0.14198141793E+03  0.00000000000E+00 0. -1.
         22    1    3    3    0    0  0.63754038557E+02 -0.10811244510E+02 -0.13187261679E+02  0.65995183997E+02  0.00000000000E+00 0. -1.
         22    1    3    3    0    0 -0.60043439732E+02 -0.26247572872E+02 -0.53694529881E+01  0.65749378414E+02  0.00000000000E+00 0. -1.
</event>
<event>
 7    1  0.5064652E-006  0.2336250E+03  0.7818608E-02  0.1296370E+00
          2   -1    0    0  502    0  0.00000000000E+00  0.00000000000E+00  0.10955170849E+04  0.10955170849E+04  0.00000000000E+00 0. -1.
          1   -1    0    0  501    0 -0.00000000000E+00 -0.00000000000E+00 -0.75880912208E+03  0.75880912208E+03  0.00000000000E+00 0. -1.
         25    2    1    2    0    0  0.17417073433E+03  0.14438323559E+03 -0.18101022935E+02  0.25910360211E+03  0.12500026471E+03 0.  0.
          2    1    1    2  501    0  0.27500893448E+02 -0.24463318982E+02 -0.60552417148E+03  0.60664180153E+03  0.00000000000E+00 0. -1.
          1    1    1    2  502    0 -0.20167162778E+03 -0.11991991661E+03  0.96033315726E+03  0.98858080337E+03  0.00000000000E+00 0. -1.
         22    1    3    3    0    0  0.12524420537E+03  0.31087752865E+02 -0.37027907188E+02  0.13425209595E+03  0.00000000000E+00 0. -1.
         22    1    3    3    0    0  0.48926528963E+02  0.11329548273E+03  0.18926884253E+02  0.12485150616E+03  0.00000000000E+00 0. -1.
</event>
<event>
 7    1  0.5064652E-006  0.4462628E+02  0.7818608E-02  0.1544705E+00
          2   -1    0    0  502    0  0.00000000000E+00  0.00000000000E+00  0.20129592565E+04  0.20129592565E+04  0.00000000000E+00 0. -1.
          1   -1    0    0  501    0 -0.00000000000E+00 -0.00000000000E+00 -0.52251507354E+03  0.52251507354E+03  0.00000000000E+00 0. -1.
         25    2    1    2    0    0 -0.21934229058E+02 -0.10501389059E+02  0.44651512547E+02  0.13494544797E+03  0.12500050711E+03 0.  0.
          2    1    1    2  501    0 -0.66912736083E+00 -0.28140829936E+02 -0.47669233737E+03  0.47752270998E+03  0.00000000000E+00 0. -1.
          1    1    1    2  502    0  0.22603356418E+02  0.38642218995E+02  0.19224850078E+04  0.19230061721E+04  0.00000000000E+00 0. -1.
         22    1    3    3    0    0  0.51250490265E+02 -0.87866240742E+01  0.65217837087E+01  0.52405640705E+02  0.00000000000E+00 0. -1.
         22    1    3    3    0    0 -0.73184719322E+02 -0.17147649847E+01  0.38129728838E+02  0.82539807260E+02  0.00000000000E+00 0. -1.
</event>
<event>
 7    1  0.5064652E-006  0.1907650E+03  0.7818608E-02  0.1372152E+00
          2   -1    0    0  502    0  0.00000000000E+00  0.00000000000E+00  0.40031669208E+03  0.40031669208E+03  0.00000000000E+00 0. -1.
          1   -1    0    0  501    0 -0.00000000000E+00 -0.00000000000E+00 -0.67898577469E+03  0.67898577469E+03  0.00000000000E+00 0. -1.
         25    2    1    2    0    0 -0.12301389230E+03 -0.15114976765E+03 -0.19324099339E+03  0.30157127004E+03  0.12499791768E+03 0.  0.
          2    1    1    2  501    0 -0.13823329110E+02  0.18672166475E+02 -0.40502295120E+03  0.40568870483E+03  0.00000000000E+00 0. -1.
          1    1    1    2  502    0  0.13683722141E+03  0.13247760118E+03  0.31959486197E+03  0.37204249190E+03  0.00000000000E+00 0. -1.
         22    1    3    3    0    0 -0.48626868183E+02 -0.46184148782E+02  0.27589051938E+01  0.67120484696E+02  0.00000000000E+00 0. -1.
         22    1    3    3    0    0 -0.74387024119E+02 -0.10496561887E+03 -0.19599989858E+03  0.23445078534E+03  0.00000000000E+00 0. -1.
</event>
<event>
 7    1  0.5064652E-006  0.7443720E+02  0.7818608E-02  0.1378277E+00
          2   -1    0    0  502    0  0.00000000000E+00  0.00000000000E+00  0.16869949468E+04  0.16869949468E+04  0.00000000000E+00 0. -1.
          1   -1    0    0  501    0 -0.00000000000E+00 -0.00000000000E+00 -0.90752079042E+02  0.90752079042E+02  0.00000000000E+00 0. -1.
         25    2    1    2    0    0 -0.36198428952E+02 -0.48138265138E+02  0.44525694294E+03  0.46637451600E+03  0.12499530033E+03 0.  0.
          2    1    1    2  501    0 -0.13927465875E+02  0.74462530675E+02 -0.61494071687E+02  0.97571325874E+02  0.00000000000E+00 0. -1.
          1    1    1    2  502    0  0.50125894827E+02 -0.26324265536E+02  0.12124799965E+04  0.12138011840E+04  0.00000000000E+00 0. -1.
         22    1    3    3    0    0  0.30381844160E+02 -0.99100013321E+01  0.30336536122E+03  0.30504394268E+03  0.00000000000E+00 0.  1.
         22    1    3    3    0    0 -0.66580273111E+02 -0.38228263806E+02  0.14189158172E+03  0.16133057331E+03  0.00000000000E+00 0.  1.
</event>
<event>
 7    1  0.5064652E-006  0.8200665E+02  0.7818608E-02  0.1360311E+00
          2   -1    0    0  502    0  0.00000000000E+00  0.00000000000E+00  0.75543939959E+03  0.75543939959E+03  0.00000000000E+00 0. -1.
          1   -1    0    0  501    0 -0.00000000000E+00 -0.00000000000E+00 -0.68368930497E+02  0.68368930497E+02  0.00000000000E+00 0. -1.
         25    2    1    2    0    0  0.10257433767E+03  0.16865002626E+01  0.13235343420E+03  0.20896707924E+03  0.12500187850E+03 0.  0.
          2    1    1    2  501    0 -0.35261891784E+02 -0.48101856450E+02  0.58622222766E+01  0.59929585817E+02  0.00000000000E+00 0. -1.
          1    1    1    2  502    0 -0.67312445883E+02  0.46415356187E+02  0.54885481262E+03  0.55491166504E+03  0.00000000000E+00 0. -1.
         22    1    3    3    0    0  0.87460106586E+02  0.15574764219E+02  0.15320114211E+02  0.90147376135E+02  0.00000000000E+00 0.  1.
         22    1    3    3    0    0  0.15114231081E+02 -0.13888263956E+02  0.11703331999E+03  0.11881970310E+03  0.00000000000E+00 0.  1.
</event>
<event>
 7    1  0.5064652E-006  0.1864140E+03  0.7818608E-02  0.1309298E+00
          2   -1    0    0  502    0  0.00000000000E+00  0.00000000000E+00  0.16580748140E+04  0.16580748140E+04  0.00000000000E+00 0. -1.
          1   -1    0    0  501    0 -0.00000000000E+00 -0.00000000000E+00 -0.15239235625E+04  0.15239235625E+04  0.00000000000E+00 0. -1.
         25    2    1    2    0    0  0.21259091835E+02 -0.15561047995E+03  0.18304782572E+03  0.27165789296E+03  0.12499973540E+03 0.  0.
          2    1    1    2  501    0  0.29632152156E+02 -0.28289767350E+02 -0.14729704186E+04  0.14735400332E+04  0.00000000000E+00 0. -1.
          1    1    1    2  502    0 -0.50891243991E+02  0.18390024730E+03  0.14240738444E+04  0.14368004503E+04  0.00000000000E+00 0. -1.
         22    1    3    3    0    0 -0.25406025124E+02 -0.12030434183E+01 -0.27802850724E+01  0.25586000296E+02  0.00000000000E+00 0. -1.
         22    1    3    3    0    0  0.46665116959E+02 -0.15440743653E+03  0.18582811079E+03  0.24607189266E+03  0.00000000000E+00 0. -1.
</event>
<event>
 7    1  0.5064652E-006  0.6504654E+02  0.7818608E-02  0.1479746E+00
          2   -1    0    0  502    0  0.00000000000E+00  0.00000000000E+00  0.34738267276E+03  0.34738267276E+03  0.00000000000E+00 0. -1.
          1   -1    0    0  501    0 -0.00000000000E+00 -0.00000000000E+00 -0.18999278970E+04  0.18999278970E+04  0.00000000000E+00 0. -1.
         25    2    1    2    0    0 -0.28109823752E+02  0.72077926706E+02 -0.22472706481E+03  0.26853871843E+03  0.12500159970E+03 0.  0.
          2    1    1    2  501    0  0.29100898141E+02 -0.71267582598E+01 -0.16499165280E+04  0.16501885354E+04  0.00000000000E+00 0. -1.
          1    1    1    2  502    0 -0.99107438913E+00 -0.64951168446E+02  0.32209836855E+03  0.32858331597E+03  0.00000000000E+00 0. -1.
         22    1    3    3    0    0  0.36412264479E+02  0.13520349383E+02 -0.14609929805E+03  0.15117426284E+03  0.00000000000E+00 0. -1.
         22    1    3    3    0    0 -0.64522088231E+02  0.58557577323E+02 -0.78627766760E+02  0.11736445560E+03  0.00000000000E+00 0. -1.
</event>
<event>
 7    1  0.5064652E-006  0.5954364E+02  0.7818608E-02  0.1549263E+00
          2   -1    0    0  502    0  0.00000000000E+00  0.00000000000E+00  0.34439909666E+03  0.34439909666E+03  0.00000000000E+00 0. -1.
          1   -1    0    0  501    0 -0.00000000000E+00 -0.00000000000E+00 -0.40143382729E+02  0.40143382729E+02  0.00000000000E+00 0. -1.
         25    2    1    2    0    0  0.48779092031E+02  0.14707669718E+02  0.17754667892E+03  0.22303233192E+03  0.12499953007E+03 0.  0.
          2    1    1    2  501    0  0.35779962224E+01  0.20170724391E+02  0.50117251192E+00  0.20491738660E+02  0.00000000000E+00 0. -1.
          1    1    1    2  502    0 -0.52357088254E+02 -0.34878394110E+02  0.12620786251E+03  0.14101840881E+03  0.00000000000E+00 0. -1.
         22    1    3    3    0    0  0.22668942578E+02  0.18195375840E+02  0.19117598218E+03  0.19337323709E+03  0.00000000000E+00 0.  1.
         22    1    3    3    0    0  0.26110149453E+02 -0.34877061217E+01 -0.13629303266E+02  0.29659094827E+02  0.00000000000E+00 0.  1.
</event>
<event>
 7    1  0.5064652E-006  0.7321990E+02  0.7818608E-02  0.1380044E+00
          2   -1    0    0  502    0  0.00000000000E+00  0.00000000000E+00  0.81665384824E+03  0.81665384824E+03  0.00000000000E+00 0. -1.
          1   -1    0    0  501    0 -0.00000000000E+00 -0.00000000000E+00 -0.28281784837E+03  0.28281784837E+03  0.00000000000E+00 0. -1.
         25    2    1    2    0    0  0.10351382280E+02  0.32074938083E+02 -0.20291029299E+03  0.24069548728E+03  0.12500311127E+03 0.  0.
          2    1    1    2  501    0 -0.47011217166E+02  0.31760756550E+02 -0.45714526206E+02  0.72860264221E+02  0.00000000000E+00 0. -1.
          1    1    1    2  502    0  0.36659834886E+02 -0.63835694632E+02  0.78246081906E+03  0.78591594511E+03  0.00000000000E+00 0. -1.
         22    1    3    3    0    0  0.10854022672E+02 -0.31484029551E+02 -0.16135486583E+03  0.16475571812E+03  0.00000000000E+00 0.  1.
         22    1    3    3    0    0 -0.50264039219E+00  0.63558967633E+02 -0.41555427162E+02  0.75939769163E+02  0.00000000000E+00 0.  1.
</event>
<event>
 7    1  0.5064652E-006  0.1491472E+03  0.7818608E-02  0.1393762E+00
          2   -1    0    0  502    0  0.00000000000E+00  0.00000000000E+00  0.22222425496E+03  0.22222425496E+03  0.00000000000E+00 0. -1.
          1   -1    0    0  501    0 -0.00000000000E+00 -0.00000000000E+00 -0.50122790822E+03  0.50122790822E+03  0.00000000000E+00 0. -1.
         25    2    1    2    0    0  0.88667711455E+02 -0.98365617298E+02  0.72401679462E+02  0.19596020679E+03  0.12498256573E+03 0.  0.
          2    1    1    2  501    0 -0.11358386173E+03  0.99271548208E+02 -0.42437037941E+03  0.45038467208E+03  0.00000000000E+00 0. -1.
          1    1    1    2  502    0  0.24916150270E+02 -0.90593091054E+00  0.72965046681E+02  0.77107284301E+02  0.00000000000E+00 0. -1.
         22    1    3    3    0    0 -0.16597982330E+02  0.96139506848E+01  0.36059104072E+02  0.40843359946E+02  0.00000000000E+00 0. -1.
         22    1    3    3    0    0  0.10526569378E+03 -0.10797956798E+03  0.36342575389E+02  0.15511684685E+03  0.00000000000E+00 0. -1.
</event>
<event>
 7    1  0.5064652E-006  0.1846078E+03  0.7818608E-02  0.1331566E+00
          2   -1    0    0  502    0  0.00000000000E+00  0.00000000000E+00  0.22661092716E+04  0.22661092716E+04  0.00000000000E+00 0. -1.
          1   -1    0    0  501    0 -0.00000000000E+00 -0.00000000000E+00 -0.30396282888E+03  0.30396282888E+03  0.00000000000E+00 0. -1.
         25    2    1    2    0    0  0.21198506096E+03 -0.43483084086E+02  0.16487472557E+03  0.29939084870E+03  0.12499104159E+03 0.  0.
          2    1    1    2  501    0 -0.33714837220E+02  0.36330690913E+01 -0.23136500774E+03  0.23383681542E+03  0.00000000000E+00 0. -1.
          1    1    1    2  502    0 -0.17827022374E+03  0.39850014995E+02  0.20286367249E+04  0.20368444363E+04  0.00000000000E+00 0. -1.
         22    1    3    3    0    0  0.98772418426E+02  0.33307774910E+02  0.11126062873E+03  0.15246089996E+03  0.00000000000E+00 0. -1.
         22    1    3    3    0    0  0.11321264254E+03 -0.76790858995E+02  0.53614096839E+02  0.14692994873E+03  0.00000000000E+00 0. -1.
</event>
<event>
 7    1  0.5064652E-006  0.4419459E+02  0.7818608E-02  0.1559444E+00
          2   -1    0    0  502    0  0.00000000000E+00  0.00000000000E+00  0.52599371786E+03  0.52599371786E+03  0.00000000000E+00 0. -1.
          1   -1    0    0  501    0 -0.00000000000E+00 -0.00000000000E+00 -0.27667329391E+03  0.27667329391E+03  0.00000000000E+00 0. -1.
         25    2    1    2    0    0  0.57091366118E+02  0.27489076731E+01  0.51956588795E+02  0.14694055507E+03  0.12500023611E+03 0.  0.
          2    1    1    2  501    0 -0.16545876203E+02 -0.19877968845E+02 -0.22731056938E+03  0.22877717241E+03  0.00000000000E+00 0. -1.
          1    1    1    2  502    0 -0.40545489915E+02  0.17129061172E+02  0.42467440453E+03  0.42694928429E+03  0.00000000000E+00 0. -1.
         22    1    3    3    0    0  0.44641778649E+00  0.33923285162E+02 -0.28087846172E+02  0.44044473747E+02  0.00000000000E+00 0. -1.
         22    1    3    3    0    0  0.56644948332E+02 -0.31174377489E+02  0.80044434967E+02  0.10289608133E+03  0.00000000000E+00 0. -1.
</event>
<event>
 7    1  0.5064652E-006  0.1281122E+03  0.7818608E-02  0.1297494E+00
          2   -1    0    0  502    0  0.00000000000E+00  0.00000000000E+00  0.17130545473E+04  0.17130545473E+04  0.00000000000E+00 0. -1.
          1   -1    0    0  501    0 -0.00000000000E+00 -0.00000000000E+00 -0.68443675415E+02  0.68443675415E+02  0.00000000000E+00 0. -1.
         25    2    1    2    0    0 -0.18480081804E+02 -0.15690071504E+03  0.85287283021E+03  0.87634324473E+03  0.12500428104E+03 0.  0.
          2    1    1    2  501    0  0.51867550890E+02  0.41499261022E+02 -0.31274872683E+02  0.73420359315E+02  0.00000000000E+00 0. -1.
          1    1    1    2  502    0 -0.33387469086E+02  0.11540145402E+03  0.82301291432E+03  0.83173461862E+03  0.00000000000E+00 0. -1.
         22    1    3    3    0    0 -0.46055177367E+02 -0.15418521705E+03  0.80588829701E+03  0.82179687744E+03  0.00000000000E+00 0. -1.
         22    1    3    3    0    0  0.27575095563E+02 -0.27154979965E+01  0.46984533199E+02  0.54546367291E+02  0.00000000000E+00 0. -1.
</event>
<event>
 7    1  0.5064652E-006  0.1305216E+03  0.7818608E-02  0.1373392E+00
          2   -1    0    0  502    0  0.00000000000E+00  0.00000000000E+00  0.72898877544E+03  0.72898877544E+03  0.00000000000E+00 0. -1.
          1   -1    0    0  501    0 -0.00000000000E+00 -0.00000000000E+00 -0.19116875252E+03  0.19116875252E+03  0.00000000000E+00 0. -1.
         25    2    1    2    0    0 -0.10047376905E+03 -0.11034121636E+03 -0.54354410427E+02  0.20211430042E+03  0.12500250480E+03 0.  0.
          2    1    1    2  501    0  0.84282603280E+02  0.80888288990E+02 -0.78468448073E+01  0.11708136267E+03  0.00000000000E+00 0. -1.
          1    1    1    2  502    0  0.16191165771E+02  0.29452927368E+02  0.60002127816E+03  0.60096186487E+03  0.00000000000E+00 0. -1.
         22    1    3    3    0    0  0.16691687981E+02  0.63908724773E+01  0.14448732111E+02  0.22983071123E+02  0.00000000000E+00 0. -1.
         22    1    3    3    0    0 -0.11716545703E+03 -0.11673208884E+03 -0.68803142538E+02  0.17913122929E+03  0.00000000000E+00 0. -1.
</event>
<event>
 7    1  0.5064652E-006  0.1858909E+03  0.7818608E-02  0.1229141E+00
          2   -1    0    0  502    0  0.00000000000E+00  0.00000000000E+00  0.49239707801E+03  0.49239707801E+03  0.00000000000E+00 0. -1.
          1   -1    0    0  501    0 -0.00000000000E+00 -0.00000000000E+00 -0.29479990200E+04  0.29479990200E+04  0.00000000000E+00 0. -1.
         25    2    1    2    0    0 -0.71245863648E+02  0.13076576328E+03 -0.53267725927E+03  0.56704973565E+03  0.12499872888E+03 0.  0.
          2    1    1    2  501    0  0.11511770324E+02 -0.19720061684E+03 -0.23898251422E+04  0.23979751488E+04  0.00000000000E+00 0. -1.
          1    1    1    2  502    0  0.59734093325E+02  0.66434853562E+02  0.46690045944E+03  0.47537121358E+03  0.00000000000E+00 0. -1.
         22    1    3    3    0    0  0.97612984253E+01  0.52457521162E+02 -0.56453405320E+02  0.77679221453E+02  0.00000000000E+00 0.  1.
         22    1    3    3    0    0 -0.81007162074E+02  0.78308242119E+02 -0.47622385395E+03  0.48937051419E+03  0.00000000000E+00 0.  1.
</event>
<event>
 7    1  0.5064652E-006  0.2637691E+03  0.7818608E-02  0.1230198E+00
          2   -1    0    0  502    0  0.00000000000E+00  0.00000000000E+00  0.14988112103E+04  0.14988112103E+04  0.00000000000E+00 0. -1.
          1   -1    0    0  501    0 -0.00000000000E+00 -0.00000000000E+00 -0.36267991995E+04  0.36267991995E+04  0.00000000000E+00 0. -1.
         25    2    1    2    0    0 -0.22845995141E+03 -0.24273445956E+02  0.11206492753E+01  0.26155258453E+03  0.12500139616E+03 0.  0.
          2    1    1    2  501    0 -0.37975372988E+02  0.49361699958E+02 -0.34832092347E+04  0.34837659622E+04  0.00000000000E+00 0. -1.
          1    1    1    2  502    0  0.26643532440E+03 -0.25088254002E+02  0.13541005963E+04  0.13802918631E+04  0.00000000000E+00 0. -1.
         22    1    3    3    0    0 -0.22378070002E+03  0.12779586333E+02  0.28805613024E+01  0.22416381769E+03  0.00000000000E+00 0.  1.
         22    1    3    3    0    0 -0.46792513925E+01 -0.37053032289E+02 -0.17599120270E+01  0.37388766839E+02  0.00000000000E+00 0.  1.
</event>
<event>
 7    1  0.5064652E-006  0.9925546E+02  0.7818608E-02  0.1330198E+00
          2   -1    0    0  502    0  0.00000000000E+00  0.00000000000E+00  0.15356708285E+04  0.15356708285E+04  0.00000000000E+00 0. -1.
          1   -1    0    0  501    0 -0.00000000000E+00 -0.00000000000E+00 -0.29451359205E+04  0.29451359205E+04  0.00000000000E+00 0. -1.
         25    2    1    2    0    0  0.25778821775E+02 -0.28743998092E+02 -0.20055971735E+02  0.13237422049E+03  0.12501970712E+03 0.  0.
          2    1    1    2  501    0 -0.44667416607E+02  0.89718211027E+02 -0.28673564079E+04  0.28691074057E+04  0.00000000000E+00 0. -1.
          1    1    1    2  502    0  0.18888594832E+02 -0.60974212935E+02  0.14779472877E+04  0.14793251227E+04  0.00000000000E+00 0. -1.
         22    1    3    3    0    0  0.41025213120E+02 -0.50755409595E+02 -0.57066449165E+02  0.86693479196E+02  0.00000000000E+00 0. -1.
         22    1    3    3    0    0 -0.15246391345E+02  0.22011411503E+02  0.37010477430E+02  0.45680741292E+02  0.00000000000E+00 0. -1.
</event>
<event>
 7    1  0.5064652E-006  0.6533605E+02  0.7818608E-02  0.1404232E+00
          2   -1    0    0  502    0  0.00000000000E+00  0.00000000000E+00  0.21264394240E+04  0.21264394240E+04  0.00000000000E+00 0. -1.
          1   -1    0    0  501    0 -0.00000000000E+00 -0.00000000000E+00 -0.23238070359E+03  0.23238070359E+03  0.00000000000E+00 0. -1.
         25    2    1    2    0    0 -0.88271642811E+02  0.58568590432E+02  0.41743397104E+03  0.44843981255E+03  0.12499993036E+03 0.  0.
          2    1    1    2  501    0  0.52063629457E+02 -0.57568687931E+01 -0.21309971130E+03  0.21944304501E+03  0.00000000000E+00 0. -1.
          1    1    1    2  502    0  0.36208013354E+02 -0.52811721639E+02  0.16897244606E+04  0.16909372700E+04  0.00000000000E+00 0. -1.
         22    1    3    3    0    0  0.26754679572E+02 -0.91573355454E+01  0.10377434287E+03  0.10755828147E+03  0.00000000000E+00 0. -1.
         22    1    3    3    0    0 -0.11502632238E+03  0.67725925977E+02  0.31365962817E+03  0.34088153108E+03  0.00000000000E+00 0. -1.
</event>
<event>
 7    1  0.5064652E-006  0.6859284E+02  0.7818608E-02  0.1440892E+00
          2   -1    0    0  502    0  0.00000000000E+00  0.00000000000E+00  0.66229985157E+03  0.66229985157E+03  0.00000000000E+00 0. -1.
          1   -1    0    0  501    0 -0.00000000000E+00 -0.00000000000E+00 -0.42971034160E+03  0.42971034160E+03  0.00000000000E+00 0. -1.
         25    2    1    2    0    0  0.10542344837E+03  0.25220137277E+01 -0.31982555811E+03  0.35921268656E+03  0.12499961017E+03 0.  0.
          2    1    1    2  501    0 -0.37134764987E+02 -0.63486625810E+01 -0.84344176468E+02  0.92375518355E+02  0.00000000000E+00 0. -1.
          1    1    1    2  502    0 -0.68288683378E+02  0.38266488533E+01  0.63675924455E+03  0.64042198826E+03  0.00000000000E+00 0. -1.
         22    1    3    3    0    0  0.92524911555E+01  0.42147994234E+02 -0.17906454975E+03  0.18419059419E+03  0.00000000000E+00 0. -1.
         22    1    3    3    0    0  0.96170957210E+02 -0.39625980506E+02 -0.14076100836E+03  0.17502209237E+03  0.00000000000E+00 0. -1.
</event>
<event>
 7    1  0.5064652E-006  0.7136752E+02  0.7818608E-02  0.1408384E+00
          2   -1    0    0  502    0  0.00000000000E+00  0.00000000000E+00  0.27321940224E+03  0.27321940224E+03  0.00000000000E+00 0. -1.
          1   -1    0    0  501    0 -0.00000000000E+00 -0.00000000000E+00 -0.14520443004E+03  0.14520443004E+03  0.00000000000E+00 0. -1.
         25    2    1    2    0    0 -0.47156359385E+02 -0.37504365950E+01  0.70862092498E+02  0.15127861397E+03  0.12500397948E+03 0.  0.
          2    1    1    2  501    0  0.64411087317E+02 -0.39340855079E+02 -0.87308823878E+02  0.11540936606E+03  0.00000000000E+00 0. -1.
          1    1    1    2  502    0 -0.17254727932E+02  0.43091291674E+02  0.14446170359E+03  0.15173585225E+03  0.00000000000E+00 0. -1.
         22    1    3    3    0    0  0.19768976448E+02  0.40486476975E+02  0.12650707957E+01  0.45072914835E+02  0.00000000000E+00 0. -1.
         22    1    3    3    0    0 -0.66925335833E+02 -0.44236913570E+02  0.69597021702E+02  0.10620569913E+03  0.00000000000E+00 0. -1.
</event>
<event>
 7    1  0.5064652E-006  0.1768530E+03  0.7818608E-02  0.1363220E+00
          2   -1    0    0  502    0  0.00000000000E+00  0.00000000000E+00  0.65916146984E+03  0.65916146984E+03  0.00000000000E+00 0. -1.
          1   -1    0    0  501    0 -0.00000000000E+00 -0.00000000000E+00 -0.13568540251E+04  0.13568540251E+04  0.00000000000E+00 0. -1.
         25    2    1    2    0    0  0.18209249770E+03  0.44357626309E+02  0.13019176668E+03  0.26019550595E+03  0.12500611374E+03 0.  0.
          2    1    1    2  501    0 -0.86000063361E+01 -0.25582987429E+02 -0.12752957841E+04  0.12755813523E+04  0.00000000000E+00 0. -1.
          1    1    1    2  502    0 -0.17349249136E+03 -0.18774638879E+02  0.44741146220E+03  0.48023863665E+03  0.00000000000E+00 0. -1.
         22    1    3    3    0    0  0.59857289245E+02  0.74765540591E+02  0.33725219964E+02  0.10153901515E+03  0.00000000000E+00 0.  1.
         22    1    3    3    0    0  0.12223520845E+03 -0.30407914283E+02  0.96466546720E+02  0.15865649080E+03  0.00000000000E+00 0.  1.
</event>
<event>
 7    1  0.5064652E-006  0.4340498E+03  0.7818608E-02  0.1164446E+00
          2   -1    0    0  502    0  0.00000000000E+00  0.00000000000E+00  0.18294439721E+04  0.18294439721E+04  0.00000000000E+00 0. -1.
          1   -1    0    0  501    0 -0.00000000000E+00 -0.00000000000E+00 -0.44292743865E+04  0.44292743865E+04  0.00000000000E+00 0. -1.
         25    2    1    2    0    0  0.33661632554E+03  0.37567565502E+03 -0.57156622321E+03  0.77250063047E+03  0.12500611250E+03 0.  0.
          2    1    1    2  501    0 -0.31479764572E+02 -0.70914868235E+02 -0.37299385355E+04  0.37307454178E+04  0.00000000000E+00 0. -1.
          1    1    1    2  502    0 -0.30513656097E+03 -0.30476078679E+03  0.17016743443E+04  0.17554723102E+04  0.00000000000E+00 0. -1.
         22    1    3    3    0    0 -0.77762553460E+01  0.26141418761E+02 -0.45967492184E+02  0.53449548732E+02  0.00000000000E+00 0.  1.
         22    1    3    3    0    0  0.34439258088E+03  0.34953423626E+03 -0.52559873103E+03  0.71905108174E+03  0.00000000000E+00 0.  1.
</event>
<event>
 7    1  0.5064652E-006  0.2277053E+03  0.7818608E-02  0.1186740E+00
          2   -1    0    0  502    0  0.00000000000E+00  0.00000000000E+00  0.46419427733E+03  0.46419427733E+03  0.00000000000E+00 0. -1.
          1   -1    0    0  501    0 -0.00000000000E+00 -0.00000000000E+00 -0.77630732357E+03  0.77630732357E+03  0.00000000000E+00 0. -1.
         25    2    1    2    0    0 -0.16553620032E+02  0.30851665425E+03 -0.13973158916E+02  0.33358653041E+03  0.12501270262E+03 0.  0.
          2    1    1    2  501    0 -0.47838802704E+02 -0.21336474835E+03 -0.57068559570E+03  0.61114246786E+03  0.00000000000E+00 0. -1.
          1    1    1    2  502    0  0.64392422736E+02 -0.95151905906E+02  0.27254570839E+03  0.29577260262E+03  0.00000000000E+00 0. -1.
         22    1    3    3    0    0  0.22616887876E+02  0.43576552904E+02 -0.41592954868E+02  0.64346044749E+02  0.00000000000E+00 0. -1.
         22    1    3    3    0    0 -0.39170507908E+02  0.26494010135E+03  0.27619795952E+02  0.26924048567E+03  0.00000000000E+00 0. -1.
</event>
<event>
 7    1  0.5064652E-006  0.2062414E+03  0.7818608E-02  0.1323734E+00
          2   -1    0    0  502    0  0.00000000000E+00  0.00000000000E+00  0.60740438389E+03  0.60740438389E+03  0.00000000000E+00 0. -1.
          1   -1    0    0  501    0 -0.00000000000E+00 -0.00000000000E+00 -0.18774144158E+04  0.18774144158E+04  0.00000000000E+00 0. -1.
         25    2    1    2    0    0  0.10453480744E+03  0.19879508311E+03 -0.41395871846E+02  0.26035697770E+03  0.12500050639E+03 0.  0.
          2    1    1    2  501    0 -0.11695671416E+03 -0.16873454919E+03 -0.17198950343E+04  0.17321054096E+04  0.00000000000E+00 0. -1.
          1    1    1    2  502    0  0.12421906720E+02 -0.30060533917E+02  0.49128087419E+03  0.49235641238E+03  0.00000000000E+00 0. -1.
         22    1    3    3    0    0  0.66578762962E+02  0.14963219352E+03 -0.84951086852E+02  0.18449718743E+03  0.00000000000E+00 0. -1.
         22    1    3    3    0    0  0.37956044478E+02  0.49162889594E+02  0.43555215006E+02  0.75859790270E+02  0.00000000000E+00 0. -1.
</event>
<event>
 7    1  0.5064652E-006  0.1475326E+03  0.7818608E-02  0.1328591E+00
          2   -1    0    0  502    0  0.00000000000E+00  0.00000000000E+00  0.56970412513E+03  0.56970412513E+03  0.00000000000E+00 0. -1.
          1   -1    0    0  501    0 -0.00000000000E+00 -0.00000000000E+00 -0.47082844726E+03  0.47082844726E+03  0.00000000000E+00 0. -1.
         25    2    1    2    0    0 -0.11645982282E+03  0.12476229235E+03 -0.54142711312E+02  0.21836897164E+03  0.12500021866E+03 0.  0.
          2    1    1    2  501    0 -0.46976957199E+01 -0.43302678354E+02 -0.32214538215E+03  0.32507666409E+03  0.00000000000E+00 0. -1.
          1    1    1    2  502    0  0.12115751854E+03 -0.81459613997E+02  0.47516377133E+03  0.49708693666E+03  0.00000000000E+00 0. -1.
         22    1    3    3    0    0  0.23682288993E+02  0.10416500251E+01  0.14547151657E+00  0.23705632425E+02  0.00000000000E+00 0. -1.
         22    1    3    3    0    0 -0.14014211181E+03  0.12372064233E+03 -0.54288182829E+02  0.19466333922E+03  0.00000000000E+00 0. -1.
</event>
<event>
 7    1  0.5064652E-006  0.7203844E+02  0.7818608E-02  0.1361638E+00
          2   -1    0    0  502    0  0.00000000000E+00  0.00000000000E+00  0.12129315096E+04  0.12129315096E+04  0.00000000000E+00 0. -1.
          1   -1    0    0  501    0 -0.00000000000E+00 -0.00000000000E+00 -0.25557707906E+03  0.25557707906E+03  0.00000000000E+00 0. -1.
         25    2    1    2    0    0 -0.27490746558E+01 -0.60320686070E+02  0.36507121619E+03  0.39057800016E+03  0.12501215437E+03 0.  0.
          2    1    1    2  501    0 -0.61041625272E+02  0.39370315961E+02 -0.23600263221E+03  0.24692781173E+03  0.00000000000E+00 0. -1.
          1    1    1    2  502    0  0.63790699927E+02  0.20950370109E+02  0.82828584654E+03  0.83100277676E+03  0.00000000000E+00 0. -1.
         22    1    3    3    0    0  0.46644737945E+02 -0.69208656824E+02  0.27597780944E+03  0.28832155843E+03  0.00000000000E+00 0.  1.
         22    1    3    3    0    0 -0.49393812600E+02  0.88879707533E+01  0.89093406758E+02  0.10225644173E+03  0.00000000000E+00 0.  1.
</event>
<event>
 7    1  0.5064652E-006  0.9059130E+02  0.7818608E-02  0.1338886E+00
          2   -1    0    0  502    0  0.00000000000E+00  0.00000000000E+00  0.61378927643E+02  0.61378927643E+02  0.00000000000E+00 0. -1.
          1   -1    0    0  501    0 -0.00000000000E+00 -0.00000000000E+00 -0.27949204213E+04  0.27949204213E+04  0.00000000000E+00 0. -1.
         25    2    1    2    0    0  0.18606204503E+02 -0.43652982329E+02 -0.22459953887E+03  0.26138307752E+03  0.12499754655E+03 0.  0.
          2    1    1    2  501    0  0.27857582005E+02  0.88858410337E+02 -0.25261335530E+04  0.25278494001E+04  0.00000000000E+00 0. -1.
          1    1    1    2  502    0 -0.46463786507E+02 -0.45205428008E+02  0.17191598225E+02  0.67066871311E+02  0.00000000000E+00 0. -1.
         22    1    3    3    0    0  0.31466849820E+01 -0.25342006182E+02 -0.23418471709E+03  0.23557291997E+03  0.00000000000E+00 0.  1.
         22    1    3    3    0    0  0.15459519521E+02 -0.18310976147E+02  0.95851782251E+01  0.25810157553E+02  0.00000000000E+00 0.  1.
</event>
<event>
 7    1  0.5064652E-006  0.3422938E+02  0.7818608E-02  0.1601825E+00
          2   -1    0    0  502    0  0.00000000000E+00  0.00000000000E+00  0.12635452087E+04  0.12635452087E+04  0.00000000000E+00 0. -1.
          1   -1    0    0  501    0 -0.00000000000E+00 -0.00000000000E+00 -0.20390998385E+03  0.20390998385E+03  0.00000000000E+00 0. -1.
         25    2    1    2    0    0 -0.23025354179E+01 -0.85577420247E+01  0.15549974342E+03  0.19970914249E+03  0.12500013908E+03 0.  0.
          2    1    1    2  501    0  0.13329844469E+02  0.31781346102E+02 -0.18001827044E+03  0.18328752387E+03  0.00000000000E+00 0. -1.
          1    1    1    2  502    0 -0.11027309052E+02 -0.23223604077E+02  0.10841537519E+04  0.10844585262E+04  0.00000000000E+00 0. -1.
         22    1    3    3    0    0 -0.69206116413E+01 -0.49048531802E+02  0.15075047489E+03  0.15868005236E+03  0.00000000000E+00 0.  1.
         22    1    3    3    0    0  0.46180762235E+01  0.40490789777E+02  0.47492685287E+01  0.41029090123E+02  0.00000000000E+00 0.  1.
</event>
<event>
 7    1  0.5064652E-006  0.7931221E+02  0.7818608E-02  0.1447883E+00
          2   -1    0    0  502    0  0.00000000000E+00  0.00000000000E+00  0.23225460479E+03  0.23225460479E+03  0.00000000000E+00 0. -1.
          1   -1    0    0  501    0 -0.00000000000E+00 -0.00000000000E+00 -0.77745649997E+03  0.77745649997E+03  0.00000000000E+00 0. -1.
         25    2    1    2    0    0  0.97351680421E+02 -0.55035038063E+01 -0.86031312109E+02  0.18037163447E+03  0.12499960649E+03 0.  0.
          2    1    1    2  501    0 -0.23329549801E+02 -0.20312876810E+02 -0.63556065707E+03  0.63631299662E+03  0.00000000000E+00 0. -1.
          1    1    1    2  502    0 -0.74022130621E+02  0.25816380616E+02  0.17639007400E+03  0.19302647367E+03  0.00000000000E+00 0. -1.
         22    1    3    3    0    0  0.12057340529E+03  0.92530892692E-01 -0.96360012335E+02  0.15434768091E+03  0.00000000000E+00 0. -1.
         22    1    3    3    0    0 -0.23221724872E+02 -0.55960346990E+01  0.10328700226E+02  0.26023953557E+02  0.00000000000E+00 0. -1.
</event>
<event>
 7    1  0.5064652E-006  0.8935150E+02  0.7818608E-02  0.1396660E+00
          2   -1    0    0  502    0  0.00000000000E+00  0.00000000000E+00  0.34526657118E+04  0.34526657118E+04  0.00000000000E+00 0. -1.
          1   -1    0    0  501    0 -0.00000000000E+00 -0.00000000000E+00 -0.12716410043E+03  0.12716410043E+03  0.00000000000E+00 0. -1.
         25    2    1    2    0    0  0.72180650477E+02  0.53345015033E+01  0.11086951316E+04  0.11180643804E+04  0.12499824287E+03 0.  0.
          2    1    1    2  501    0 -0.83083758574E+02  0.33844132155E+02 -0.10584963996E+03  0.13875331527E+03  0.00000000000E+00 0. -1.
          1    1    1    2  502    0  0.10903108096E+02 -0.39178633658E+02  0.23226561197E+04  0.23230121165E+04  0.00000000000E+00 0. -1.
         22    1    3    3    0    0  0.71874960459E+02  0.31136157689E+02  0.10605655776E+04  0.10634541902E+04  0.00000000000E+00 0. -1.
         22    1    3    3    0    0  0.30569001891E+00 -0.25801656185E+02  0.48129554023E+02  0.54610190246E+02  0.00000000000E+00 0. -1.
</event>
<event>
 7    1  0.5064652E-006  0.9083523E+02  0.7818608E-02  0.1399843E+00
          2   -1    0    0  502    0  0.00000000000E+00  0.00000000000E+00  0.68312283688E+03  0.68312283688E+03  0.00000000000E+00 0. -1.
          1   -1    0    0  501    0 -0.00000000000E+00 -0.00000000000E+00 -0.14410545894E+04  0.14410545894E+04  0.00000000000E+00 0. -1.
         25    2    1    2    0    0 -0.30192199422E+02 -0.10425030032E+03  0.36810168379E+03  0.40361293378E+03  0.12499942674E+03 0.  0.
          2    1    1    2  501    0  0.34450801355E+02  0.18290035416E+02 -0.14167953965E+04  0.14173322047E+04  0.00000000000E+00 0. -1.
          1    1    1    2  502    0 -0.42586019335E+01  0.85960264900E+02  0.29076196019E+03  0.30323228774E+03  0.00000000000E+00 0. -1.
         22    1    3    3    0    0 -0.14580200826E+02  0.12867008708E+02  0.18290544595E+03  0.18393625071E+03  0.00000000000E+00 0.  1.
         22    1    3    3    0    0 -0.15611998595E+02 -0.11711730902E+03  0.18519623785E+03  0.21967668307E+03  0.00000000000E+00 0.  1.
</event>
<event>
 7    1  0.5064652E-006  0.7496928E+02  0.7818608E-02  0.1417786E+00
          2   -1    0    0  502    0  0.00000000000E+00  0.00000000000E+00  0.27174136958E+04  0.27174136958E+04  0.00000000000E+00 0. -1.
          1   -1    0    0  501    0 -0.00000000000E+00 -0.00000000000E+00 -0.41600913820E+02  0.41600913820E+02  0.00000000000E+00 0. -1.
         25    2    1    2    0    0  0.60797066459E+02  0.74972639459E+02  0.10578064998E+04  0.10695307531E+04  0.12499704396E+03 0.  0.
          2    1    1    2  501    0 -0.40785097868E+02 -0.48712770217E+01 -0.22854007860E+02  0.47004885099E+02  0.00000000000E+00 0. -1.
          1    1    1    2  502    0 -0.20011968591E+02 -0.70101362437E+02  0.16408602900E+04  0.16424789714E+04  0.00000000000E+00 0. -1.
         22    1    3    3    0    0 -0.25894685245E+02  0.57082721474E+02  0.29371084979E+03  0.30032488258E+03  0.00000000000E+00 0.  1.
         22    1    3    3    0    0  0.86691751703E+02  0.17889917984E+02  0.76409564998E+03  0.76920587056E+03  0.00000000000E+00 0.  1.
</event>
<event>
 7    1  0.5064652E-006  0.9045255E+02  0.7818608E-02  0.1316615E+00
          2   -1    0    0  502    0  0.00000000000E+00  0.00000000000E+00  0.10903169790E+04  0.10903169790E+04  0.00000000000E+00 0. -1.
          1   -1    0    0  501    0 -0.00000000000E+00 -0.00000000000E+00 -0.57292265229E+03  0.57292265229E+03  0.00000000000E+00 0. -1.
         25    2    1    2    0    0 -0.33606679771E+02  0.15709572746E+03  0.62889015975E+03  0.66101218075E+03  0.12500317418E+03 0.  0.
          2    1    1    2  501    0 -0.77648733819E+01 -0.89757767009E+02 -0.54965916964E+03  0.55699367390E+03  0.00000000000E+00 0. -1.
          1    1    1    2  502    0  0.41371553152E+02 -0.67337960452E+02  0.43816333655E+03  0.44523377660E+03  0.00000000000E+00 0. -1.
         22    1    3    3    0    0  0.93259152531E+01 -0.15779344696E+02  0.12979819545E+03  0.13108597163E+03  0.00000000000E+00 0.  1.
         22    1    3    3    0    0 -0.42932595024E+02  0.17287507216E+03  0.49909196429E+03  0.52992620912E+03  0.00000000000E+00 0.  1.
</event>
<event>
 7    1  0.5064652E-006  0.1342487E+03  0.7818608E-02  0.1277970E+00
          2   -1    0    0  502    0  0.00000000000E+00  0.00000000000E+00  0.10926708255E+04  0.10926708255E+04  0.00000000000E+00 0. -1.
          1   -1    0    0  501    0 -0.00000000000E+00 -0.00000000000E+00 -0.16940705354E+04  0.16940705354E+04  0.00000000000E+00 0. -1.
         25    2    1    2    0    0  0.90928412751E+02  0.14579855147E+03  0.27155445318E+02  0.21421443355E+03  0.12500084590E+03 0.  0.
          2    1    1    2  501    0  0.20749039315E+02 -0.73277044900E+02 -0.15950676663E+04  0.15968847510E+04  0.00000000000E+00 0. -1.
          1    1    1    2  502    0 -0.11167745207E+03 -0.72521506567E+02  0.96651251111E+03  0.97564217639E+03  0.00000000000E+00 0. -1.
         22    1    3    3    0    0  0.19579219838E+01  0.71446636317E+02  0.60419282642E+02  0.93589235570E+02  0.00000000000E+00 0.  1.
         22    1    3    3    0    0  0.88970490767E+02  0.74351915149E+02 -0.33263837324E+02  0.12062519798E+03  0.00000000000E+00 0.  1.
</event>
<event>
 7    1  0.5064652E-006  0.9427429E+02  0.7818608E-02  0.1350737E+00
          2   -1    0    0  502    0  0.00000000000E+00  0.00000000000E+00  0.22898307248E+03  0.22898307248E+03  0.00000000000E+00 0. -1.
          1   -1    0    0  501    0 -0.00000000000E+00 -0.00000000000E+00 -0.58596495872E+03  0.58596495872E+03  0.00000000000E+00 0. -1.
         25    2    1    2    0    0 -0.85143151394E+01 -0.49554977539E+02 -0.13643512635E+03  0.19175036149E+03  0.12500187226E+03 0.  0.
          2    1    1    2  501    0  0.33872962711E+02 -0.44917947517E+02 -0.40794521842E+03  0.41180614474E+03  0.00000000000E+00 0. -1.
          1    1    1    2  502    0 -0.25358647572E+02  0.94472925057E+02  0.18739845853E+03  0.21139152498E+03  0.00000000000E+00 0. -1.
         22    1    3    3    0    0  0.12590329141E+02  0.34052934120E+02 -0.82255803371E+02  0.89911822907E+02  0.00000000000E+00 0.  1.
         22    1    3    3    0    0 -0.21104644281E+02 -0.83607911660E+02 -0.54179322978E+02  0.10183853858E+03  0.00000000000E+00 0.  1.
</event>
<event>
 7    1  0.5064652E-006  0.6804506E+02  0.7818608E-02  0.1367986E+00
          2   -1    0    0  502    0  0.00000000000E+00  0.00000000000E+00  0.30995196862E+04  0.30995196862E+04  0.00000000000E+00 0. -1.
          1   -1    0    0  501    0 -0.00000000000E+00 -0.00000000000E+00 -0.46725458417E+03  0.46725458417E+03  0.00000000000E+00 0. -1.
         25    2    1    2    0    0  0.57252756339E+02 -0.12238917118E+03  0.49257699758E+03  0.52584585498E+03  0.12499910927E+03 0.  0.
          2    1    1    2  501    0 -0.28020564584E+02  0.61639735385E+02 -0.44763508753E+03  0.45272704867E+03  0.00000000000E+00 0. -1.
          1    1    1    2  502    0 -0.29232191754E+02  0.60749435797E+02  0.25873231919E+04  0.25882013667E+04  0.00000000000E+00 0. -1.
         22    1    3    3    0    0 -0.23328286143E+02 -0.42481198691E+02  0.28665941180E+03  0.29072750051E+03  0.00000000000E+00 0. -1.
         22    1    3    3    0    0  0.80581042482E+02 -0.79907972490E+02  0.20591758578E+03  0.23511835447E+03  0.00000000000E+00 0. -1.
</event>
<event>
 7    1  0.5064652E-006  0.1945122E+03  0.7818608E-02  0.1295340E+00
          2   -1    0    0  502    0  0.00000000000E+00  0.00000000000E+00  0.83147254481E+03  0.83147254481E+03  0.00000000000E+00 0. -1.
          1   -1    0    0  501    0 -0.00000000000E+00 -0.00000000000E+00 -0.42420389447E+03  0.42420389447E+03  0.00000000000E+00 0. -1.
         25    2    1    2    0    0  0.32907945147E+02 -0.16313618932E+03  0.67418054906E+02  0.21878434166E+03  0.12500017964E+03 0.  0.
          2    1    1    2  501    0 -0.83009367841E+01  0.20037291367E+03 -0.31885368761E+03  0.37667742723E+03  0.00000000000E+00 0. -1.
          1    1    1    2  502    0 -0.24607008363E+02 -0.37236724352E+02  0.65870428304E+03  0.66021467039E+03  0.00000000000E+00 0. -1.
         22    1    3    3    0    0 -0.14618139671E+02 -0.15006686255E+03  0.23170694082E+02  0.15254715437E+03  0.00000000000E+00 0.  1.
         22    1    3    3    0    0  0.47526084818E+02 -0.13069326771E+02  0.44247360824E+02  0.66237187291E+02  0.00000000000E+00 0.  1.
</event>
<event>
 7    1  0.5064652E-006  0.1462086E+03  0.7818608E-02  0.1214387E+00
          2   -1    0    0  502    0  0.00000000000E+00  0.00000000000E+00  0.16756811000E+04  0.16756811000E+04  0.00000000000E+00 0. -1.
          1   -1    0    0  501    0 -0.00000000000E+00 -0.00000000000E+00 -0.51670785977E+02  0.51670785977E+02  0.00000000000E+00 0. -1.
         25    2    1    2    0    0 -0.38975027165E+02 -0.11270554668E+02  0.15578183236E+03  0.20381193182E+03  0.12500098444E+03 0.  0.
          2    1    1    2  501    0 -0.13239699050E+03  0.65500640680E+01  0.17781536691E+03  0.22178857307E+03  0.00000000000E+00 0. -1.
          1    1    1    2  502    0  0.17137201767E+03  0.47204905996E+01  0.12904131147E+04  0.13017513811E+04  0.00000000000E+00 0. -1.
         22    1    3    3    0    0  0.68974429722E+01  0.52016856601E+02  0.73657943916E+02  0.90436833160E+02  0.00000000000E+00 0.  1.
         22    1    3    3    0    0 -0.45872470137E+02 -0.63287411268E+02  0.82123888449E+02  0.11337509866E+03  0.00000000000E+00 0.  1.
</event>
<event>
 7    1  0.5064652E-006  0.9931041E+02  0.7818608E-02  0.1460140E+00
          2   -1    0    0  502    0  0.00000000000E+00  0.00000000000E+00  0.12264348300E+04  0.12264348300E+04  0.00000000000E+00 0. -1.
          1   -1    0    0  501    0 -0.00000000000E+00 -0.00000000000E+00 -0.24511360434E+03  0.24511360434E+03  0.00000000000E+00 0. -1.
         25    2    1    2    0    0  0.10745987759E+03  0.35960075257E+02  0.35979010926E+03  0.39738613958E+03  0.12500427553E+03 0.  0.
          2    1    1    2  501    0 -0.97717121865E+02 -0.15586912995E+02 -0.21533968433E+03  0.23698685071E+03  0.00000000000E+00 0. -1.
          1    1    1    2  502    0 -0.97427557240E+01 -0.20373162262E+02  0.83687080076E+03  0.83717544409E+03  0.00000000000E+00 0. -1.
         22    1    3    3    0    0  0.23080646568E+02 -0.41391599335E+02  0.59823638335E+02  0.76320694738E+02  0.00000000000E+00 0. -1.
         22    1    3    3    0    0  0.84379231021E+02  0.77351674593E+02  0.29996647093E+03  0.32106544484E+03  0.00000000000E+00 0. -1.
</event>
<event>
 7    1  0.5064652E-006  0.6753936E+02  0.7818608E-02  0.1415138E+00
          2   -1    0    0  502    0  0.00000000000E+00  0.00000000000E+00  0.10326333531E+03  0.10326333531E+03  0.00000000000E+00 0. -1.
          1   -1    0    0  501    0 -0.00000000000E+00 -0.00000000000E+00 -0.76696862586E+03  0.76696862586E+03  0.00000000000E+00 0. -1.
         25    2    1    2    0    0  0.67832454419E+02  0.37797781992E+02 -0.30900095323E+03  0.34225226016E+03  0.12500042516E+03 0.  0.
          2    1    1    2  501    0 -0.67215769766E+00 -0.46531849573E+02 -0.42664505658E+03  0.42917556911E+03  0.00000000000E+00 0. -1.
          1    1    1    2  502    0 -0.67160296721E+02  0.87340675809E+01  0.71940719260E+02  0.98804131896E+02  0.00000000000E+00 0. -1.
         22    1    3    3    0    0  0.89237726898E+02 -0.76620974973E+01 -0.24516295532E+03  0.26101140645E+03  0.00000000000E+00 0.  1.
         22    1    3    3    0    0 -0.21405272479E+02  0.45459879489E+02 -0.63837997916E+02  0.81240853707E+02  0.00000000000E+00 0.  1.
</event>
<event>
 7    1  0.5064652E-006  0.9400634E+02  0.7818608E-02  0.1330087E+00
          2   -1    0    0  502    0  0.00000000000E+00  0.00000000000E+00  0.12085644312E+04  0.12085644312E+04  0.00000000000E+00 0. -1.
          1   -1    0    0  501    0 -0.00000000000E+00 -0.00000000000E+00 -0.12709367252E+04  0.12709367252E+04  0.00000000000E+00 0. -1.
         25    2    1    2    0    0  0.39780237733E+02  0.62235781501E+02  0.86925153808E+02  0.16922527771E+03  0.12500180974E+03 0.  0.
          2    1    1    2  501    0 -0.92445207935E+02 -0.20073459687E+02 -0.12269110382E+04  0.12305526222E+04  0.00000000000E+00 0. -1.
          1    1    1    2  502    0  0.52664970201E+02 -0.42162321814E+02  0.10776135904E+04  0.10797232565E+04  0.00000000000E+00 0. -1.
         22    1    3    3    0    0  0.78612719642E+02  0.18083599991E+02  0.26485807857E+02  0.84902734326E+02  0.00000000000E+00 0. -1.
         22    1    3    3    0    0 -0.38832481909E+02  0.44152181510E+02  0.60439345952E+02  0.84322543382E+02  0.00000000000E+00 0. -1.
</event>
<event>
 7    1  0.5064652E-006  0.4155569E+02  0.7818608E-02  0.1590483E+00
          2   -1    0    0  502    0  0.00000000000E+00  0.00000000000E+00  0.14681754775E+04  0.14681754775E+04  0.00000000000E+00 0. -1.
          1   -1    0    0  501    0 -0.00000000000E+00 -0.00000000000E+00 -0.95114813889E+02  0.95114813889E+02  0.00000000000E+00 0. -1.
         25    2    1    2    0    0  0.20745793301E+02 -0.45333497991E+02  0.49780112856E+03  0.51567164301E+03  0.12500306328E+03 0.  0.
          2    1    1    2  501    0  0.11591939957E+02  0.19493124028E+02 -0.84233447508E+02  0.87233185402E+02  0.00000000000E+00 0. -1.
          1    1    1    2  502    0 -0.32337733258E+02  0.25840373963E+02  0.95949298256E+03  0.96038546298E+03  0.00000000000E+00 0. -1.
         22    1    3    3    0    0 -0.49563126912E+02 -0.15993558951E+02  0.28319209673E+03  0.28794107232E+03  0.00000000000E+00 0.  1.
         22    1    3    3    0    0  0.70308920213E+02 -0.29339939040E+02  0.21460903183E+03  0.22773057069E+03  0.00000000000E+00 0.  1.
</event>
<event>
 7    1  0.5064652E-006  0.7020186E+02  0.7818608E-02  0.1436713E+00
          2   -1    0    0  502    0  0.00000000000E+00  0.00000000000E+00  0.63418862618E+03  0.63418862618E+03  0.00000000000E+00 0. -1.
          1   -1    0    0  501    0 -0.00000000000E+00 -0.00000000000E+00 -0.92350112036E+02  0.92350112036E+02  0.00000000000E+00 0. -1.
         25    2    1    2    0    0 -0.39855761490E+02  0.19021896136E+02 -0.37132221056E+01  0.13262865133E+03  0.12500502741E+03 0.  0.
          2    1    1    2  501    0 -0.30409640741E+01  0.37857877754E+02 -0.54084747185E+01  0.38362976544E+02  0.00000000000E+00 0. -1.
          1    1    1    2  502    0  0.42896725565E+02 -0.56879773890E+02  0.55096021097E+03  0.55554711035E+03  0.00000000000E+00 0. -1.
         22    1    3    3    0    0  0.43118903396E+02 -0.68955753681E+01  0.95378013203E+01  0.44696291164E+02  0.00000000000E+00 0.  1.
         22    1    3    3    0    0 -0.82974664887E+02  0.25917471504E+02 -0.13251023426E+02  0.87932360164E+02  0.00000000000E+00 0.  1.
</event>
<event>
 7    1  0.5064652E-006  0.5183653E+02  0.7818608E-02  0.1470877E+00
          2   -1    0    0  502    0  0.00000000000E+00  0.00000000000E+00  0.95496489084E+02  0.95496489084E+02  0.00000000000E+00 0. -1.
          1   -1    0    0  501    0 -0.00000000000E+00 -0.00000000000E+00 -0.41674775052E+03  0.41674775052E+03  0.00000000000E+00 0. -1.
         25    2    1    2    0    0 -0.30318578389E+02  0.48098164551E+02 -0.72805668289E+02  0.15543139303E+03  0.12500241188E+03 0.  0.
          2    1    1    2  501    0 -0.20669079101E+02 -0.34296357391E+02 -0.28803247073E+03  0.29080260514E+03  0.00000000000E+00 0. -1.
          1    1    1    2  502    0  0.50987657490E+02 -0.13801807160E+02  0.39586877584E+02  0.66010241433E+02  0.00000000000E+00 0. -1.
         22    1    3    3    0    0 -0.31339025471E+02  0.40004082887E+02  0.25452141064E+02  0.56835487592E+02  0.00000000000E+00 0. -1.
         22    1    3    3    0    0  0.10204470815E+01  0.80940816643E+01 -0.98257809354E+02  0.98595905438E+02  0.00000000000E+00 0. -1.
</event>
<event>
 7    1  0.5064652E-006  0.6531705E+02  0.7818608E-02  0.1432251E+00
          2   -1    0    0  502    0  0.00000000000E+00  0.00000000000E+00  0.14856890117E+04  0.14856890117E+04  0.00000000000E+00 0. -1.
          1   -1    0    0  501    0 -0.00000000000E+00 -0.00000000000E+00 -0.25631285811E+03  0.25631285811E+03  0.00000000000E+00 0. -1.
         25    2    1    2    0    0 -0.20578082442E+02  0.24999114927E+02  0.26113264541E+03  0.29131458144E+03  0.12500205452E+03 0.  0.
          2    1    1    2  501    0 -0.42215301890E+02  0.10873143112E+00 -0.23842082676E+03  0.24212937486E+03  0.00000000000E+00 0. -1.
          1    1    1    2  502    0  0.62793384332E+02 -0.25107846358E+02  0.12066643349E+04  0.12085579135E+04  0.00000000000E+00 0. -1.
         22    1    3    3    0    0  0.17884694391E+02  0.65983636174E+02  0.18061031697E+03  0.19311599916E+03  0.00000000000E+00 0. -1.
         22    1    3    3    0    0 -0.38462776833E+02 -0.40984521247E+02  0.80522328446E+02  0.98198582280E+02  0.00000000000E+00 0. -1.
</event>
<event>
 7    1  0.5064652E-006  0.1134950E+03  0.7818608E-02  0.1334116E+00
          2   -1    0    0  502    0  0.00000000000E+00  0.00000000000E+00  0.10245118613E+04  0.10245118613E+04  0.00000000000E+00 0. -1.
          1   -1    0    0  501    0 -0.00000000000E+00 -0.00000000000E+00 -0.30418990815E+04  0.30418990815E+04  0.00000000000E+00 0. -1.
         25    2    1    2    0    0  0.41764713597E+02 -0.70802823050E+02  0.19231373331E+02  0.15084142815E+03  0.12500383863E+03 0.  0.
          2    1    1    2  501    0 -0.89961593395E+01  0.11364731527E+03 -0.29742268991E+04  0.29764109747E+04  0.00000000000E+00 0. -1.
          1    1    1    2  502    0 -0.32768554258E+02 -0.42844492218E+02  0.93760830547E+03  0.93915853994E+03  0.00000000000E+00 0. -1.
         22    1    3    3    0    0  0.59916094129E+02 -0.48719947302E+02  0.62251015639E+02  0.99190526508E+02  0.00000000000E+00 0. -1.
         22    1    3    3    0    0 -0.18151380532E+02 -0.22082875749E+02 -0.43019642307E+02  0.51650901645E+02  0.00000000000E+00 0. -1.
</event>
<event>
 7    1  0.5064652E-006  0.8382696E+02  0.7818608E-02  0.1400597E+00
          2   -1    0    0  502    0  0.00000000000E+00  0.00000000000E+00  0.60307371449E+03  0.60307371449E+03  0.00000000000E+00 0. -1.
          1   -1    0    0  501    0 -0.00000000000E+00 -0.00000000000E+00 -0.49333939554E+03  0.49333939554E+03  0.00000000000E+00 0. -1.
         25    2    1    2    0    0 -0.97420698639E+02  0.39236670286E+02 -0.37130236384E+03  0.40561076667E+03  0.12499735926E+03 0.  0.
          2    1    1    2  501    0  0.55603888502E+02 -0.43307590094E+02 -0.92186349703E+02  0.11604164273E+03  0.00000000000E+00 0. -1.
          1    1    1    2  502    0  0.41816810136E+02  0.40709198075E+01  0.57322303250E+03  0.57476070062E+03  0.00000000000E+00 0. -1.
         22    1    3    3    0    0 -0.56617744364E+02  0.83704735822E+02 -0.20187626938E+03  0.22575668299E+03  0.00000000000E+00 0. -1.
         22    1    3    3    0    0 -0.40802954274E+02 -0.44468065535E+02 -0.16942609446E+03  0.17985408368E+03  0.00000000000E+00 0. -1.
</event>
<event>
 7    1  0.5064652E-006  0.4366090E+02  0.7818608E-02  0.1495260E+00
          2   -1    0    0  502    0  0.00000000000E+00  0.00000000000E+00  0.21854902578E+02  0.21854902578E+02  0.00000000000E+00 0. -1.
          1   -1    0    0  501    0 -0.00000000000E+00 -0.00000000000E+00 -0.16321336079E+04  0.16321336079E+04  0.00000000000E+00 0. -1.
         25    2    1    2    0    0  0.58800797564E+02  0.48254425707E+02 -0.48698157751E+03  0.50848768115E+03  0.12499056628E+03 0.  0.
          2    1    1    2  501    0 -0.20218355389E+02 -0.37517779030E+02 -0.10964686130E+04  0.10972965802E+04  0.00000000000E+00 0. -1.
          1    1    1    2  502    0 -0.38582442175E+02 -0.10736646677E+02 -0.26828514819E+02  0.48204249122E+02  0.00000000000E+00 0. -1.
         22    1    3    3    0    0 -0.15771592428E+02  0.35952948261E+02 -0.34866477914E+03  0.35086818868E+03  0.00000000000E+00 0. -1.
         22    1    3    3    0    0  0.74572389992E+02  0.12301477446E+02 -0.13831679837E+03  0.15761949247E+03  0.00000000000E+00 0. -1.
</event>
<event>
 7    1  0.5064652E-006  0.4713932E+02  0.7818608E-02  0.1532735E+00
          2   -1    0    0  502    0  0.00000000000E+00  0.00000000000E+00  0.44214491052E+03  0.44214491052E+03  0.00000000000E+00 0. -1.
          1   -1    0    0  501    0 -0.00000000000E+00 -0.00000000000E+00 -0.17315157436E+04  0.17315157436E+04  0.00000000000E+00 0. -1.
         25    2    1    2    0    0 -0.67405046009E+02 -0.19620524198E+01 -0.92644226743E+03  0.93726596219E+03  0.12499967642E+03 0.  0.
          2    1    1    2  501    0  0.43067206436E+02 -0.13457553380E+02 -0.79854889820E+03  0.79982262586E+03  0.00000000000E+00 0. -1.
          1    1    1    2  502    0  0.24337839573E+02  0.15419605800E+02  0.43562033260E+03  0.43657206604E+03  0.00000000000E+00 0. -1.
         22    1    3    3    0    0  0.25658330363E+02  0.28246360797E+02 -0.39937056329E+03  0.40118954827E+03  0.00000000000E+00 0. -1.
         22    1    3    3    0    0 -0.93063376372E+02 -0.30208413217E+02 -0.52707170414E+03  0.53607641392E+03  0.00000000000E+00 0. -1.
</event>
<event>
 7    1  0.5064652E-006  0.8258666E+02  0.7818608E-02  0.1351500E+00
          2   -1    0    0  502    0  0.00000000000E+00  0.00000000000E+00  0.28887255489E+04  0.28887255489E+04  0.00000000000E+00 0. -1.
          1   -1    0    0  501    0 -0.00000000000E+00 -0.00000000000E+00 -0.70756446513E+02  0.70756446513E+02  0.00000000000E+00 0. -1.
         25    2    1    2    0    0 -0.87515451739E+02  0.66194015366E+02  0.85150593463E+02  0.18685725357E+03  0.12499763071E+03 0.  0.
          2    1    1    2  501    0  0.23841506610E+02 -0.70259051802E+02  0.50964440348E+02  0.90011810211E+02  0.00000000000E+00 0. -1.
          1    1    1    2  502    0  0.63673945129E+02  0.40650364360E+01  0.26818540686E+04  0.26826129316E+04  0.00000000000E+00 0. -1.
         22    1    3    3    0    0 -0.51170796598E+02  0.96278058227E+02  0.87229262931E+02  0.13963115423E+03  0.00000000000E+00 0. -1.
         22    1    3    3    0    0 -0.36344655141E+02 -0.30084042862E+02 -0.20786694672E+01  0.47226099341E+02  0.00000000000E+00 0. -1.
</event>
<event>
 7    1  0.5064652E-006  0.1448416E+03  0.7818608E-02  0.1316244E+00
          2   -1    0    0  502    0  0.00000000000E+00  0.00000000000E+00  0.28173786881E+04  0.28173786881E+04  0.00000000000E+00 0. -1.
          1   -1    0    0  501    0 -0.00000000000E+00 -0.00000000000E+00 -0.43004473905E+02  0.43004473905E+02  0.00000000000E+00 0. -1.
         25    2    1    2    0    0 -0.11955608184E+03  0.34386351830E+02  0.52842550338E+03  0.55707659822E+03  0.12499898305E+03 0.  0.
          2    1    1    2  501    0  0.15422540710E+03  0.97212713799E+00  0.18113774046E+03  0.23790187524E+03  0.00000000000E+00 0. -1.
          1    1    1    2  502    0 -0.34669325257E+02 -0.35358478968E+02  0.20648109704E+04  0.20654046886E+04  0.00000000000E+00 0. -1.
         22    1    3    3    0    0 -0.10608030592E+03 -0.21791594325E+02  0.24568045390E+03  0.26848983280E+03  0.00000000000E+00 0.  1.
         22    1    3    3    0    0 -0.13475775918E+02  0.56177946155E+02  0.28274504948E+03  0.28858676542E+03  0.00000000000E+00 0.  1.
</event>
<event>
 7    1  0.5064652E-006  0.6677188E+02  0.7818608E-02  0.1388294E+00
          2   -1    0    0  502    0  0.00000000000E+00  0.00000000000E+00  0.40642133061E+04  0.40642133061E+04  0.00000000000E+00 0. -1.
          1   -1    0    0  501    0 -0.00000000000E+00 -0.00000000000E+00 -0.22466535112E+02  0.22466535112E+02  0.00000000000E+00 0. -1.
         25    2    1    2    0    0  0.78712020017E+01  0.10198122530E+02  0.88851910550E+03  0.89736162781E+03  0.12500293074E+03 0.  0.
          2    1    1    2  501    0 -0.45607932589E+02 -0.54491723246E+02  0.53257554259E+02  0.88802018575E+02  0.00000000000E+00 0. -1.
          1    1    1    2  502    0  0.37736730587E+02  0.44293600716E+02  0.30999701113E+04  0.31005161949E+04  0.00000000000E+00 0. -1.
         22    1    3    3    0    0  0.18896134326E+02  0.49369441180E+02  0.77443767953E+03  0.77623973429E+03  0.00000000000E+00 0. -1.
         22    1    3    3    0    0 -0.11024932324E+02 -0.39171318649E+02  0.11408142598E+03  0.12112189352E+03  0.00000000000E+00 0. -1.
</event>
<event>
 7    1  0.5064652E-006  0.7167846E+02  0.7818608E-02  0.1477997E+00
          2   -1    0    0  502    0  0.00000000000E+00  0.00000000000E+00  0.61631381531E+03  0.61631381531E+03  0.00000000000E+00 0. -1.
          1   -1    0    0  501    0 -0.00000000000E+00 -0.00000000000E+00 -0.11030551179E+04  0.11030551179E+04  0.00000000000E+00 0. -1.
         25    2    1    2    0    0  0.74116771704E+02 -0.38413935342E+02  0.19949444665E+03  0.24978640697E+03  0.12500515424E+03 0.  0.
          2    1    1    2  501    0 -0.70774957656E+02  0.11090334783E+02 -0.10762331786E+04  0.10786148270E+04  0.00000000000E+00 0. -1.
          1    1    1    2  502    0 -0.33418140484E+01  0.27323600559E+02  0.38999742944E+03  0.39096769923E+03  0.00000000000E+00 0. -1.
         22    1    3    3    0    0 -0.12339462268E+02  0.33148581405E+02  0.29358164883E+02  0.45967299502E+02  0.00000000000E+00 0. -1.
         22    1    3    3    0    0  0.86456233972E+02 -0.71562516747E+02  0.17013628177E+03  0.20381910747E+03  0.00000000000E+00 0. -1.
</event>
<event>
 7    1  0.5064652E-006  0.8156844E+02  0.7818608E-02  0.1422607E+00
          2   -1    0    0  502    0  0.00000000000E+00  0.00000000000E+00  0.58236713351E+03  0.58236713351E+03  0.00000000000E+00 0. -1.
          1   -1    0    0  501    0 -0.00000000000E+00 -0.00000000000E+00 -0.71831515385E+03  0.71831515385E+03  0.00000000000E+00 0. -1.
         25    2    1    2    0    0 -0.34357613685E+02 -0.43712247963E+02 -0.12727618488E+03  0.18686448185E+03  0.12501160385E+03 0.  0.
          2    1    1    2  501    0  0.70616711093E+02  0.46655642823E+02 -0.55744828950E+03  0.56383691291E+03  0.00000000000E+00 0. -1.
          1    1    1    2  502    0 -0.36259097408E+02 -0.29433948594E+01  0.54877645404E+03  0.54998089260E+03  0.00000000000E+00 0. -1.
         22    1    3    3    0    0 -0.62504828668E+02  0.89610455022E+01 -0.10615902710E+03  0.12351879605E+03  0.00000000000E+00 0.  1.
         22    1    3    3    0    0  0.28147214983E+02 -0.52673293466E+02 -0.21117157785E+02  0.63345685794E+02  0.00000000000E+00 0.  1.
</event>
<event>
 7    1  0.5064652E-006  0.3574186E+02  0.7818608E-02  0.1543958E+00
          2   -1    0    0  502    0  0.00000000000E+00  0.00000000000E+00  0.60922063559E+02  0.60922063559E+02  0.00000000000E+00 0. -1.
          1   -1    0    0  501    0 -0.00000000000E+00 -0.00000000000E+00 -0.25793341380E+03  0.25793341380E+03  0.00000000000E+00 0. -1.
         25    2    1    2    0    0  0.42883303379E+02  0.11303330911E+02 -0.11248968149E+03  0.17391242296E+03  0.12499943768E+03 0.  0.
          2    1    1    2  501    0 -0.14423586081E+02 -0.32925650327E+02 -0.99797281670E+02  0.10607372773E+03  0.00000000000E+00 0. -1.
          1    1    1    2  502    0 -0.28459717298E+02  0.21622319416E+02  0.15275612921E+02  0.38869326669E+02  0.00000000000E+00 0. -1.
         22    1    3    3    0    0  0.58887096361E+02 -0.33064819719E+02 -0.10685896165E+03  0.12641127365E+03  0.00000000000E+00 0. -1.
         22    1    3    3    0    0 -0.16003792982E+02  0.44368150630E+02 -0.56307198398E+01  0.47501149313E+02  0.00000000000E+00 0. -1.
</event>
<event>
 7    1  0.5064652E-006  0.5483897E+02  0.7818608E-02  0.1537555E+00
          2   -1    0    0  502    0  0.00000000000E+00  0.00000000000E+00  0.12220267442E+03  0.12220267442E+03  0.00000000000E+00 0. -1.
          1   -1    0    0  501    0 -0.00000000000E+00 -0.00000000000E+00 -0.18866109607E+04  0.18866109607E+04  0.00000000000E+00 0. -1.
         25    2    1    2    0    0  0.25081707299E+02  0.31411300477E+02 -0.35645334827E+03  0.37986742814E+03  0.12499804650E+03 0.  0.
          2    1    1    2  501    0  0.23437712431E+02 -0.51469639201E+01 -0.15114623601E+04  0.15116528317E+04  0.00000000000E+00 0. -1.
          1    1    1    2  502    0 -0.48519419730E+02 -0.26264336556E+02  0.10350742207E+03  0.11729337530E+03  0.00000000000E+00 0. -1.
         22    1    3    3    0    0  0.16949488135E+02 -0.26149049564E+02 -0.28961180907E+03  0.29128346657E+03  0.00000000000E+00 0. -1.
         22    1    3    3    0    0  0.81322191633E+01  0.57560350041E+02 -0.66841539201E+02  0.88583961574E+02  0.00000000000E+00 0. -1.
</event>
<event>
 7    1  0.5064652E-006  0.7131004E+02  0.7818608E-02  0.1387257E+00
          2   -1    0    0  502    0  0.00000000000E+00  0.00000000000E+00  0.11454180634E+04  0.11454180634E+04  0.00000000000E+00 0. -1.
          1   -1    0    0  501    0 -0.00000000000E+00 -0.00000000000E+00 -0.37528656870E+03  0.37528656870E+03  0.00000000000E+00 0. -1.
         25    2    1    2    0    0 -0.40874452275E+02  0.21339886676E+02  0.74545127550E+03  0.75726386015E+03  0.12499935251E+03 0.  0.
          2    1    1    2  501    0 -0.54875056215E+02  0.27421584570E+01 -0.36108509245E+03  0.36524133832E+03  0.00000000000E+00 0. -1.
          1    1    1    2  502    0  0.95749508490E+02 -0.24082045133E+02  0.38576531168E+03  0.39819943366E+03  0.00000000000E+00 0. -1.
         22    1    3    3    0    0 -0.17540337272E+02  0.65201010352E+02  0.23817235589E+03  0.24755788473E+03  0.00000000000E+00 0.  1.
         22    1    3    3    0    0 -0.23334115003E+02 -0.43861123676E+02  0.50727891962E+03  0.50970597542E+03  0.00000000000E+00 0.  1.
</event>
<event>
 7    1  0.5064652E-006  0.8259446E+02  0.7818608E-02  0.1402874E+00
          2   -1    0    0  502    0  0.00000000000E+00  0.00000000000E+00  0.23057560960E+03  0.23057560960E+03  0.00000000000E+00 0. -1.
          1   -1    0    0  501    0 -0.00000000000E+00 -0.00000000000E+00 -0.84898922442E+03  0.84898922442E+03  0.00000000000E+00 0. -1.
         25    2    1    2    0    0  0.30519047729E+02  0.11848534854E+03 -0.48149334025E+03  0.51228007241E+03  0.12499938316E+03 0.  0.
          2    1    1    2  501    0 -0.13867493211E+01 -0.41858663644E+02 -0.34297445087E+03  0.34552213351E+03  0.00000000000E+00 0. -1.
          1    1    1    2  502    0 -0.29132298408E+02 -0.76626684893E+02  0.20605417630E+03  0.22176262810E+03  0.00000000000E+00 0. -1.
         22    1    3    3    0    0  0.30864581804E+02  0.30198909671E+02 -0.35732101223E+03  0.35992068896E+03  0.00000000000E+00 0. -1.
         22    1    3    3    0    0 -0.34553407532E+00  0.88286438866E+02 -0.12417232802E+03  0.15235938346E+03  0.00000000000E+00 0. -1.
</event>
<event>
 7    1  0.5064652E-006  0.1582640E+03  0.7818608E-02  0.1384085E+00
          2   -1    0    0  502    0  0.00000000000E+00  0.00000000000E+00  0.11283418779E+03  0.11283418779E+03  0.00000000000E+00 0. -1.
          1   -1    0    0  501    0 -0.00000000000E+00 -0.00000000000E+00 -0.61944410482E+03  0.61944410482E+03  0.00000000000E+00 0. -1.
         25    2    1    2    0    0  0.56023718379E+02  0.16757063906E+03 -0.63121246242E+02  0.22544775506E+03  0.12499528966E+03 0.  0.
          2    1    1    2  501    0 -0.61430584321E+02 -0.14275321307E+03 -0.45360612855E+03  0.47949005870E+03  0.00000000000E+00 0. -1.
          1    1    1    2  502    0  0.54068659424E+01 -0.24817425988E+02  0.10117457766E+02  0.27340478848E+02  0.00000000000E+00 0. -1.
         22    1    3    3    0    0  0.73371341322E+02  0.54569913513E+02  0.63678453888E+01  0.91661216679E+02  0.00000000000E+00 0.  1.
         22    1    3    3    0    0 -0.17347622943E+02  0.11300072555E+03 -0.69489091630E+02  0.13378653838E+03  0.00000000000E+00 0.  1.
</event>
<event>
 7    1  0.5064652E-006  0.2628351E+02  0.7818608E-02  0.1657999E+00
          2   -1    0    0  502    0  0.00000000000E+00  0.00000000000E+00  0.97724018345E+02  0.97724018345E+02  0.00000000000E+00 0. -1.
          1   -1    0    0  501    0 -0.00000000000E+00 -0.00000000000E+00 -0.30052188373E+03  0.30052188373E+03  0.00000000000E+00 0. -1.
         25    2    1    2    0    0  0.14456350398E+02  0.23497267290E+02 -0.44984997808E+02  0.13568182116E+03  0.12499919571E+03 0.  0.
          2    1    1    2  501    0 -0.24145132906E+02  0.13158069247E+01 -0.20604822341E+03  0.20746225961E+03  0.00000000000E+00 0. -1.
          1    1    1    2  502    0  0.96887825076E+01 -0.24813074215E+02  0.48235355837E+02  0.55101821306E+02  0.00000000000E+00 0. -1.
         22    1    3    3    0    0  0.20677313994E+02  0.56923905356E+02 -0.70669644805E+02  0.93070301450E+02  0.00000000000E+00 0. -1.
         22    1    3    3    0    0 -0.62209635961E+01 -0.33426638066E+02  0.25684646997E+02  0.42611519708E+02  0.00000000000E+00 0. -1.
</event>
<event>
 7    1  0.5064652E-006  0.1304033E+03  0.7818608E-02  0.1382571E+00
          2   -1    0    0  502    0  0.00000000000E+00  0.00000000000E+00  0.24836072948E+04  0.24836072948E+04  0.00000000000E+00 0. -1.
          1   -1    0    0  501    0 -0.00000000000E+00 -0.00000000000E+00 -0.16233245347E+03  0.16233245347E+03  0.00000000000E+00 0. -1.
         25    2    1    2    0    0 -0.82069778723E+02 -0.12887470743E+03  0.11230544256E+04  0.11402719396E+04  0.12499885893E+03 0.  0.
          2    1    1    2  501    0  0.23557767008E+02  0.20467604415E+02 -0.14930073891E+03  0.15252738068E+03  0.00000000000E+00 0. -1.
          1    1    1    2  502    0  0.58512011715E+02  0.10840710301E+03  0.13475211547E+04  0.13531404280E+04  0.00000000000E+00 0. -1.
         22    1    3    3    0    0  0.88549945336E+01  0.19971929759E+02  0.91244681780E+02  0.93823668974E+02  0.00000000000E+00 0.  1.
         22    1    3    3    0    0 -0.90924773257E+02 -0.14884663719E+03  0.10318097438E+04  0.10464482707E+04  0.00000000000E+00 0.  1.
</event>
<event>
 7    1  0.5064652E-006  0.8183734E+02  0.7818608E-02  0.1449552E+00
          2   -1    0    0  502    0  0.00000000000E+00  0.00000000000E+00  0.22139254648E+04  0.22139254648E+04  0.00000000000E+00 0. -1.
          1   -1    0    0  501    0 -0.00000000000E+00 -0.00000000000E+00 -0.99061661175E+02  0.99061661175E+02  0.00000000000E+00 0. -1.
         25    2    1    2    0    0 -0.67461616062E+02 -0.38508707840E+01  0.86873085625E+03  0.88027573174E+03  0.12500465770E+03 0.  0.
          2    1    1    2  501    0  0.78781973537E+02 -0.23511795783E+02 -0.74976930767E+02  0.11126969058E+03  0.00000000000E+00 0. -1.
          1    1    1    2  502    0 -0.11320357475E+02  0.27362666567E+02  0.13211098782E+04  0.13214417037E+04  0.00000000000E+00 0. -1.
         22    1    3    3    0    0 -0.82499973307E+02  0.38622169712E+02  0.44997283751E+03  0.45910072107E+03  0.00000000000E+00 0. -1.
         22    1    3    3    0    0  0.15038357245E+02 -0.42473040496E+02  0.41875801874E+03  0.42117501068E+03  0.00000000000E+00 0. -1.
</event>
<event>
 7    1  0.5064652E-006  0.6927511E+02  0.7818608E-02  0.1374205E+00
          2   -1    0    0  502    0  0.00000000000E+00  0.00000000000E+00  0.23661041552E+04  0.23661041552E+04  0.00000000000E+00 0. -1.
          1   -1    0    0  501    0 -0.00000000000E+00 -0.00000000000E+00 -0.13354574250E+03  0.13354574250E+03  0.00000000000E+00 0. -1.
         25    2    1    2    0    0 -0.27017445959E+02  0.10737840654E+02  0.21518654343E+03  0.25054745931E+03  0.12499414901E+03 0.  0.
          2    1    1    2  501    0  0.19031623343E+02  0.59954256467E+02 -0.10668833330E+03  0.12385118497E+03  0.00000000000E+00 0. -1.
          1    1    1    2  502    0  0.79858226161E+01 -0.70692097121E+02  0.21240602026E+04  0.21252512534E+04  0.00000000000E+00 0. -1.
         22    1    3    3    0    0  0.89253343694E+01 -0.19384891349E+02  0.20017175451E+03  0.20130615219E+03  0.00000000000E+00 0.  1.
         22    1    3    3    0    0 -0.35942780328E+02  0.30122732003E+02  0.15014788923E+02  0.49241307126E+02  0.00000000000E+00 0.  1.
</event>
<event>
 7    1  0.5064652E-006  0.6933578E+02  0.7818608E-02  0.1512715E+00
          2   -1    0    0  502    0  0.00000000000E+00  0.00000000000E+00  0.26026759369E+04  0.26026759369E+04  0.00000000000E+00 0. -1.
          1   -1    0    0  501    0 -0.00000000000E+00 -0.00000000000E+00 -0.12957636775E+02  0.12957636775E+02  0.00000000000E+00 0. -1.
         25    2    1    2    0    0  0.12530975050E+02 -0.52079374041E+02  0.93960216208E+03  0.94939318919E+03  0.12500367255E+03 0.  0.
          2    1    1    2  501    0 -0.26797927156E+01  0.72177776185E+02  0.15548987919E+03  0.17144653742E+03  0.00000000000E+00 0. -1.
          1    1    1    2  502    0 -0.98511823343E+01 -0.20098402144E+02  0.14946262588E+04  0.14947938470E+04  0.00000000000E+00 0. -1.
         22    1    3    3    0    0 -0.26316608297E+02 -0.61577380670E+02  0.83044759691E+03  0.83314317431E+03  0.00000000000E+00 0. -1.
         22    1    3    3    0    0  0.38847583347E+02  0.94980066289E+01  0.10915456518E+03  0.11625001488E+03  0.00000000000E+00 0. -1.
</event>
<event>
 7    1  0.5064652E-006  0.8622094E+02  0.7818608E-02  0.1312629E+00
          2   -1    0    0  502    0  0.00000000000E+00  0.00000000000E+00  0.10061116450E+04  0.10061116450E+04  0.00000000000E+00 0. -1.
          1   -1    0    0  501    0 -0.00000000000E+00 -0.00000000000E+00 -0.35939015622E+03  0.35939015622E+03  0.00000000000E+00 0. -1.
         25    2    1    2    0    0 -0.26812507380E+02  0.71605377470E+02  0.60258937740E+03  0.62014937169E+03  0.12500017927E+03 0.  0.
          2    1    1    2  501    0 -0.58990372445E+02 -0.63125045977E+02 -0.34044067122E+03  0.35123280896E+03  0.00000000000E+00 0. -1.
          1    1    1    2  502    0  0.85802879824E+02 -0.84803314937E+01  0.38457278263E+03  0.39411962061E+03  0.00000000000E+00 0. -1.
         22    1    3    3    0    0 -0.28007580202E+02  0.30438927236E+02  0.55769323870E+03  0.55922509004E+03  0.00000000000E+00 0. -1.
         22    1    3    3    0    0  0.11950728225E+01  0.41166450235E+02  0.44896138693E+02  0.60924281642E+02  0.00000000000E+00 0. -1.
</event>
<event>
 7    1  0.5064652E-006  0.4740315E+02  0.7818608E-02  0.1527703E+00
          2   -1    0    0  502    0  0.00000000000E+00  0.00000000000E+00  0.13512975898E+04  0.13512975898E+04  0.00000000000E+00 0. -1.
          1   -1    0    0  501    0 -0.00000000000E+00 -0.00000000000E+00 -0.87824383173E+03  0.87824383173E+03  0.00000000000E+00 0. -1.
         25    2    1    2    0    0  0.46579443423E+02 -0.48115432168E+02  0.25381545067E+03  0.29074384604E+03  0.12499984659E+03 0.  0.
          2    1    1    2  501    0 -0.34637851668E+01  0.29414405749E+02 -0.85901255842E+03  0.85952299597E+03  0.00000000000E+00 0. -1.
          1    1    1    2  502    0 -0.43115658257E+02  0.18701026419E+02  0.10782508659E+04  0.10792745796E+04  0.00000000000E+00 0. -1.
         22    1    3    3    0    0 -0.33603826467E+02  0.17619664489E+02  0.74660199357E+02  0.83748522960E+02  0.00000000000E+00 0.  1.
         22    1    3    3    0    0  0.80183269891E+02 -0.65735096656E+02  0.17915525131E+03  0.20699532308E+03  0.00000000000E+00 0.  1.
</event>
<event>
 7    1  0.5064652E-006  0.9937723E+02  0.7818608E-02  0.1328236E+00
          2   -1    0    0  502    0  0.00000000000E+00  0.00000000000E+00  0.61657695728E+03  0.61657695728E+03  0.00000000000E+00 0. -1.
          1   -1    0    0  501    0 -0.00000000000E+00 -0.00000000000E+00 -0.11543559771E+03  0.11543559771E+03  0.00000000000E+00 0. -1.
         25    2    1    2    0    0 -0.11507448793E+03 -0.39777318652E+02  0.13616400033E+03  0.22133299701E+03  0.12499315072E+03 0.  0.
          2    1    1    2  501    0  0.19081917976E+02  0.61995674126E+02 -0.51425748374E+02  0.82777960834E+02  0.00000000000E+00 0. -1.
          1    1    1    2  502    0  0.95992569953E+02 -0.22218355474E+02  0.41640310762E+03  0.42790159714E+03  0.00000000000E+00 0. -1.
         22    1    3    3    0    0 -0.40031442747E+02  0.45670005394E+02  0.45169438895E+02  0.75687145614E+02  0.00000000000E+00 0. -1.
         22    1    3    3    0    0 -0.75043045182E+02 -0.85447324046E+02  0.90994561435E+02  0.14564585139E+03  0.00000000000E+00 0. -1.
</event>
<event>
 7    1  0.5064652E-006  0.3608137E+03  0.7818608E-02  0.1185610E+00
          2   -1    0    0  502    0  0.00000000000E+00  0.00000000000E+00  0.57438875327E+03  0.57438875327E+03  0.00000000000E+00 0. -1.
          1   -1    0    0  501    0 -0.00000000000E+00 -0.00000000000E+00 -0.30261806923E+04  0.30261806923E+04  0.00000000000E+00 0. -1.
         25    2    1    2    0    0 -0.27857569415E+03  0.20856174656E+03 -0.61604668944E+02  0.37486405966E+03  0.12500203395E+03 0.  0.
          2    1    1    2  501    0  0.33591810530E+02  0.65289322361E+02 -0.27265613242E+04  0.27275497723E+04  0.00000000000E+00 0. -1.
          1    1    1    2  502    0  0.24498388362E+03 -0.27385106892E+03  0.33637405410E+03  0.49815561369E+03  0.00000000000E+00 0. -1.
         22    1    3    3    0    0 -0.31872531150E+02  0.41764555352E+02  0.33428020925E+02  0.62270128542E+02  0.00000000000E+00 0. -1.
         22    1    3    3    0    0 -0.24670316300E+03  0.16679719121E+03 -0.95032689870E+02  0.31259393112E+03  0.00000000000E+00 0. -1.
</event>
<event>
 7    1  0.5064652E-006  0.7020303E+02  0.7818608E-02  0.1387047E+00
          2   -1    0    0  502    0  0.00000000000E+00  0.00000000000E+00  0.79426429340E+03  0.79426429340E+03  0.00000000000E+00 0. -1.
          1   -1    0    0  501    0 -0.00000000000E+00 -0.00000000000E+00 -0.60813948697E+03  0.60813948697E+03  0.00000000000E+00 0. -1.
         25    2    1    2    0    0 -0.29286743937E+02  0.61322384966E+02  0.35742152218E+03  0.38469377430E+03  0.12498402780E+03 0.  0.
          2    1    1    2  501    0  0.55172915198E+02  0.90151041516E+01 -0.58985291865E+03  0.59249623485E+03  0.00000000000E+00 0. -1.
          1    1    1    2  502    0 -0.25886171261E+02 -0.70337489118E+02  0.41855620290E+03  0.42521377121E+03  0.00000000000E+00 0. -1.
         22    1    3    3    0    0  0.45940996007E+02  0.31489803447E+02  0.20104614466E+03  0.20861863559E+03  0.00000000000E+00 0. -1.
         22    1    3    3    0    0 -0.75227739945E+02  0.29832581519E+02  0.15637537752E+03  0.17607513871E+03  0.00000000000E+00 0. -1.
</event>
<event>
 7    1  0.5064652E-006  0.7749218E+02  0.7818608E-02  0.1487608E+00
          2   -1    0    0  502    0  0.00000000000E+00  0.00000000000E+00  0.14527489356E+03  0.14527489356E+03  0.00000000000E+00 0. -1.
          1   -1    0    0  501    0 -0.00000000000E+00 -0.00000000000E+00 -0.62697269303E+03  0.62697269303E+03  0.00000000000E+00 0. -1.
         25    2    1    2    0    0 -0.63284254014E+02  0.16812913735E+02 -0.73244381048E+02  0.15898636860E+03  0.12499742066E+03 0.  0.
          2    1    1    2  501    0 -0.52559372661E+01  0.23209405229E+02 -0.49514936275E+03  0.49572088194E+03  0.00000000000E+00 0. -1.
          1    1    1    2  502    0  0.68540191280E+02 -0.40022318964E+02  0.86695944321E+02  0.11754033605E+03  0.00000000000E+00 0. -1.
         22    1    3    3    0    0 -0.97367153065E+02  0.31540595739E+02 -0.42660919501E+02  0.11088338797E+03  0.00000000000E+00 0. -1.
         22    1    3    3    0    0  0.34082899051E+02 -0.14727682004E+02 -0.30583461548E+02  0.48102980627E+02  0.00000000000E+00 0. -1.
</event>
<event>
 7    1  0.5064652E-006  0.1477274E+03  0.7818608E-02  0.1319975E+00
          2   -1    0    0  502    0  0.00000000000E+00  0.00000000000E+00  0.25287517325E+03  0.25287517325E+03  0.00000000000E+00 0. -1.
          1   -1    0    0  501    0 -0.00000000000E+00 -0.00000000000E+00 -0.12546331493E+04  0.12546331493E+04  0.00000000000E+00 0. -1.
         25    2    1    2    0    0  0.94015350726E+02 -0.11303810203E+03 -0.15059756388E+03  0.24479168664E+03  0.12500737946E+03 0.  0.
          2    1    1    2  501    0  0.32116154414E+02  0.34254717861E+02 -0.10294645919E+04  0.10305348995E+04  0.00000000000E+00 0. -1.
          1    1    1    2  502    0 -0.12613150514E+03  0.78783384164E+02  0.17830417975E+03  0.23218173641E+03  0.00000000000E+00 0. -1.
         22    1    3    3    0    0  0.10908035337E+03 -0.12606760978E+03 -0.11045603791E+03  0.19998025412E+03  0.00000000000E+00 0. -1.
         22    1    3    3    0    0 -0.15065002645E+02  0.13029507758E+02 -0.40141525970E+02  0.44811432518E+02  0.00000000000E+00 0. -1.
</event>
<event>
 7    1  0.9639069E-006  0.8919048E+02  0.7818608E-02  0.1402137E+00
          2   -1    0    0  502    0  0.00000000000E+00  0.00000000000E+00  0.22574460311E+04  0.22574460311E+04  0.00000000000E+00 0. -1.
          1   -1    0    0  501    0 -0.00000000000E+00 -0.00000000000E+00 -0.81730226257E+03  0.81730226257E+03  0.00000000000E+00 0. -1.
         25    2    1    2    0    0  0.36165137709E+02 -0.10514121232E+03 -0.89264099077E+02  0.18961799480E+03  0.12499725139E+03 0.  0.
          2    1    1    2  501    0 -0.35552305414E+02  0.16057569362E+02 -0.67640010732E+03  0.67752410816E+03  0.00000000000E+00 0. -1.
          1    1    1    2  502    0 -0.61283229461E+00  0.89083642961E+02  0.22058079750E+04  0.22076061908E+04  0.00000000000E+00 0. -1.
         22    1    3    3    0    0 -0.19881053547E+02 -0.10601804601E+03 -0.76189473698E+02  0.13206028272E+03  0.00000000000E+00 0.  1.
         22    1    3    3    0    0  0.56046191256E+02  0.87683368467E+00 -0.13074625379E+02  0.57557712084E+02  0.00000000000E+00 0.  1.
</event>
<event>
 7    1  0.5064652E-006  0.1615982E+03  0.7818608E-02  0.1384459E+00
          2   -1    0    0  502    0  0.00000000000E+00  0.00000000000E+00  0.16988725451E+04  0.16988725451E+04  0.00000000000E+00 0. -1.
          1   -1    0    0  501    0 -0.00000000000E+00 -0.00000000000E+00 -0.14407676328E+03  0.14407676328E+03  0.00000000000E+00 0. -1.
         25    2    1    2    0    0  0.14700486153E+03  0.97503648123E+02  0.44347659860E+03  0.49337170917E+03  0.12500703655E+03 0.  0.
          2    1    1    2  501    0 -0.24555157307E+02  0.34776843283E+01 -0.11265657179E+03  0.11535403420E+03  0.00000000000E+00 0. -1.
          1    1    1    2  502    0 -0.12244970423E+03 -0.10098133245E+03  0.12239757550E+04  0.12342235650E+04  0.00000000000E+00 0. -1.
         22    1    3    3    0    0  0.69784105015E+02 -0.20028528565E+02  0.19162094622E+03  0.20491351908E+03  0.00000000000E+00 0.  1.
         22    1    3    3    0    0  0.77220756519E+02  0.11753217669E+03  0.25185565238E+03  0.28845819009E+03  0.00000000000E+00 0.  1.
</event>
<event>
 7    1  0.5064652E-006  0.1851122E+03  0.7818608E-02  0.1235584E+00
          2   -1    0    0  502    0  0.00000000000E+00  0.00000000000E+00  0.13840416196E+03  0.13840416196E+03  0.00000000000E+00 0. -1.
          1   -1    0    0  501    0 -0.00000000000E+00 -0.00000000000E+00 -0.11301091818E+04  0.11301091818E+04  0.00000000000E+00 0. -1.
         25    2    1    2    0    0  0.11900524922E+02  0.16420279500E+03 -0.24247891598E+03  0.31862567382E+03  0.12498845925E+03 0.  0.
          2    1    1    2  501    0 -0.81669175600E+02  0.19499006258E+02 -0.74868887858E+03  0.75338244099E+03  0.00000000000E+00 0. -1.
          1    1    1    2  502    0  0.69768650678E+02 -0.18370180126E+03 -0.53722531535E+00  0.19650522898E+03  0.00000000000E+00 0. -1.
         22    1    3    3    0    0 -0.25245359211E+02  0.16046738438E+03 -0.22472060291E+03  0.27728407633E+03  0.00000000000E+00 0.  1.
         22    1    3    3    0    0  0.37145884133E+02  0.37354106231E+01 -0.17758313067E+02  0.41341597497E+02  0.00000000000E+00 0.  1.
</event>
<event>
 7    1  0.5064652E-006  0.6641436E+02  0.7818608E-02  0.1403143E+00
          2   -1    0    0  502    0  0.00000000000E+00  0.00000000000E+00  0.29756673799E+03  0.29756673799E+03  0.00000000000E+00 0. -1.
          1   -1    0    0  501    0 -0.00000000000E+00 -0.00000000000E+00 -0.54735784892E+03  0.54735784892E+03  0.00000000000E+00 0. -1.
         25    2    1    2    0    0  0.13598701040E+02  0.38943104579E+02  0.28688135639E+01  0.13166152211E+03  0.12500014499E+03 0.  0.
          2    1    1    2  501    0 -0.63404614150E+02 -0.24086168731E+02 -0.47760226027E+03  0.48239424503E+03  0.00000000000E+00 0. -1.
          1    1    1    2  502    0  0.49805913110E+02 -0.14856935848E+02  0.22494233578E+03  0.23086881979E+03  0.00000000000E+00 0. -1.
         22    1    3    3    0    0  0.40038677487E+02  0.23609114783E+02 -0.51448194608E+02  0.69335436280E+02  0.00000000000E+00 0.  1.
         22    1    3    3    0    0 -0.26439976447E+02  0.15333989796E+02  0.54317008172E+02  0.62326085826E+02  0.00000000000E+00 0.  1.
</event>
<event>
 7    1  0.5064652E-006  0.6232335E+02  0.7818608E-02  0.1449562E+00
          2   -1    0    0  502    0  0.00000000000E+00  0.00000000000E+00  0.79919871639E+03  0.79919871639E+03  0.00000000000E+00 0. -1.
          1   -1    0    0  501    0 -0.00000000000E+00 -0.00000000000E+00 -0.22610369991E+03  0.22610369991E+03  0.00000000000E+00 0. -1.
         25    2    1    2    0    0 -0.84018370414E+02  0.57741158210E+01  0.65341698199E+03  0.67057512615E+03  0.12499928192E+03 0.  0.
          2    1    1    2  501    0  0.54149697658E+02 -0.30665664289E+02 -0.21016668125E+03  0.21918623732E+03  0.00000000000E+00 0. -1.
          1    1    1    2  502    0  0.29868672756E+02  0.24891548468E+02  0.12984471574E+03  0.13554105283E+03  0.00000000000E+00 0. -1.
         22    1    3    3    0    0 -0.21244495186E+02 -0.21500324688E+02  0.51765243855E+03  0.51853412586E+03  0.00000000000E+00 0. -1.
         22    1    3    3    0    0 -0.62773875228E+02  0.27274440509E+02  0.13576454344E+03  0.15204100030E+03  0.00000000000E+00 0. -1.
</event>
<event>
 7    1  0.5064652E-006  0.1119848E+03  0.7818608E-02  0.1331508E+00
          2   -1    0    0  502    0  0.00000000000E+00  0.00000000000E+00  0.21178032458E+04  0.21178032458E+04  0.00000000000E+00 0. -1.
          1   -1    0    0  501    0 -0.00000000000E+00 -0.00000000000E+00 -0.11038267791E+03  0.11038267791E+03  0.00000000000E+00 0. -1.
         25    2    1    2    0    0 -0.14910935337E+03  0.68744055193E+02  0.92512179442E+03  0.94785804794E+03  0.12500080059E+03 0.  0.
          2    1    1    2  501    0  0.94430084484E+02 -0.56985841250E+02 -0.67408703548E+02  0.12926082265E+03  0.00000000000E+00 0. -1.
          1    1    1    2  502    0  0.54679268885E+02 -0.11758213943E+02  0.11497074770E+04  0.11510670531E+04  0.00000000000E+00 0. -1.
         22    1    3    3    0    0 -0.16381090083E+03  0.56774621420E+02  0.67119062904E+03  0.69322018823E+03  0.00000000000E+00 0.  1.
         22    1    3    3    0    0  0.14701547462E+02  0.11969433773E+02  0.25393116539E+03  0.25463785971E+03  0.00000000000E+00 0.  1.
</event>
<event>
 7    1  0.5064652E-006  0.3583463E+02  0.7818608E-02  0.1548010E+00
          2   -1    0    0  502    0  0.00000000000E+00  0.00000000000E+00  0.23215080877E+04  0.23215080877E+04  0.00000000000E+00 0. -1.
          1   -1    0    0  501    0 -0.00000000000E+00 -0.00000000000E+00 -0.28246568381E+02  0.28246568381E+02  0.00000000000E+00 0. -1.
         25    2    1    2    0    0 -0.12931397333E+02 -0.63524563135E+01  0.26726365883E+03  0.29540192549E+03  0.12499943805E+03 0.  0.
          2    1    1    2  501    0  0.10506571580E+01  0.38545119189E+02  0.12460168271E+02  0.40522658934E+02  0.00000000000E+00 0. -1.
          1    1    1    2  502    0  0.11880740175E+02 -0.32192662875E+02  0.20135376922E+04  0.20138300717E+04  0.00000000000E+00 0. -1.
         22    1    3    3    0    0  0.25821044491E+02  0.31710148495E+01  0.86332712407E+00  0.26029348965E+02  0.00000000000E+00 0.  1.
         22    1    3    3    0    0 -0.38752441825E+02 -0.95234711630E+01  0.26640033171E+03  0.26937257653E+03  0.00000000000E+00 0.  1.
</event>
<event>
 7    1  0.5064652E-006  0.7028639E+02  0.7818608E-02  0.1442030E+00
          2   -1    0    0  502    0  0.00000000000E+00  0.00000000000E+00  0.49267400713E+03  0.49267400713E+03  0.00000000000E+00 0. -1.
          1   -1    0    0  501    0 -0.00000000000E+00 -0.00000000000E+00 -0.13733319342E+04  0.13733319342E+04  0.00000000000E+00 0. -1.
         25    2    1    2    0    0 -0.49803584894E+02 -0.91096390991E+02 -0.16409417101E+03  0.23093457184E+03  0.12499971997E+03 0.  0.
          2    1    1    2  501    0  0.24566598867E+02  0.64789035121E+02 -0.11740710655E+04  0.11761139416E+04  0.00000000000E+00 0. -1.
          1    1    1    2  502    0  0.25236986027E+02  0.26307355870E+02  0.45750730942E+03  0.45895742789E+03  0.00000000000E+00 0. -1.
         22    1    3    3    0    0 -0.52291158148E+02 -0.97111032715E+01 -0.65418303979E+01  0.53586064347E+02  0.00000000000E+00 0. -1.
         22    1    3    3    0    0  0.24875732544E+01 -0.81385287720E+02 -0.15755234061E+03  0.17734850749E+03  0.00000000000E+00 0. -1.
</event>
<event>
 7    1  0.5064652E-006  0.6414787E+02  0.7818608E-02  0.1382998E+00
          2   -1    0    0  502    0  0.00000000000E+00  0.00000000000E+00  0.39700783749E+03  0.39700783749E+03  0.00000000000E+00 0. -1.
          1   -1    0    0  501    0 -0.00000000000E+00 -0.00000000000E+00 -0.51872510065E+03  0.51872510065E+03  0.00000000000E+00 0. -1.
         25    2    1    2    0    0  0.27731881948E+02  0.34048581539E+02  0.17127330965E+03  0.21653801678E+03  0.12500321169E+03 0.  0.
          2    1    1    2  501    0 -0.61741705120E+02  0.19243825759E+02 -0.48899201527E+03  0.49324999136E+03  0.00000000000E+00 0. -1.
          1    1    1    2  502    0  0.34009823172E+02 -0.53292407298E+02  0.19600144246E+03  0.20594493000E+03  0.00000000000E+00 0. -1.
         22    1    3    3    0    0  0.63983114509E+02 -0.17680161940E+02  0.11036080320E+03  0.12878638884E+03  0.00000000000E+00 0.  1.
         22    1    3    3    0    0 -0.36251232561E+02  0.51728743479E+02  0.60912506455E+02  0.87751627944E+02  0.00000000000E+00 0.  1.
</event>
<event>
 7    1  0.5064652E-006  0.7628423E+02  0.7818608E-02  0.1344445E+00
          2   -1    0    0  502    0  0.00000000000E+00  0.00000000000E+00  0.62462763031E+03  0.62462763031E+03  0.00000000000E+00 0. -1.
          1   -1    0    0  501    0 -0.00000000000E+00 -0.00000000000E+00 -0.10372361009E+04  0.10372361009E+04  0.00000000000E+00 0. -1.
         25    2    1    2    0    0 -0.45685499995E+02  0.79825820868E+01  0.87687393129E+02  0.15957726454E+03  0.12499975167E+03 0.  0.
          2    1    1    2  501    0  0.32366526812E+02  0.69077436123E+02 -0.99677311587E+03  0.99968791568E+03  0.00000000000E+00 0. -1.
          1    1    1    2  502    0  0.13318973184E+02 -0.77060018209E+02  0.49647725220E+03  0.50259855094E+03  0.00000000000E+00 0. -1.
         22    1    3    3    0    0  0.36798109579E+02 -0.16693570980E+02  0.53259673724E+02  0.66853339676E+02  0.00000000000E+00 0.  1.
         22    1    3    3    0    0 -0.82483609575E+02  0.24676153066E+02  0.34427719405E+02  0.92723924863E+02  0.00000000000E+00 0.  1.
</event>
<event>
 7    1  0.5064652E-006  0.5874751E+02  0.7818608E-02  0.1403893E+00
          2   -1    0    0  502    0  0.00000000000E+00  0.00000000000E+00  0.12845067832E+04  0.12845067832E+04  0.00000000000E+00 0. -1.
          1   -1    0    0  501    0 -0.00000000000E+00 -0.00000000000E+00 -0.56664178283E+03  0.56664178283E+03  0.00000000000E+00 0. -1.
         25    2    1    2    0    0  0.18507197239E+02 -0.11518758524E+03 -0.40342117158E+03  0.43816041173E+03  0.12500083436E+03 0.  0.
          2    1    1    2  501    0 -0.44574796980E+01  0.58240837687E+02 -0.13929339577E+03  0.15104474305E+03  0.00000000000E+00 0. -1.
          1    1    1    2  502    0 -0.14049717541E+02  0.56946747558E+02  0.12605795677E+04  0.12619434112E+04  0.00000000000E+00 0. -1.
         22    1    3    3    0    0 -0.16917872603E+02 -0.12985114744E+03 -0.28399820589E+03  0.31273393780E+03  0.00000000000E+00 0.  1.
         22    1    3    3    0    0  0.35425069841E+02  0.14663562196E+02 -0.11942296569E+03  0.12542647393E+03  0.00000000000E+00 0.  1.
</event>
<event>
 7    1  0.5064652E-006  0.9078941E+02  0.7818608E-02  0.1342218E+00
          2   -1    0    0  502    0  0.00000000000E+00  0.00000000000E+00  0.25666010519E+04  0.25666010519E+04  0.00000000000E+00 0. -1.
          1   -1    0    0  501    0 -0.00000000000E+00 -0.00000000000E+00 -0.29552037301E+02  0.29552037301E+02  0.00000000000E+00 0. -1.
         25    2    1    2    0    0 -0.25618393654E+02  0.55547848129E+02  0.63038859904E+03  0.64556642838E+03  0.12499744849E+03 0.  0.
          2    1    1    2  501    0  0.87475128673E+02 -0.44440497986E+02  0.90941543630E+02  0.13378049318E+03  0.00000000000E+00 0. -1.
          1    1    1    2  502    0 -0.61856735019E+02 -0.11107350142E+02  0.18157188719E+04  0.18168061677E+04  0.00000000000E+00 0. -1.
         22    1    3    3    0    0 -0.14456592775E+02 -0.16696353656E+02  0.17086969964E+02  0.27923571451E+02  0.00000000000E+00 0. -1.
         22    1    3    3    0    0 -0.11161800879E+02  0.72244201785E+02  0.61330162908E+03  0.61764285693E+03  0.00000000000E+00 0. -1.
</event>
<event>
 7    1  0.5064652E-006  0.1395202E+03  0.7818608E-02  0.1305772E+00
          2   -1    0    0  502    0  0.00000000000E+00  0.00000000000E+00  0.34771850067E+04  0.34771850067E+04  0.00000000000E+00 0. -1.
          1   -1    0    0  501    0 -0.00000000000E+00 -0.00000000000E+00 -0.59161511893E+02  0.59161511893E+02  0.00000000000E+00 0. -1.
         25    2    1    2    0    0  0.37690553578E+02 -0.80961479665E+02  0.10389136717E+03  0.18545691135E+03  0.12500204308E+03 0.  0.
          2    1    1    2  501    0  0.45642237988E+02 -0.33343325536E+02  0.30530669049E+02  0.64242610462E+02  0.00000000000E+00 0. -1.
          1    1    1    2  502    0 -0.83332791566E+02  0.11430480520E+03  0.32836014586E+04  0.32866469968E+04  0.00000000000E+00 0. -1.
         22    1    3    3    0    0  0.63795935495E+02 -0.33511614388E+02  0.44191917564E+01  0.72197499544E+02  0.00000000000E+00 0. -1.
         22    1    3    3    0    0 -0.26105381918E+02 -0.47449865277E+02  0.99472175415E+02  0.11325941180E+03  0.00000000000E+00 0. -1.
</event>
<event>
 7    1  0.5064652E-006  0.6423978E+02  0.7818608E-02  0.1419579E+00
          2   -1    0    0  502    0  0.00000000000E+00  0.00000000000E+00  0.60014655554E+03  0.60014655554E+03  0.00000000000E+00 0. -1.
          1   -1    0    0  501    0 -0.00000000000E+00 -0.00000000000E+00 -0.35869736100E+03  0.35869736100E+03  0.00000000000E+00 0. -1.
         25    2    1    2    0    0 -0.29243517720E+02 -0.78726165041E+02 -0.27681553448E+02  0.15311468232E+03  0.12499938060E+03 0.  0.
          2    1    1    2  501    0 -0.15001006347E+02  0.62063731030E+02 -0.26343828519E+03  0.27106579829E+03  0.00000000000E+00 0. -1.
          1    1    1    2  502    0  0.44244524067E+02  0.16662434011E+02  0.53256903318E+03  0.53466343593E+03  0.00000000000E+00 0. -1.
         22    1    3    3    0    0 -0.76552365220E+02 -0.34539333616E+02 -0.27526873107E+02  0.88379629612E+02  0.00000000000E+00 0. -1.
         22    1    3    3    0    0  0.47308847500E+02 -0.44186831425E+02 -0.15468034142E+00  0.64735052708E+02  0.00000000000E+00 0. -1.
</event>
<event>
 7    1  0.5064652E-006  0.5012097E+02  0.7818608E-02  0.1535505E+00
          2   -1    0    0  502    0  0.00000000000E+00  0.00000000000E+00  0.45546875984E+03  0.45546875984E+03  0.00000000000E+00 0. -1.
          1   -1    0    0  501    0 -0.00000000000E+00 -0.00000000000E+00 -0.41554927826E+02  0.41554927826E+02  0.00000000000E+00 0. -1.
         25    2    1    2    0    0  0.23833062353E+01  0.43601335880E+02  0.31728291525E+03  0.34379901087E+03  0.12499021931E+03 0.  0.
          2    1    1    2  501    0 -0.25847941387E+02  0.63197842601E+01 -0.13658612153E+02  0.29910089150E+02  0.00000000000E+00 0. -1.
          1    1    1    2  502    0  0.23464635152E+02 -0.49921120140E+02  0.11028952892E+03  0.12331458765E+03  0.00000000000E+00 0. -1.
         22    1    3    3    0    0 -0.35370990912E+02  0.28620272494E+02  0.29292435144E+03  0.29643701298E+03  0.00000000000E+00 0. -1.
         22    1    3    3    0    0  0.37754297147E+02  0.14981063386E+02  0.24358563815E+02  0.47361997893E+02  0.00000000000E+00 0. -1.
</event>
<event>
 7    1  0.5064652E-006  0.1093052E+03  0.7818608E-02  0.1426186E+00
          2   -1    0    0  502    0  0.00000000000E+00  0.00000000000E+00  0.40028639906E+03  0.40028639906E+03  0.00000000000E+00 0. -1.
          1   -1    0    0  501    0 -0.00000000000E+00 -0.00000000000E+00 -0.91088733338E+03  0.91088733338E+03  0.00000000000E+00 0. -1.
         25    2    1    2    0    0  0.67000073050E+02  0.11755145462E+03  0.17473510797E+03  0.25389928055E+03  0.12500052972E+03 0.  0.
          2    1    1    2  501    0 -0.54170914475E+02 -0.94461519212E+02 -0.86694383179E+03  0.87375572906E+03  0.00000000000E+00 0. -1.
          1    1    1    2  502    0 -0.12829158575E+02 -0.23089935408E+02  0.18160778949E+03  0.18351872284E+03  0.00000000000E+00 0. -1.
         22    1    3    3    0    0  0.16348694662E+02  0.12174349287E+03  0.15853668844E+03  0.20055582628E+03  0.00000000000E+00 0. -1.
         22    1    3    3    0    0  0.50651378389E+02 -0.41920382536E+01  0.16198419532E+02  0.53343454263E+02  0.00000000000E+00 0. -1.
</event>
<event>
 7    1  0.5064652E-006  0.7827072E+02  0.7818608E-02  0.1487804E+00
          2   -1    0    0  502    0  0.00000000000E+00  0.00000000000E+00  0.16964060208E+04  0.16964060208E+04  0.00000000000E+00 0. -1.
          1   -1    0    0  501    0 -0.00000000000E+00 -0.00000000000E+00 -0.18946797869E+02  0.18946797869E+02  0.00000000000E+00 0. -1.
         25    2    1    2    0    0  0.39228204427E+02  0.59387355488E+02  0.83938134962E+03  0.85161710465E+03  0.12499973132E+03 0.  0.
          2    1    1    2  501    0 -0.61230991844E+02 -0.51053310297E+02  0.11308662294E+03  0.13836278091E+03  0.00000000000E+00 0. -1.
          1    1    1    2  502    0  0.22002787418E+02 -0.83340451915E+01  0.72499125035E+03  0.72537293308E+03  0.00000000000E+00 0. -1.
         22    1    3    3    0    0  0.27286234645E+02 -0.12804975883E+02  0.46808044190E+02  0.55673144418E+02  0.00000000000E+00 0.  1.
         22    1    3    3    0    0  0.11941969782E+02  0.72192331371E+02  0.79257330543E+03  0.79594396023E+03  0.00000000000E+00 0.  1.
</event>
<event>
 7    1  0.5064652E-006  0.5998958E+02  0.7818608E-02  0.1502786E+00
          2   -1    0    0  502    0  0.00000000000E+00  0.00000000000E+00  0.33052060764E+03  0.33052060764E+03  0.00000000000E+00 0. -1.
          1   -1    0    0  501    0 -0.00000000000E+00 -0.00000000000E+00 -0.15429168993E+04  0.15429168993E+04  0.00000000000E+00 0. -1.
         25    2    1    2    0    0 -0.36320237212E+02  0.73179284723E+01  0.55557298293E+02  0.14171726214E+03  0.12499782913E+03 0.  0.
          2    1    1    2  501    0 -0.25951584172E+02 -0.96181879374E+01 -0.14955201183E+04  0.14957761926E+04  0.00000000000E+00 0. -1.
          1    1    1    2  502    0  0.62271821384E+02  0.23002594651E+01  0.22756652833E+03  0.23594405216E+03  0.00000000000E+00 0. -1.
         22    1    3    3    0    0 -0.24204326903E+02 -0.35213478565E+02  0.80359423727E+02  0.91013600606E+02  0.00000000000E+00 0.  1.
         22    1    3    3    0    0 -0.12115910309E+02  0.42531407038E+02 -0.24802125434E+02  0.50703661537E+02  0.00000000000E+00 0.  1.
</event>
<event>
 7    1  0.5064652E-006  0.4445527E+02  0.7818608E-02  0.1527949E+00
          2   -1    0    0  502    0  0.00000000000E+00  0.00000000000E+00  0.12562816351E+04  0.12562816351E+04  0.00000000000E+00 0. -1.
          1   -1    0    0  501    0 -0.00000000000E+00 -0.00000000000E+00 -0.77582062074E+03  0.77582062074E+03  0.00000000000E+00 0. -1.
         25    2    1    2    0    0 -0.21300873272E+02  0.67873387963E+01  0.34386854180E+03  0.36656730945E+03  0.12500489249E+03 0.  0.
          2    1    1    2  501    0  0.40658540099E+02  0.18101313716E+02 -0.76354721406E+03  0.76484320128E+03  0.00000000000E+00 0. -1.
          1    1    1    2  502    0 -0.19357666826E+02 -0.24888652512E+02  0.90013968658E+03  0.90069174507E+03  0.00000000000E+00 0. -1.
         22    1    3    3    0    0  0.24867927016E+02 -0.72172554216E+01  0.30074522959E+03  0.30185790646E+03  0.00000000000E+00 0.  1.
         22    1    3    3    0    0 -0.46168800288E+02  0.14004594218E+02  0.43123312211E+02  0.64709402990E+02  0.00000000000E+00 0.  1.
</event>
<event>
 7    1  0.5064652E-006  0.5041198E+02  0.7818608E-02  0.1559496E+00
          2   -1    0    0  502    0  0.00000000000E+00  0.00000000000E+00  0.23216117314E+04  0.23216117314E+04  0.00000000000E+00 0. -1.
          1   -1    0    0  501    0 -0.00000000000E+00 -0.00000000000E+00 -0.44274997254E+03  0.44274997254E+03  0.00000000000E+00 0. -1.
         25    2    1    2    0    0 -0.48843004600E+01  0.29935520673E+02  0.36270019607E+03  0.38483231580E+03  0.12499794905E+03 0.  0.
          2    1    1    2  501    0  0.85954106676E+01  0.20972931977E+02 -0.43105170644E+03  0.43164721543E+03  0.00000000000E+00 0. -1.
          1    1    1    2  502    0 -0.37111102076E+01 -0.50908452650E+02  0.19472132693E+04  0.19478821727E+04  0.00000000000E+00 0. -1.
         22    1    3    3    0    0 -0.34275023962E+02  0.11328046453E+02  0.21817720997E+02  0.42179554924E+02  0.00000000000E+00 0. -1.
         22    1    3    3    0    0  0.29390723502E+02  0.18607474219E+02  0.34088247507E+03  0.34265276088E+03  0.00000000000E+00 0. -1.
</event>
<event>
 7    1  0.5064652E-006  0.9925767E+02  0.7818608E-02  0.1380959E+00
          2   -1    0    0  502    0  0.00000000000E+00  0.00000000000E+00  0.11776985904E+04  0.11776985904E+04  0.00000000000E+00 0. -1.
          1   -1    0    0  501    0 -0.00000000000E+00 -0.00000000000E+00 -0.69220651931E+03  0.69220651931E+03  0.00000000000E+00 0. -1.
         25    2    1    2    0    0 -0.10931296666E+03 -0.84820530999E+02  0.37439505597E+03  0.41825114724E+03  0.12497406561E+03 0.  0.
          2    1    1    2  501    0  0.70933994639E+02  0.68924577472E+02 -0.66607217855E+03  0.67337536042E+03  0.00000000000E+00 0. -1.
          1    1    1    2  502    0  0.38378972016E+02  0.15895953526E+02  0.77716919363E+03  0.77827860202E+03  0.00000000000E+00 0. -1.
         22    1    3    3    0    0 -0.53267426186E+01 -0.24053658385E+02 -0.33816549922E+00  0.24638730172E+02  0.00000000000E+00 0. -1.
         22    1    3    3    0    0 -0.10398622404E+03 -0.60766872614E+02  0.37473322147E+03  0.39361241706E+03  0.00000000000E+00 0. -1.
</event>
<event>
 7    1  0.5064652E-006  0.1134956E+03  0.7818608E-02  0.1430497E+00
          2   -1    0    0  502    0  0.00000000000E+00  0.00000000000E+00  0.65316553777E+03  0.65316553777E+03  0.00000000000E+00 0. -1.
          1   -1    0    0  501    0 -0.00000000000E+00 -0.00000000000E+00 -0.51160706616E+03  0.51160706616E+03  0.00000000000E+00 0. -1.
         25    2    1    2    0    0 -0.39350879811E+02 -0.10555495512E+03 -0.93872301620E+02  0.19268199979E+03  0.12499601489E+03 0.  0.
          2    1    1    2  501    0  0.61940032839E+02  0.95764137628E+02 -0.35924050625E+03  0.37690990840E+03  0.00000000000E+00 0. -1.
          1    1    1    2  502    0 -0.22589153028E+02  0.97908174961E+01  0.59467127948E+03  0.59518069574E+03  0.00000000000E+00 0. -1.
         22    1    3    3    0    0 -0.83946336603E+02 -0.82575071329E+02 -0.71422172200E+02  0.13771984794E+03  0.00000000000E+00 0. -1.
         22    1    3    3    0    0  0.44595456791E+02 -0.22979883796E+02 -0.22450129421E+02  0.54962151856E+02  0.00000000000E+00 0. -1.
</event>
<event>
 7    1  0.5064652E-006  0.5836562E+02  0.7818608E-02  0.1424231E+00
          2   -1    0    0  502    0  0.00000000000E+00  0.00000000000E+00  0.69260409353E+03  0.69260409353E+03  0.00000000000E+00 0. -1.
          1   -1    0    0  501    0 -0.00000000000E+00 -0.00000000000E+00 -0.94541627284E+02  0.94541627284E+02  0.00000000000E+00 0. -1.
         25    2    1    2    0    0  0.23382512320E+02 -0.12544215845E+02  0.22193976786E+03  0.25610490540E+03  0.12501345038E+03 0.  0.
          2    1    1    2  501    0 -0.54075441408E+02 -0.27195040240E+02 -0.63984773376E+02  0.88078231142E+02  0.00000000000E+00 0. -1.
          1    1    1    2  502    0  0.30692929087E+02  0.39739256085E+02  0.44010747176E+03  0.44296258428E+03  0.00000000000E+00 0. -1.
         22    1    3    3    0    0 -0.44406027737E+02  0.91828120545E+01  0.14199855134E+03  0.14906310046E+03  0.00000000000E+00 0. -1.
         22    1    3    3    0    0  0.67788540057E+02 -0.21727027900E+02  0.79941216525E+02  0.10704180494E+03  0.00000000000E+00 0. -1.
</event>
<event>
 7    1  0.5064652E-006  0.3987843E+02  0.7818608E-02  0.1584027E+00
          2   -1    0    0  502    0  0.00000000000E+00  0.00000000000E+00  0.84022195465E+03  0.84022195465E+03  0.00000000000E+00 0. -1.
          1   -1    0    0  501    0 -0.00000000000E+00 -0.00000000000E+00 -0.24024184457E+02  0.24024184457E+02  0.00000000000E+00 0. -1.
         25    2    1    2    0    0 -0.19156785295E+02 -0.10135699866E+02  0.40966073297E+03  0.42885574111E+03  0.12500246283E+03 0.  0.
          2    1    1    2  501    0  0.22975833629E+02  0.34422446110E+02  0.16459461502E+02  0.44538832496E+02  0.00000000000E+00 0. -1.
          1    1    1    2  502    0 -0.38190483343E+01 -0.24286746244E+02  0.39007757573E+03  0.39085156550E+03  0.00000000000E+00 0. -1.
         22    1    3    3    0    0  0.26391763117E+02 -0.40189435885E+01  0.36076825523E+03  0.36175462823E+03  0.00000000000E+00 0.  1.
         22    1    3    3    0    0 -0.45548548412E+02 -0.61167562774E+01  0.48892477742E+02  0.67101112879E+02  0.00000000000E+00 0.  1.
</event>
<event>
 7    1  0.5064652E-006  0.5590722E+02  0.7818608E-02  0.1457002E+00
          2   -1    0    0  502    0  0.00000000000E+00  0.00000000000E+00  0.39012747020E+03  0.39012747020E+03  0.00000000000E+00 0. -1.
          1   -1    0    0  501    0 -0.00000000000E+00 -0.00000000000E+00 -0.21994899837E+03  0.21994899837E+03  0.00000000000E+00 0. -1.
         25    2    1    2    0    0  0.24047699116E+02 -0.33600448443E+01  0.18252414802E+03  0.22255126406E+03  0.12499767514E+03 0.  0.
          2    1    1    2  501    0  0.40908356253E+02  0.33054969019E+01 -0.19207877921E+03  0.19641455482E+03  0.00000000000E+00 0. -1.
          1    1    1    2  502    0 -0.64956055369E+02  0.54547942408E-01  0.17973310302E+03  0.19111064969E+03  0.00000000000E+00 0. -1.
         22    1    3    3    0    0 -0.15985247548E+02 -0.55509587323E+02  0.58699081293E+02  0.82355476858E+02  0.00000000000E+00 0. -1.
         22    1    3    3    0    0  0.40032946664E+02  0.52149542479E+02  0.12382506673E+03  0.14019578720E+03  0.00000000000E+00 0. -1.
</event>
<event>
 7    1  0.5064652E-006  0.5612520E+02  0.7818608E-02  0.1418531E+00
          2   -1    0    0  502    0  0.00000000000E+00  0.00000000000E+00  0.14613161299E+04  0.14613161299E+04  0.00000000000E+00 0. -1.
          1   -1    0    0  501    0 -0.00000000000E+00 -0.00000000000E+00 -0.33727292551E+03  0.33727292551E+03  0.00000000000E+00 0. -1.
         25    2    1    2    0    0 -0.18243020531E+02  0.23291876890E+01  0.40513531939E+03  0.42437867841E+03  0.12499761103E+03 0.  0.
          2    1    1    2  501    0  0.80952264421E+01  0.55538322184E+02 -0.32441524880E+03  0.32923440218E+03  0.00000000000E+00 0. -1.
          1    1    1    2  502    0  0.10147794089E+02 -0.57867509873E+02  0.10433231338E+04  0.10449759748E+04  0.00000000000E+00 0. -1.
         22    1    3    3    0    0  0.28461983005E+02  0.48835494249E+02  0.13575832360E+03  0.14705547390E+03  0.00000000000E+00 0.  1.
         22    1    3    3    0    0 -0.46705003537E+02 -0.46506306560E+02  0.26937699579E+03  0.27732320452E+03  0.00000000000E+00 0.  1.
</event>
<event>
 7    1  0.5064652E-006  0.1936454E+03  0.7818608E-02  0.1282567E+00
          2   -1    0    0  502    0  0.00000000000E+00  0.00000000000E+00  0.16044876379E+04  0.16044876379E+04  0.00000000000E+00 0. -1.
          1   -1    0    0  501    0 -0.00000000000E+00 -0.00000000000E+00 -0.24982816685E+03  0.24982816685E+03  0.00000000000E+00 0. -1.
         25    2    1    2    0    0  0.22376270365E+03 -0.93378106663E+01  0.14869884920E+03  0.29646682864E+03  0.12499716189E+03 0.  0.
          2    1    1    2  501    0 -0.18585329411E+03 -0.24084959906E+02 -0.12542400761E+03  0.22550546315E+03  0.00000000000E+00 0. -1.
          1    1    1    2  502    0 -0.37909409536E+02  0.33422770573E+02  0.13313846294E+04  0.13323435129E+04  0.00000000000E+00 0. -1.
         22    1    3    3    0    0  0.19070478913E+03  0.40109439762E+02  0.97115132947E+02  0.21773477628E+03  0.00000000000E+00 0.  1.
         22    1    3    3    0    0  0.33057914525E+02 -0.49447250428E+02  0.51583716249E+02  0.78732052366E+02  0.00000000000E+00 0.  1.
</event>
<event>
 7    1  0.5064652E-006  0.1327057E+03  0.7818608E-02  0.1395742E+00
          2   -1    0    0  502    0  0.00000000000E+00  0.00000000000E+00  0.15999820946E+04  0.15999820946E+04  0.00000000000E+00 0. -1.
          1   -1    0    0  501    0 -0.00000000000E+00 -0.00000000000E+00 -0.78603435286E+02  0.78603435286E+02  0.00000000000E+00 0. -1.
         25    2    1    2    0    0 -0.12239680347E+03  0.24674703379E+02  0.49412971414E+03  0.52476505227E+03  0.12499746876E+03 0.  0.
          2    1    1    2  501    0 -0.25536926739E+01  0.27463982127E+02 -0.55851191726E+02  0.62290828200E+02  0.00000000000E+00 0. -1.
          1    1    1    2  502    0  0.12495049614E+03 -0.52138685506E+02  0.10831001369E+04  0.10915296494E+04  0.00000000000E+00 0. -1.
         22    1    3    3    0    0 -0.79631406114E+02  0.70068617163E+02  0.22859623602E+03  0.25200597428E+03  0.00000000000E+00 0.  1.
         22    1    3    3    0    0 -0.42765397355E+02 -0.45393913785E+02  0.26553347812E+03  0.27275907799E+03  0.00000000000E+00 0.  1.
</event>
<event>
 7    1  0.5064652E-006  0.9619425E+02  0.7818608E-02  0.1316150E+00
          2   -1    0    0  502    0  0.00000000000E+00  0.00000000000E+00  0.21339164439E+04  0.21339164439E+04  0.00000000000E+00 0. -1.
          1   -1    0    0  501    0 -0.00000000000E+00 -0.00000000000E+00 -0.10519724531E+03  0.10519724531E+03  0.00000000000E+00 0. -1.
         25    2    1    2    0    0  0.92592953999E+00  0.70566729694E+02  0.17159600241E+03  0.22371893829E+03  0.12499781847E+03 0.  0.
          2    1    1    2  501    0  0.73641011468E+02 -0.73517278534E+02 -0.43877928154E+02  0.11292945316E+03  0.00000000000E+00 0. -1.
          1    1    1    2  502    0 -0.74566941008E+02  0.29505488399E+01  0.19010011244E+04  0.19024652978E+04  0.00000000000E+00 0. -1.
         22    1    3    3    0    0  0.52067979860E+02  0.78007377957E+01  0.29963463988E+02  0.60578339454E+02  0.00000000000E+00 0.  1.
         22    1    3    3    0    0 -0.51142050320E+02  0.62765991898E+02  0.14163253842E+03  0.16314059884E+03  0.00000000000E+00 0.  1.
</event>
<event>
 7    1  0.5064652E-006  0.6623951E+02  0.7818608E-02  0.1486782E+00
          2   -1    0    0  502    0  0.00000000000E+00  0.00000000000E+00  0.20835008840E+04  0.20835008840E+04  0.00000000000E+00 0. -1.
          1   -1    0    0  501    0 -0.00000000000E+00 -0.00000000000E+00 -0.22039479624E+02  0.22039479624E+02  0.00000000000E+00 0. -1.
         25    2    1    2    0    0 -0.43926654390E+02 -0.96710836494E+01  0.21433218503E+03  0.25216227447E+03  0.12499778518E+03 0.  0.
          2    1    1    2  501    0 -0.22770053386E+02  0.16296770315E+02  0.76215350903E+02  0.81196303901E+02  0.00000000000E+00 0. -1.
          1    1    1    2  502    0  0.66696707776E+02 -0.66256866657E+01  0.17709138685E+04  0.17721817853E+04  0.00000000000E+00 0. -1.
         22    1    3    3    0    0 -0.39802780212E+01  0.10429265931E+01  0.21059538353E+03  0.21063557600E+03  0.00000000000E+00 0. -1.
         22    1    3    3    0    0 -0.39946376368E+02 -0.10714010243E+02  0.37368014957E+01  0.41526698471E+02  0.00000000000E+00 0. -1.
</event>
<event>
 7    1  0.5064652E-006  0.6256455E+02  0.7818608E-02  0.1415206E+00
          2   -1    0    0  502    0  0.00000000000E+00  0.00000000000E+00  0.71778022123E+03  0.71778022123E+03  0.00000000000E+00 0. -1.
          1   -1    0    0  501    0 -0.00000000000E+00 -0.00000000000E+00 -0.16531992341E+03  0.16531992341E+03  0.00000000000E+00 0. -1.
         25    2    1    2    0    0 -0.38048528247E+02 -0.97407453853E+01  0.46069688074E+03  0.47896597683E+03  0.12499687362E+03 0.  0.
          2    1    1    2  501    0 -0.42959326813E+02  0.25992140182E+02 -0.14495838109E+03  0.15340804203E+03  0.00000000000E+00 0. -1.
          1    1    1    2  502    0  0.81007855060E+02 -0.16251394797E+02  0.23672179818E+03  0.25072612578E+03  0.00000000000E+00 0. -1.
         22    1    3    3    0    0  0.25642296409E+02 -0.32144810036E+02  0.32300449339E+03  0.32561130037E+03  0.00000000000E+00 0. -1.
         22    1    3    3    0    0 -0.63690824656E+02  0.22404064650E+02  0.13769238734E+03  0.15335467645E+03  0.00000000000E+00 0. -1.
</event>
<event>
 7    1  0.5064652E-006  0.8743192E+02  0.7818608E-02  0.1389727E+00
          2   -1    0    0  502    0  0.00000000000E+00  0.00000000000E+00  0.16528198638E+03  0.16528198638E+03  0.00000000000E+00 0. -1.
          1   -1    0    0  501    0 -0.00000000000E+00 -0.00000000000E+00 -0.72657256333E+03  0.72657256333E+03  0.00000000000E+00 0. -1.
         25    2    1    2    0    0 -0.57632966168E+02 -0.33678302348E+02 -0.38350605973E+03  0.40884867076E+03  0.12499820355E+03 0.  0.
          2    1    1    2  501    0  0.12293633915E+02 -0.42174423303E+02 -0.31595403113E+03  0.31899336232E+03  0.00000000000E+00 0. -1.
          1    1    1    2  502    0  0.45339332253E+02  0.75852725651E+02  0.13816951391E+03  0.16401251663E+03  0.00000000000E+00 0. -1.
         22    1    3    3    0    0 -0.13150855227E+02 -0.21824705935E+02 -0.35233163146E+03  0.35325181006E+03  0.00000000000E+00 0.  1.
         22    1    3    3    0    0 -0.44482110940E+02 -0.11853596414E+02 -0.31174428271E+02  0.55596860700E+02  0.00000000000E+00 0.  1.
</event>
<event>
 7    1  0.5064652E-006  0.7531369E+02  0.7818608E-02  0.1403217E+00
          2   -1    0    0  502    0  0.00000000000E+00  0.00000000000E+00  0.49675437719E+03  0.49675437719E+03  0.00000000000E+00 0. -1.
          1   -1    0    0  501    0 -0.00000000000E+00 -0.00000000000E+00 -0.23895934840E+04  0.23895934840E+04  0.00000000000E+00 0. -1.
         25    2    1    2    0    0 -0.47403551220E+02  0.80610707968E+02  0.10814082954E+03  0.18990880489E+03  0.12500292898E+03 0.  0.
          2    1    1    2  501    0  0.64844164270E+02 -0.38254447956E+02 -0.23465946365E+04  0.23478020693E+04  0.00000000000E+00 0. -1.
          1    1    1    2  502    0 -0.17440613050E+02 -0.42356260012E+02  0.34561470016E+03  0.34863698701E+03  0.00000000000E+00 0. -1.
         22    1    3    3    0    0  0.81065973680E+01  0.62203835497E+02  0.11502939361E+03  0.13102211823E+03  0.00000000000E+00 0.  1.
         22    1    3    3    0    0 -0.55510148588E+02  0.18406872471E+02 -0.68885640689E+01  0.58886686656E+02  0.00000000000E+00 0.  1.
</event>
<event>
 7    1  0.5064652E-006  0.1165252E+03  0.7818608E-02  0.1345584E+00
          2   -1    0    0  502    0  0.00000000000E+00  0.00000000000E+00  0.17588199436E+04  0.17588199436E+04  0.00000000000E+00 0. -1.
          1   -1    0    0  501    0 -0.00000000000E+00 -0.00000000000E+00 -0.12820443090E+03  0.12820443090E+03  0.00000000000E+00 0. -1.
         25    2    1    2    0    0 -0.23853582045E+02  0.81789078838E+02 -0.94275374186E+01  0.15157992519E+03  0.12501659276E+03 0.  0.
          2    1    1    2  501    0 -0.45820211612E+02  0.12771559779E+02 -0.33248788863E+02  0.58035217689E+02  0.00000000000E+00 0. -1.
          1    1    1    2  502    0  0.69673793657E+02 -0.94560638617E+02  0.16732918390E+04  0.16774092316E+04  0.00000000000E+00 0. -1.
         22    1    3    3    0    0  0.41585722357E+02  0.56168979378E+01 -0.26623827396E+02  0.49696579677E+02  0.00000000000E+00 0. -1.
         22    1    3    3    0    0 -0.65439304402E+02  0.76172180900E+02  0.17196289978E+02  0.10188334551E+03  0.00000000000E+00 0. -1.
</event>
<event>
 7    1  0.5064652E-006  0.3495749E+02  0.7818608E-02  0.1629658E+00
          2   -1    0    0  502    0  0.00000000000E+00  0.00000000000E+00  0.26447782997E+03  0.26447782997E+03  0.00000000000E+00 0. -1.
          1   -1    0    0  501    0 -0.00000000000E+00 -0.00000000000E+00 -0.26937945361E+03  0.26937945361E+03  0.00000000000E+00 0. -1.
         25    2    1    2    0    0 -0.48703231959E+02  0.26446053388E+02  0.20510856979E+02  0.13826186929E+03  0.12499700277E+03 0.  0.
          2    1    1    2  501    0  0.20028137764E+02 -0.74330552691E+01 -0.20835417148E+03  0.20944650244E+03  0.00000000000E+00 0. -1.
          1    1    1    2  502    0  0.28675094195E+02 -0.19012998119E+02  0.18294169087E+03  0.18614891185E+03  0.00000000000E+00 0. -1.
         22    1    3    3    0    0  0.24806763198E+02  0.52029617963E+02  0.18003003465E+02  0.60386793088E+02  0.00000000000E+00 0. -1.
         22    1    3    3    0    0 -0.73509995157E+02 -0.25583564575E+02  0.25078535138E+01  0.77875076203E+02  0.00000000000E+00 0. -1.
</event>
<event>
 7    1  0.5064652E-006  0.1630944E+03  0.7818608E-02  0.1401449E+00
          2   -1    0    0  502    0  0.00000000000E+00  0.00000000000E+00  0.35326421801E+04  0.35326421801E+04  0.00000000000E+00 0. -1.
          1   -1    0    0  501    0 -0.00000000000E+00 -0.00000000000E+00 -0.22580377122E+03  0.22580377122E+03  0.00000000000E+00 0. -1.
         25    2    1    2    0    0 -0.59833678394E+02  0.16011127305E+03  0.67017905628E+02  0.22210770131E+03  0.12499896991E+03 0.  0.
          2    1    1    2  501    0  0.21374870498E+02 -0.17890203066E+01 -0.14551350801E+03  0.14708591604E+03  0.00000000000E+00 0. -1.
          1    1    1    2  502    0  0.38458807896E+02 -0.15832225274E+03  0.33853340113E+04  0.33892523340E+04  0.00000000000E+00 0. -1.
         22    1    3    3    0    0 -0.92310980825E+02  0.14347190636E+03  0.72195820848E+02  0.18525048352E+03  0.00000000000E+00 0. -1.
         22    1    3    3    0    0  0.32477302431E+02  0.16639366684E+02 -0.51779152201E+01  0.36857217785E+02  0.00000000000E+00 0. -1.
</event>
<event>
 7    1  0.5064652E-006  0.8993291E+02  0.7818608E-02  0.1325609E+00
          2   -1    0    0  502    0  0.00000000000E+00  0.00000000000E+00  0.22814419124E+03  0.22814419124E+03  0.00000000000E+00 0. -1.
          1   -1    0    0  501    0 -0.00000000000E+00 -0.00000000000E+00 -0.10409211160E+04  0.10409211160E+04  0.00000000000E+00 0. -1.
         25    2    1    2    0    0 -0.10542908122E+03 -0.40113956920E+00  0.10452741589E+03  0.19407550299E+03  0.12499547236E+03 0.  0.
          2    1    1    2  501    0  0.65932705566E+02 -0.61420607515E+02 -0.97654645075E+03  0.98069494908E+03  0.00000000000E+00 0. -1.
          1    1    1    2  502    0  0.39496375650E+02  0.61821747084E+02  0.59242110100E+02  0.94294855167E+02  0.00000000000E+00 0. -1.
         22    1    3    3    0    0 -0.59145713719E+02 -0.26448834702E+02  0.12202409183E+03  0.13815800843E+03  0.00000000000E+00 0.  1.
         22    1    3    3    0    0 -0.46283367497E+02  0.26047695133E+02 -0.17496675939E+02  0.55917494557E+02  0.00000000000E+00 0.  1.
</event>
<event>
 7    1  0.5064652E-006  0.1543798E+03  0.7818608E-02  0.1307016E+00
          2   -1    0    0  502    0  0.00000000000E+00  0.00000000000E+00  0.16520892388E+04  0.16520892388E+04  0.00000000000E+00 0. -1.
          1   -1    0    0  501    0 -0.00000000000E+00 -0.00000000000E+00 -0.50916103009E+03  0.50916103009E+03  0.00000000000E+00 0. -1.
         25    2    1    2    0    0 -0.12207498891E+03  0.37183389198E+02 -0.35595564620E+02  0.18214314832E+03  0.12499669960E+03 0.  0.
          2    1    1    2  501    0  0.13654911190E+03 -0.85571907242E+02 -0.38364868414E+03  0.41611840155E+03  0.00000000000E+00 0. -1.
          1    1    1    2  502    0 -0.14474122984E+02  0.48388518043E+02  0.15621724575E+04  0.15629887190E+04  0.00000000000E+00 0. -1.
         22    1    3    3    0    0 -0.73312822231E+02  0.74174300051E+02 -0.55039751997E+02  0.11792358115E+03  0.00000000000E+00 0. -1.
         22    1    3    3    0    0 -0.48762166682E+02 -0.36990910853E+02  0.19444187378E+02  0.64219567174E+02  0.00000000000E+00 0. -1.
</event>
<event>
 7    1  0.5064652E-006  0.5927871E+02  0.7818608E-02  0.1538091E+00
          2   -1    0    0  502    0  0.00000000000E+00  0.00000000000E+00  0.39815648138E+04  0.39815648138E+04  0.00000000000E+00 0. -1.
          1   -1    0    0  501    0 -0.00000000000E+00 -0.00000000000E+00 -0.26049186535E+02  0.26049186535E+02  0.00000000000E+00 0. -1.
         25    2    1    2    0    0  0.22018700697E+02  0.55815382876E+02  0.54183255113E+03  0.55929168632E+03  0.12499798707E+03 0.  0.
          2    1    1    2  501    0  0.18383147047E+02 -0.12305256558E+02 -0.98919720107E+01  0.24232427542E+02  0.00000000000E+00 0. -1.
          1    1    1    2  502    0 -0.40401847744E+02 -0.43510126318E+02  0.34235750482E+04  0.34240898865E+04  0.00000000000E+00 0. -1.
         22    1    3    3    0    0  0.24219996982E+02  0.93159886948E+02  0.31446490976E+03  0.32886707385E+03  0.00000000000E+00 0.  1.
         22    1    3    3    0    0 -0.22012962848E+01 -0.37344504072E+02  0.22736764138E+03  0.23042461247E+03  0.00000000000E+00 0.  1.
</event>
<event>
 7    1  0.5064652E-006  0.3480326E+02  0.7818608E-02  0.1561341E+00
          2   -1    0    0  502    0  0.00000000000E+00  0.00000000000E+00  0.17656235867E+03  0.17656235867E+03  0.00000000000E+00 0. -1.
          1   -1    0    0  501    0 -0.00000000000E+00 -0.00000000000E+00 -0.21539775056E+03  0.21539775056E+03  0.00000000000E+00 0. -1.
         25    2    1    2    0    0 -0.53406329670E+01  0.32261788398E+01  0.76179979119E+02  0.14651725319E+03  0.12499994269E+03 0.  0.
          2    1    1    2  501    0  0.91157832400E+01  0.33588235158E+02 -0.17310361340E+03  0.17656763015E+03  0.00000000000E+00 0. -1.
          1    1    1    2  502    0 -0.37751502731E+01 -0.36814413998E+02  0.58088242392E+02  0.68875225893E+02  0.00000000000E+00 0. -1.
         22    1    3    3    0    0  0.36972009818E+02 -0.32983795872E+02 -0.30865209248E+01  0.49642591708E+02  0.00000000000E+00 0.  1.
         22    1    3    3    0    0 -0.42312642785E+02  0.36209974712E+02  0.79266500044E+02  0.96874661482E+02  0.00000000000E+00 0.  1.
</event>
<event>
 7    1  0.5064652E-006  0.1197415E+03  0.7818608E-02  0.1277745E+00
          2   -1    0    0  502    0  0.00000000000E+00  0.00000000000E+00  0.13374969685E+04  0.13374969685E+04  0.00000000000E+00 0. -1.
          1   -1    0    0  501    0 -0.00000000000E+00 -0.00000000000E+00 -0.30420687648E+03  0.30420687648E+03  0.00000000000E+00 0. -1.
         25    2    1    2    0    0  0.59127278251E+02 -0.19431315966E+03  0.52382862674E+03  0.57556369952E+03  0.12499401167E+03 0.  0.
          2    1    1    2  501    0 -0.29075730928E+02  0.11419503800E+03 -0.26339926665E+03  0.28855688955E+03  0.00000000000E+00 0. -1.
          1    1    1    2  502    0 -0.30051547324E+02  0.80118121659E+02  0.77286073191E+03  0.77758325589E+03  0.00000000000E+00 0. -1.
         22    1    3    3    0    0  0.69667585062E+02 -0.76400996364E+02  0.14098948442E+03  0.17483912425E+03  0.00000000000E+00 0. -1.
         22    1    3    3    0    0 -0.10540306811E+02 -0.11791216329E+03  0.38283914233E+03  0.40072457526E+03  0.00000000000E+00 0. -1.
</event>
<event>
 7    1  0.5064652E-006  0.1169462E+03  0.7818608E-02  0.1418759E+00
          2   -1    0    0  502    0  0.00000000000E+00  0.00000000000E+00  0.64851719902E+03  0.64851719902E+03  0.00000000000E+00 0. -1.
          1   -1    0    0  501    0 -0.00000000000E+00 -0.00000000000E+00 -0.25281917702E+03  0.25281917702E+03  0.00000000000E+00 0. -1.
         25    2    1    2    0    0 -0.90783292653E+02  0.85146682949E+02  0.31288094424E+03  0.35918562730E+03  0.12501306232E+03 0.  0.
          2    1    1    2  501    0  0.24811986456E+02  0.82093566974E+01 -0.21840706675E+03  0.21996516773E+03  0.00000000000E+00 0. -1.
          1    1    1    2  502    0  0.65971306196E+02 -0.93356039647E+02  0.30122414450E+03  0.32218558101E+03  0.00000000000E+00 0. -1.
         22    1    3    3    0    0 -0.56954631555E+02 -0.17157014890E+02  0.17084031991E+03  0.18089944202E+03  0.00000000000E+00 0. -1.
         22    1    3    3    0    0 -0.33828661098E+02  0.10230369784E+03  0.14204062433E+03  0.17828618528E+03  0.00000000000E+00 0. -1.
</event>
<event>
 7    1  0.5064652E-006  0.3022030E+02  0.7818608E-02  0.1638404E+00
          2   -1    0    0  502    0  0.00000000000E+00  0.00000000000E+00  0.54070902836E+03  0.54070902836E+03  0.00000000000E+00 0. -1.
          1   -1    0    0  501    0 -0.00000000000E+00 -0.00000000000E+00 -0.57281298313E+03  0.57281298313E+03  0.00000000000E+00 0. -1.
         25    2    1    2    0    0  0.32188315709E+02 -0.21096686309E+02 -0.29847895933E+03  0.32587699544E+03  0.12499987659E+03 0.  0.
          2    1    1    2  501    0 -0.98883239008E+01  0.28502104598E+02 -0.25949876386E+03  0.26124654516E+03  0.00000000000E+00 0. -1.
          1    1    1    2  502    0 -0.22299991809E+02 -0.74054182885E+01  0.52587376842E+03  0.52639847090E+03  0.00000000000E+00 0. -1.
         22    1    3    3    0    0 -0.12314362959E+02  0.46987429757E+02 -0.93860591060E+02  0.10568477963E+03  0.00000000000E+00 0. -1.
         22    1    3    3    0    0  0.44502678668E+02 -0.68084116066E+02 -0.20461836827E+03  0.22019221581E+03  0.00000000000E+00 0. -1.
</event>
<event>
 7    1  0.5064652E-006  0.9068585E+02  0.7818608E-02  0.1357099E+00
          2   -1    0    0  502    0  0.00000000000E+00  0.00000000000E+00  0.63441239847E+03  0.63441239847E+03  0.00000000000E+00 0. -1.
          1   -1    0    0  501    0 -0.00000000000E+00 -0.00000000000E+00 -0.82829143754E+03  0.82829143754E+03  0.00000000000E+00 0. -1.
         25    2    1    2    0    0  0.37384065283E+02 -0.53577219836E+01  0.77566911198E+02  0.15188178773E+03  0.12500071283E+03 0.  0.
          2    1    1    2  501    0 -0.86656001340E+02  0.30711729962E+02 -0.78697322069E+03  0.79232526339E+03  0.00000000000E+00 0. -1.
          1    1    1    2  502    0  0.49271936057E+02 -0.25354007978E+02  0.51552727042E+03  0.51849678490E+03  0.00000000000E+00 0. -1.
         22    1    3    3    0    0  0.34224763712E+02  0.57268519663E+02  0.29871551454E+02  0.73098066882E+02  0.00000000000E+00 0.  1.
         22    1    3    3    0    0  0.31593015714E+01 -0.62626241647E+02  0.47695359744E+02  0.78783720846E+02  0.00000000000E+00 0.  1.
</event>
<event>
 7    1  0.5064652E-006  0.8538756E+02  0.7818608E-02  0.1411307E+00
          2   -1    0    0  502    0  0.00000000000E+00  0.00000000000E+00  0.26350686927E+03  0.26350686927E+03  0.00000000000E+00 0. -1.
          1   -1    0    0  501    0 -0.00000000000E+00 -0.00000000000E+00 -0.68112647185E+03  0.68112647185E+03  0.00000000000E+00 0. -1.
         25    2    1    2    0    0  0.74087139703E+02 -0.65194649942E+02 -0.53090994155E+02  0.16787815785E+03  0.12500070228E+03 0.  0.
          2    1    1    2  501    0 -0.37790903409E+02  0.76175940297E+02 -0.56569263404E+03  0.57204814698E+03  0.00000000000E+00 0. -1.
          1    1    1    2  502    0 -0.36296236294E+02 -0.10981290355E+02  0.20116402561E+03  0.20470703629E+03  0.00000000000E+00 0. -1.
         22    1    3    3    0    0  0.97008411343E+02 -0.20703524055E+02 -0.63473696223E+01  0.99395960082E+02  0.00000000000E+00 0. -1.
         22    1    3    3    0    0 -0.22921271640E+02 -0.44491125887E+02 -0.46743624533E+02  0.68482197765E+02  0.00000000000E+00 0. -1.
</event>
<event>
 7    1  0.5064652E-006  0.8893522E+02  0.7818608E-02  0.1329578E+00
          2   -1    0    0  502    0  0.00000000000E+00  0.00000000000E+00  0.57192728779E+03  0.57192728779E+03  0.00000000000E+00 0. -1.
          1   -1    0    0  501    0 -0.00000000000E+00 -0.00000000000E+00 -0.78625303265E+03  0.78625303265E+03  0.00000000000E+00 0. -1.
         25    2    1    2    0    0 -0.93764804209E+02 -0.12793277313E+03 -0.61878725317E+02  0.21121232631E+03  0.12499214851E+03 0.  0.
          2    1    1    2  501    0  0.42117266963E+02  0.57938985964E+02 -0.64390216696E+03  0.64787405480E+03  0.00000000000E+00 0. -1.
          1    1    1    2  502    0  0.51647537246E+02  0.69993787166E+02  0.49145514742E+03  0.49909393933E+03  0.00000000000E+00 0. -1.
         22    1    3    3    0    0 -0.94494249577E+02 -0.68181639563E+02  0.10914000189E+02  0.11703424532E+03  0.00000000000E+00 0. -1.
         22    1    3    3    0    0  0.72944536791E+00 -0.59751133567E+02 -0.72792725506E+02  0.94178080994E+02  0.00000000000E+00 0. -1.
</event>
<event>
 7    1  0.5064652E-006  0.2212357E+03  0.7818608E-02  0.1247082E+00
          2   -1    0    0  502    0  0.00000000000E+00  0.00000000000E+00  0.46669285741E+03  0.46669285741E+03  0.00000000000E+00 0. -1.
          1   -1    0    0  501    0 -0.00000000000E+00 -0.00000000000E+00 -0.24047721559E+04  0.24047721559E+04  0.00000000000E+00 0. -1.
         25    2    1    2    0    0 -0.20728399946E+01 -0.24176289547E+03 -0.55410375769E+02  0.27775579361E+03  0.12499750737E+03 0.  0.
          2    1    1    2  501    0  0.57568256716E+02  0.21295104999E+03 -0.22299546944E+04  0.22408391716E+04  0.00000000000E+00 0. -1.
          1    1    1    2  502    0 -0.55495416721E+02  0.28811845487E+02  0.34728577163E+03  0.35287004816E+03  0.00000000000E+00 0. -1.
         22    1    3    3    0    0 -0.32221490948E+02 -0.42127389506E+02 -0.54228781969E+02  0.75853162223E+02  0.00000000000E+00 0.  1.
         22    1    3    3    0    0  0.30148650953E+02 -0.19963550597E+03 -0.11815938008E+01  0.20190263139E+03  0.00000000000E+00 0.  1.
</event>
<event>
 7    1  0.5064652E-006  0.4498995E+02  0.7818608E-02  0.1532026E+00
          2   -1    0    0  502    0  0.00000000000E+00  0.00000000000E+00  0.12008084864E+04  0.12008084864E+04  0.00000000000E+00 0. -1.
          1   -1    0    0  501    0 -0.00000000000E+00 -0.00000000000E+00 -0.66388792418E+03  0.66388792418E+03  0.00000000000E+00 0. -1.
         25    2    1    2    0    0 -0.72311574555E+02  0.20432996997E+02 -0.29929133600E+02  0.14885909332E+03  0.12496721748E+03 0.  0.
          2    1    1    2  501    0  0.28900533253E+02 -0.91975458644E+01 -0.57365263220E+03  0.57445380850E+03  0.00000000000E+00 0. -1.
          1    1    1    2  502    0  0.43411041302E+02 -0.11235451132E+02  0.11405023280E+04  0.11413835087E+04  0.00000000000E+00 0. -1.
         22    1    3    3    0    0 -0.39339964357E+01 -0.36224802382E+02 -0.45929820946E+02  0.58628159512E+02  0.00000000000E+00 0. -1.
         22    1    3    3    0    0 -0.68377578120E+02  0.56657799379E+02  0.16000687347E+02  0.90230933806E+02  0.00000000000E+00 0. -1.
</event>
<event>
 7    1  0.5064652E-006  0.7592096E+02  0.7818608E-02  0.1405393E+00
          2   -1    0    0  502    0  0.00000000000E+00  0.00000000000E+00  0.16391805573E+04  0.16391805573E+04  0.00000000000E+00 0. -1.
          1   -1    0    0  501    0 -0.00000000000E+00 -0.00000000000E+00 -0.10443958878E+04  0.10443958878E+04  0.00000000000E+00 0. -1.
         25    2    1    2    0    0  0.65202168440E+02  0.92306051215E+02  0.83019312569E+02  0.18785410010E+03  0.12500090721E+03 0.  0.
          2    1    1    2  501    0 -0.25959481950E+02 -0.70968960518E+02 -0.99020681255E+03  0.99308610889E+03  0.00000000000E+00 0. -1.
          1    1    1    2  502    0 -0.39242686490E+02 -0.21337090697E+02  0.15019721695E+04  0.15026362361E+04  0.00000000000E+00 0. -1.
         22    1    3    3    0    0  0.97751385151E+02  0.44610546253E+02  0.35783091382E+02  0.11325133008E+03  0.00000000000E+00 0. -1.
         22    1    3    3    0    0 -0.32549216711E+02  0.47695504963E+02  0.47236221187E+02  0.74602770017E+02  0.00000000000E+00 0. -1.
</event>
<event>
 7    1  0.5064652E-006  0.7766087E+02  0.7818608E-02  0.1374033E+00
          2   -1    0    0  502    0  0.00000000000E+00  0.00000000000E+00  0.43451056480E+02  0.43451056480E+02  0.00000000000E+00 0. -1.
          1   -1    0    0  501    0 -0.00000000000E+00 -0.00000000000E+00 -0.21513172434E+04  0.21513172434E+04  0.00000000000E+00 0. -1.
         25    2    1    2    0    0  0.12309922455E+03 -0.73192490667E+01 -0.72624798340E+03  0.74717353304E+03  0.12500065833E+03 0.  0.
          2    1    1    2  501    0 -0.72005525501E+02 -0.16062762511E+02 -0.13889684240E+04  0.13909263428E+04  0.00000000000E+00 0. -1.
          1    1    1    2  502    0 -0.51093699050E+02  0.23382011577E+02  0.73502204972E+01  0.56668424094E+02  0.00000000000E+00 0. -1.
         22    1    3    3    0    0  0.60674288957E+02  0.10673168547E+02 -0.61700298688E+03  0.62007094085E+03  0.00000000000E+00 0.  1.
         22    1    3    3    0    0  0.62424935593E+02 -0.17992417614E+02 -0.10924499652E+03  0.12710259219E+03  0.00000000000E+00 0.  1.
</event>
<event>
 7    1  0.5064652E-006  0.9321857E+02  0.7818608E-02  0.1297697E+00
          2   -1    0    0  502    0  0.00000000000E+00  0.00000000000E+00  0.16599762494E+04  0.16599762494E+04  0.00000000000E+00 0. -1.
          1   -1    0    0  501    0 -0.00000000000E+00 -0.00000000000E+00 -0.15515354571E+03  0.15515354571E+03  0.00000000000E+00 0. -1.
         25    2    1    2    0    0  0.47045025279E+02 -0.46647593008E+02  0.54964247308E+02  0.15177585577E+03  0.12500243828E+03 0.  0.
          2    1    1    2  501    0 -0.80626969375E+02 -0.42450408596E+02 -0.85555795281E+02  0.12499015756E+03  0.00000000000E+00 0. -1.
          1    1    1    2  502    0  0.33581944096E+02  0.89098001603E+02  0.15354142517E+04  0.15383637818E+04  0.00000000000E+00 0. -1.
         22    1    3    3    0    0 -0.34096347322E+02  0.17176190854E+02  0.16826232408E+02  0.41721751282E+02  0.00000000000E+00 0.  1.
         22    1    3    3    0    0  0.81141372601E+02 -0.63823783861E+02  0.38138014900E+02  0.11005410449E+03  0.00000000000E+00 0.  1.
</event>
<event>
 7    1  0.5064652E-006  0.1458873E+03  0.7818608E-02  0.1281830E+00
          2   -1    0    0  502    0  0.00000000000E+00  0.00000000000E+00  0.74039417917E+03  0.74039417917E+03  0.00000000000E+00 0. -1.
          1   -1    0    0  501    0 -0.00000000000E+00 -0.00000000000E+00 -0.38307213382E+04  0.38307213382E+04  0.00000000000E+00 0. -1.
         25    2    1    2    0    0 -0.11274440518E+03  0.13616470273E+03  0.43457247952E+03  0.48552041585E+03  0.12499882831E+03 0.  0.
          2    1    1    2  501    0  0.17184693906E+01 -0.67532285543E+02 -0.37897371273E+04  0.37903391744E+04  0.00000000000E+00 0. -1.
          1    1    1    2  502    0  0.11102593578E+03 -0.68632417192E+02  0.26483748871E+03  0.29525592718E+03  0.00000000000E+00 0. -1.
         22    1    3    3    0    0 -0.56333854517E+02 -0.12306189551E+02  0.11270619541E+03  0.12660028416E+03  0.00000000000E+00 0.  1.
         22    1    3    3    0    0 -0.56410550658E+02  0.14847089229E+03  0.32186628412E+03  0.35892013169E+03  0.00000000000E+00 0.  1.
</event>
<event>
 7    1  0.5064652E-006  0.7722540E+02  0.7818608E-02  0.1392612E+00
          2   -1    0    0  502    0  0.00000000000E+00  0.00000000000E+00  0.52062765542E+03  0.52062765542E+03  0.00000000000E+00 0. -1.
          1   -1    0    0  501    0 -0.00000000000E+00 -0.00000000000E+00 -0.41244744877E+03  0.41244744877E+03  0.00000000000E+00 0. -1.
         25    2    1    2    0    0  0.43968483752E+02  0.65920986733E+02 -0.11247974284E+03  0.18589297514E+03  0.12500280638E+03 0.  0.
          2    1    1    2  501    0  0.28763759442E+02 -0.39171443010E+02 -0.25787427782E+03  0.26241360286E+03  0.00000000000E+00 0. -1.
          1    1    1    2  502    0 -0.72732243194E+02 -0.26749543723E+02  0.47853422730E+03  0.48476852619E+03  0.00000000000E+00 0. -1.
         22    1    3    3    0    0  0.33285512838E+02  0.68531470995E+02 -0.34028949528E+01  0.76263146904E+02  0.00000000000E+00 0.  1.
         22    1    3    3    0    0  0.10682970914E+02 -0.26104842628E+01 -0.10907684788E+03  0.10962982824E+03  0.00000000000E+00 0.  1.
</event>
<event>
 7    1  0.5064652E-006  0.3251717E+03  0.7818608E-02  0.1275492E+00
          2   -1    0    0  502    0  0.00000000000E+00  0.00000000000E+00  0.43960352477E+03  0.43960352477E+03  0.00000000000E+00 0. -1.
          1   -1    0    0  501    0 -0.00000000000E+00 -0.00000000000E+00 -0.11721173873E+04  0.11721173873E+04  0.00000000000E+00 0. -1.
         25    2    1    2    0    0  0.28800217087E+03  0.13061510229E+03  0.14698076221E+03  0.37044963853E+03  0.12499613936E+03 0.  0.
          2    1    1    2  501    0  0.93423640088E+01  0.30811251691E+02 -0.90163546472E+03  0.90221013309E+03  0.00000000000E+00 0. -1.
          1    1    1    2  502    0 -0.29734453488E+03 -0.16142635398E+03  0.22140839972E+02  0.33906114047E+03  0.00000000000E+00 0. -1.
         22    1    3    3    0    0  0.18743203961E+03  0.17193144697E+02  0.74532509028E+02  0.20243880211E+03  0.00000000000E+00 0.  1.
         22    1    3    3    0    0  0.10057013126E+03  0.11342195759E+03  0.72448253178E+02  0.16801083642E+03  0.00000000000E+00 0.  1.
</event>
<event>
 7    1  0.5064652E-006  0.1307631E+03  0.7818608E-02  0.1328566E+00
          2   -1    0    0  502    0  0.00000000000E+00  0.00000000000E+00  0.18210415004E+04  0.18210415004E+04  0.00000000000E+00 0. -1.
          1   -1    0    0  501    0 -0.00000000000E+00 -0.00000000000E+00 -0.12082772291E+04  0.12082772291E+04  0.00000000000E+00 0. -1.
         25    2    1    2    0    0 -0.62409038222E+02  0.85571955601E+02  0.35843036620E+03  0.39409097408E+03  0.12497167999E+03 0.  0.
          2    1    1    2  501    0  0.34929133533E+02 -0.12632619806E+03 -0.11864189993E+04  0.11936366258E+04  0.00000000000E+00 0. -1.
          1    1    1    2  502    0  0.27479904689E+02  0.40754242464E+02  0.14407529044E+04  0.14415911296E+04  0.00000000000E+00 0. -1.
         22    1    3    3    0    0 -0.93258735503E+01  0.57477259233E+02  0.41460680647E+02  0.71481433157E+02  0.00000000000E+00 0. -1.
         22    1    3    3    0    0 -0.53083164672E+02  0.28094696368E+02  0.31696968555E+03  0.32260954092E+03  0.00000000000E+00 0. -1.
</event>
<event>
 7    1  0.5064652E-006  0.3667968E+02  0.7818608E-02  0.1573473E+00
          2   -1    0    0  502    0  0.00000000000E+00  0.00000000000E+00  0.96789995946E+03  0.96789995946E+03  0.00000000000E+00 0. -1.
          1   -1    0    0  501    0 -0.00000000000E+00 -0.00000000000E+00 -0.12536186285E+03  0.12536186285E+03  0.00000000000E+00 0. -1.
         25    2    1    2    0    0  0.81797336308E+01 -0.52347634104E+01  0.33206963038E+03  0.35494919187E+03  0.12499751435E+03 0.  0.
          2    1    1    2  501    0  0.19963120463E+02 -0.20384914465E+02 -0.11154485751E+03  0.11513612010E+03  0.00000000000E+00 0. -1.
          1    1    1    2  502    0 -0.28142854093E+02  0.25619677876E+02  0.62201332373E+03  0.62317651034E+03  0.00000000000E+00 0. -1.
         22    1    3    3    0    0 -0.53779384390E+02  0.18627667404E+01  0.22210827649E+03  0.22853397684E+03  0.00000000000E+00 0. -1.
         22    1    3    3    0    0  0.61959118020E+02 -0.70975301509E+01  0.10996135389E+03  0.12641521503E+03  0.00000000000E+00 0. -1.
</event>
<event>
 7    1  0.5064652E-006  0.1340911E+03  0.7818608E-02  0.1330527E+00
          2   -1    0    0  502    0  0.00000000000E+00  0.00000000000E+00  0.11953641258E+04  0.11953641258E+04  0.00000000000E+00 0. -1.
          1   -1    0    0  501    0 -0.00000000000E+00 -0.00000000000E+00 -0.17339003036E+03  0.17339003036E+03  0.00000000000E+00 0. -1.
         25    2    1    2    0    0  0.59752111716E+02  0.13372352391E+03  0.64015845032E+03  0.66849050074E+03  0.12499764940E+03 0.  0.
          2    1    1    2  501    0 -0.12641304830E+02 -0.13327570681E+03 -0.12980916824E+03  0.18647422549E+03  0.00000000000E+00 0. -1.
          1    1    1    2  502    0 -0.47110806887E+02 -0.44781709889E+00  0.51162481339E+03  0.51378942997E+03  0.00000000000E+00 0. -1.
         22    1    3    3    0    0  0.70523657459E+02  0.14447408630E+03  0.63000876591E+03  0.65019796447E+03  0.00000000000E+00 0. -1.
         22    1    3    3    0    0 -0.10771545743E+02 -0.10750562392E+02  0.10149684409E+02  0.18292536266E+02  0.00000000000E+00 0. -1.
</event>
<event>
 7    1  0.6366246E-006  0.8578340E+02  0.7818608E-02  0.1340138E+00
          2   -1    0    0  502    0  0.00000000000E+00  0.00000000000E+00  0.69067128185E+03  0.69067128185E+03  0.00000000000E+00 0. -1.
          1   -1    0    0  501    0 -0.00000000000E+00 -0.00000000000E+00 -0.16548829439E+04  0.16548829439E+04  0.00000000000E+00 0. -1.
         25    2    1    2    0    0 -0.38299462474E+02  0.10188495376E+02 -0.26593096394E+03  0.29650396823E+03  0.12499868532E+03 0.  0.
          2    1    1    2  501    0  0.49151740860E+02 -0.77033619920E+02 -0.13704425237E+04  0.13734856327E+04  0.00000000000E+00 0. -1.
          1    1    1    2  502    0 -0.10852278386E+02  0.66845124544E+02  0.67216182560E+03  0.67556462490E+03  0.00000000000E+00 0. -1.
         22    1    3    3    0    0 -0.39051454235E+02  0.63930828581E+02 -0.18228174408E+03  0.19707562291E+03  0.00000000000E+00 0.  1.
         22    1    3    3    0    0  0.75199176111E+00 -0.53742333205E+02 -0.83649219856E+02  0.99428345317E+02  0.00000000000E+00 0.  1.
</event>
<event>
 7    1  0.5064652E-006  0.8360458E+02  0.7818608E-02  0.1348983E+00
          2   -1    0    0  502    0  0.00000000000E+00  0.00000000000E+00  0.26677494601E+04  0.26677494601E+04  0.00000000000E+00 0. -1.
          1   -1    0    0  501    0 -0.00000000000E+00 -0.00000000000E+00 -0.55110322168E+03  0.55110322168E+03  0.00000000000E+00 0. -1.
         25    2    1    2    0    0 -0.75216401557E+01  0.13557737099E+03  0.44745980774E+03  0.48402985156E+03  0.12500727607E+03 0.  0.
          2    1    1    2  501    0  0.33050936676E+02 -0.76459647005E+02 -0.52908829836E+03  0.53560514327E+03  0.00000000000E+00 0. -1.
          1    1    1    2  502    0 -0.25529296521E+02 -0.59117723986E+02  0.21982747290E+04  0.21992176869E+04  0.00000000000E+00 0. -1.
         22    1    3    3    0    0  0.13354496144E+02  0.12413686860E+03  0.20236166946E+03  0.23777836314E+03  0.00000000000E+00 0. -1.
         22    1    3    3    0    0 -0.20876136300E+02  0.11440502392E+02  0.24509813828E+03  0.24625148842E+03  0.00000000000E+00 0. -1.
</event>
<event>
 7    1  0.5064652E-006  0.1107492E+03  0.7818608E-02  0.1329457E+00
          2   -1    0    0  502    0  0.00000000000E+00  0.00000000000E+00  0.99797897643E+03  0.99797897643E+03  0.00000000000E+00 0. -1.
          1   -1    0    0  501    0 -0.00000000000E+00 -0.00000000000E+00 -0.35584602686E+03  0.35584602686E+03  0.00000000000E+00 0. -1.
         25    2    1    2    0    0  0.15894168723E+03 -0.13768534141E+02  0.44555570286E+03  0.48948842094E+03  0.12500798939E+03 0.  0.
          2    1    1    2  501    0 -0.10473788808E+03  0.33201992949E+02 -0.32320704427E+03  0.34137251062E+03  0.00000000000E+00 0. -1.
          1    1    1    2  502    0 -0.54203799148E+02 -0.19433458808E+02  0.51978429099E+03  0.52296407173E+03  0.00000000000E+00 0. -1.
         22    1    3    3    0    0  0.11499299938E+03 -0.67439948814E+02  0.29263451011E+03  0.32156879996E+03  0.00000000000E+00 0.  1.
         22    1    3    3    0    0  0.43948687841E+02  0.53671414673E+02  0.15292119275E+03  0.16791962098E+03  0.00000000000E+00 0.  1.
</event>
<event>
 7    1  0.5064652E-006  0.9537136E+02  0.7818608E-02  0.1408156E+00
          2   -1    0    0  502    0  0.00000000000E+00  0.00000000000E+00  0.92337603224E+03  0.92337603224E+03  0.00000000000E+00 0. -1.
          1   -1    0    0  501    0 -0.00000000000E+00 -0.00000000000E+00 -0.13647786947E+04  0.13647786947E+04  0.00000000000E+00 0. -1.
         25    2    1    2    0    0 -0.10681528256E+03 -0.20419178115E+02  0.17077720499E+03  0.23793991043E+03  0.12499639918E+03 0.  0.
          2    1    1    2  501    0  0.12982506937E+02  0.32284012938E+02 -0.13278581597E+04  0.13283140048E+04  0.00000000000E+00 0. -1.
          1    1    1    2  502    0  0.93832775621E+02 -0.11864834822E+02  0.71567829222E+03  0.72190081177E+03  0.00000000000E+00 0. -1.
         22    1    3    3    0    0 -0.80890038085E+01 -0.58996407279E+02  0.66131357798E+02  0.88990811540E+02  0.00000000000E+00 0.  1.
         22    1    3    3    0    0 -0.98726278750E+02  0.38577229163E+02  0.10464584719E+03  0.14894909889E+03  0.00000000000E+00 0.  1.
</event>
<event>
 7    1  0.5064652E-006  0.1726365E+03  0.7818608E-02  0.1298456E+00
          2   -1    0    0  502    0  0.00000000000E+00  0.00000000000E+00  0.17913499402E+04  0.17913499402E+04  0.00000000000E+00 0. -1.
          1   -1    0    0  501    0 -0.00000000000E+00 -0.00000000000E+00 -0.13797955120E+04  0.13797955120E+04  0.00000000000E+00 0. -1.
         25    2    1    2    0    0  0.20265662337E+03 -0.86304181787E+02 -0.10392190089E+03  0.27375561864E+03  0.12499703380E+03 0.  0.
          2    1    1    2  501    0 -0.46124067796E+02  0.16112872550E+02 -0.11861410639E+04  0.11871468645E+04  0.00000000000E+00 0. -1.
          1    1    1    2  502    0 -0.15653255557E+03  0.70191309237E+02  0.17016173931E+04  0.17102429691E+04  0.00000000000E+00 0. -1.
         22    1    3    3    0    0  0.32485571543E+02 -0.74036251903E+02 -0.18438611896E+02  0.82925637549E+02  0.00000000000E+00 0.  1.
         22    1    3    3    0    0  0.17017105183E+03 -0.12267929884E+02 -0.85483288999E+02  0.19082998109E+03  0.00000000000E+00 0.  1.
</event>
<event>
 7    1  0.5064652E-006  0.1401125E+03  0.7818608E-02  0.1338756E+00
          2   -1    0    0  502    0  0.00000000000E+00  0.00000000000E+00  0.18461964766E+04  0.18461964766E+04  0.00000000000E+00 0. -1.
          1   -1    0    0  501    0 -0.00000000000E+00 -0.00000000000E+00 -0.50354338971E+02  0.50354338971E+02  0.00000000000E+00 0. -1.
         25    2    1    2    0    0  0.12280184368E+03 -0.32383359284E+02  0.80827513030E+03  0.82768422336E+03  0.12499405013E+03 0.  0.
          2    1    1    2  501    0 -0.14280071977E+03 -0.45058372354E+01  0.86903422389E+02  0.16722605347E+03  0.00000000000E+00 0. -1.
          1    1    1    2  502    0  0.19998876096E+02  0.36889196520E+02  0.90066358490E+03  0.90164053870E+03  0.00000000000E+00 0. -1.
         22    1    3    3    0    0  0.57343458411E+00  0.23254239352E+02  0.30280303986E+02  0.38183573491E+02  0.00000000000E+00 0.  1.
         22    1    3    3    0    0  0.12222840909E+03 -0.55637598636E+02  0.77799482632E+03  0.78950064987E+03  0.00000000000E+00 0.  1.
</event>
<event>
 7    1  0.5064652E-006  0.9774197E+02  0.7818608E-02  0.1344553E+00
          2   -1    0    0  502    0  0.00000000000E+00  0.00000000000E+00  0.14225981934E+04  0.14225981934E+04  0.00000000000E+00 0. -1.
          1   -1    0    0  501    0 -0.00000000000E+00 -0.00000000000E+00 -0.31308555099E+03  0.31308555099E+03  0.00000000000E+00 0. -1.
         25    2    1    2    0    0  0.10259037394E+03  0.10774752309E+03 -0.13930239799E+03  0.23909070932E+03  0.12499958256E+03 0.  0.
          2    1    1    2  501    0 -0.22388953135E+02 -0.52650266523E+02 -0.11545717495E+03  0.12885524838E+03  0.00000000000E+00 0. -1.
          1    1    1    2  502    0 -0.80201420800E+02 -0.55097256565E+02  0.13642722154E+04  0.13677377867E+04  0.00000000000E+00 0. -1.
         22    1    3    3    0    0  0.44602701621E+02  0.18468738559E+02 -0.12204151290E+03  0.13124262328E+03  0.00000000000E+00 0.  1.
         22    1    3    3    0    0  0.57987672315E+02  0.89278784528E+02 -0.17260885090E+02  0.10784808604E+03  0.00000000000E+00 0.  1.
</event>
<event>
 7    1  0.5064652E-006  0.6872039E+02  0.7818608E-02  0.1446339E+00
          2   -1    0    0  502    0  0.00000000000E+00  0.00000000000E+00  0.21740372903E+04  0.21740372903E+04  0.00000000000E+00 0. -1.
          1   -1    0    0  501    0 -0.00000000000E+00 -0.00000000000E+00 -0.24042019602E+02  0.24042019602E+02  0.00000000000E+00 0. -1.
         25    2    1    2    0    0  0.60306362881E+01 -0.56306232771E+02  0.29801817045E+03  0.32809498322E+03  0.12499891069E+03 0.  0.
          2    1    1    2  501    0 -0.40853110781E+02  0.65867733199E+02  0.16164923207E+03  0.17927077053E+03  0.00000000000E+00 0. -1.
          1    1    1    2  502    0  0.34822474493E+02 -0.95615004271E+01  0.16903278682E+04  0.16907135562E+04  0.00000000000E+00 0. -1.
         22    1    3    3    0    0  0.48594332922E+02  0.66155935530E+01  0.56022447837E+02  0.74455959680E+02  0.00000000000E+00 0.  1.
         22    1    3    3    0    0 -0.42563696634E+02 -0.62921826325E+02  0.24199572262E+03  0.25363902354E+03  0.00000000000E+00 0.  1.
</event>
<event>
 7    1  0.5064652E-006  0.1787860E+03  0.7818608E-02  0.1284478E+00
          2   -1    0    0  502    0  0.00000000000E+00  0.00000000000E+00  0.15138098428E+04  0.15138098428E+04  0.00000000000E+00 0. -1.
          1   -1    0    0  501    0 -0.00000000000E+00 -0.00000000000E+00 -0.33424780154E+03  0.33424780154E+03  0.00000000000E+00 0. -1.
         25    2    1    2    0    0  0.16980393834E+03  0.13111688429E+03  0.74334864106E+03  0.78372028475E+03  0.12500107098E+03 0.  0.
          2    1    1    2  501    0 -0.15954364181E+03 -0.78346199964E+02 -0.28783729762E+03  0.33829367507E+03  0.00000000000E+00 0. -1.
          1    1    1    2  502    0 -0.10260296531E+02 -0.52770684331E+02  0.72405069784E+03  0.72604368454E+03  0.00000000000E+00 0. -1.
         22    1    3    3    0    0  0.14990482827E+03  0.41420981361E+02  0.49874803010E+03  0.52243349123E+03  0.00000000000E+00 0. -1.
         22    1    3    3    0    0  0.19899110066E+02  0.89695902933E+02  0.24460061096E+03  0.26128679352E+03  0.00000000000E+00 0. -1.
</event>
<event>
 7    1  0.5064652E-006  0.2183932E+03  0.7818608E-02  0.1352557E+00
          2   -1    0    0  502    0  0.00000000000E+00  0.00000000000E+00  0.16221005003E+04  0.16221005003E+04  0.00000000000E+00 0. -1.
          1   -1    0    0  501    0 -0.00000000000E+00 -0.00000000000E+00 -0.80657838110E+03  0.80657838110E+03  0.00000000000E+00 0. -1.
         25    2    1    2    0    0  0.18292067317E+03  0.11290267183E+03  0.81776235089E+02  0.26176455017E+03  0.12500536436E+03 0.  0.
          2    1    1    2  501    0 -0.19760795443E+03 -0.94033031169E+02 -0.69977406449E+03  0.73319496447E+03  0.00000000000E+00 0. -1.
          1    1    1    2  502    0  0.14687281254E+02 -0.18869640659E+02  0.14335199486E+04  0.14337193668E+04  0.00000000000E+00 0. -1.
         22    1    3    3    0    0  0.81495946937E+02  0.92228894742E+02  0.97565916921E+02  0.15705688949E+03  0.00000000000E+00 0. -1.
         22    1    3    3    0    0  0.10142472624E+03  0.20673777085E+02 -0.15789681832E+02  0.10470766067E+03  0.00000000000E+00 0. -1.
</event>
<event>
 7    1  0.5064652E-006  0.7620148E+02  0.7818608E-02  0.1352673E+00
          2   -1    0    0  502    0  0.00000000000E+00  0.00000000000E+00  0.16501244634E+04  0.16501244634E+04  0.00000000000E+00 0. -1.
          1   -1    0    0  501    0 -0.00000000000E+00 -0.00000000000E+00 -0.15626085897E+03  0.15626085897E+03  0.00000000000E+00 0. -1.
         25    2    1    2    0    0  0.71331616153E+02  0.37506652953E+02  0.93256857649E+03  0.94435463214E+03  0.12500629148E+03 0.  0.
          2    1    1    2  501    0 -0.69932762223E+02  0.30942882722E+02 -0.13886607664E+03  0.15853025094E+03  0.00000000000E+00 0. -1.
          1    1    1    2  502    0 -0.13988539298E+01 -0.68449535674E+02  0.70016110457E+03  0.70350043929E+03  0.00000000000E+00 0. -1.
         22    1    3    3    0    0  0.29565276820E+02 -0.36545164025E+02  0.15029215621E+03  0.15747186043E+03  0.00000000000E+00 0.  1.
         22    1    3    3    0    0  0.41766339332E+02  0.74051816978E+02  0.78227642027E+03  0.78688277171E+03  0.00000000000E+00 0.  1.
</event>
<event>
 7    1  0.5064652E-006  0.7680968E+02  0.7818608E-02  0.1368028E+00
          2   -1    0    0  502    0  0.00000000000E+00  0.00000000000E+00  0.12329894446E+03  0.12329894446E+03  0.00000000000E+00 0. -1.
          1   -1    0    0  501    0 -0.00000000000E+00 -0.00000000000E+00 -0.34125665542E+03  0.34125665542E+03  0.00000000000E+00 0. -1.
         25    2    1    2    0    0  0.11385448114E+03  0.67888600992E+02 -0.20493542050E+03  0.27421732467E+03  0.12499963822E+03 0.  0.
          2    1    1    2  501    0 -0.51061067788E+02 -0.30939498873E+02 -0.74175057575E+02  0.95217773553E+02  0.00000000000E+00 0. -1.
          1    1    1    2  502    0 -0.62793413350E+02 -0.36949102120E+02  0.61152767121E+02  0.95120501650E+02  0.00000000000E+00 0. -1.
         22    1    3    3    0    0  0.29241204137E+02  0.81956919101E+02 -0.59644122497E+02  0.10549599972E+03  0.00000000000E+00 0. -1.
         22    1    3    3    0    0  0.84613277001E+02 -0.14068318109E+02 -0.14529129801E+03  0.16872132496E+03  0.00000000000E+00 0. -1.
</event>
<event>
 7    1  0.5064652E-006  0.5446678E+02  0.7818608E-02  0.1452369E+00
          2   -1    0    0  502    0  0.00000000000E+00  0.00000000000E+00  0.20231185154E+03  0.20231185154E+03  0.00000000000E+00 0. -1.
          1   -1    0    0  501    0 -0.00000000000E+00 -0.00000000000E+00 -0.66576546407E+03  0.66576546407E+03  0.00000000000E+00 0. -1.
         25    2    1    2    0    0  0.23356376770E+02  0.34435292670E+02  0.74672584184E+02  0.15142442293E+03  0.12498820470E+03 0.  0.
          2    1    1    2  501    0 -0.54619180602E+02 -0.40734931476E+01 -0.62079188399E+03  0.62320334680E+03  0.00000000000E+00 0. -1.
          1    1    1    2  502    0  0.31262803832E+02 -0.30361799523E+02  0.82665687269E+02  0.93449545881E+02  0.00000000000E+00 0. -1.
         22    1    3    3    0    0 -0.10358769746E+02 -0.26476977063E+02 -0.19379720245E+02  0.34407963930E+02  0.00000000000E+00 0.  1.
         22    1    3    3    0    0  0.33715146516E+02  0.60912269733E+02  0.94052304429E+02  0.11701645900E+03  0.00000000000E+00 0.  1.
</event>
<event>
 7    1  0.5064652E-006  0.4531865E+02  0.7818608E-02  0.1487931E+00
          2   -1    0    0  502    0  0.00000000000E+00  0.00000000000E+00  0.82804384172E+03  0.82804384172E+03  0.00000000000E+00 0. -1.
          1   -1    0    0  501    0 -0.00000000000E+00 -0.00000000000E+00 -0.97860537463E+02  0.97860537463E+02  0.00000000000E+00 0. -1.
         25    2    1    2    0    0  0.57790893012E+02  0.35188293545E+00  0.61442242309E+02  0.15080219364E+03  0.12500496522E+03 0.  0.
          2    1    1    2  501    0 -0.25147912335E+02 -0.31873909251E+02 -0.44604227043E+02  0.60315011862E+02  0.00000000000E+00 0. -1.
          1    1    1    2  502    0 -0.32642980677E+02  0.31522026316E+02  0.71334528899E+03  0.71478717368E+03  0.00000000000E+00 0. -1.
         22    1    3    3    0    0 -0.25595322359E+02 -0.39265674907E+01  0.62122660324E+02  0.67303516882E+02  0.00000000000E+00 0. -1.
         22    1    3    3    0    0  0.83386215372E+02  0.42784504261E+01 -0.68041801561E+00  0.83498676760E+02  0.00000000000E+00 0. -1.
</event>
<event>
 7    1  0.5064652E-006  0.6760929E+02  0.7818608E-02  0.1432981E+00
          2   -1    0    0  502    0  0.00000000000E+00  0.00000000000E+00  0.11349746208E+03  0.11349746208E+03  0.00000000000E+00 0. -1.
          1   -1    0    0  501    0 -0.00000000000E+00 -0.00000000000E+00 -0.11696487488E+04  0.11696487488E+04  0.00000000000E+00 0. -1.
         25    2    1    2    0    0 -0.90555193579E+01  0.49467536483E+02  0.56590178151E+02  0.14613704313E+03  0.12499819004E+03 0.  0.
          2    1    1    2  501    0  0.49503795969E+02 -0.46462322970E+02 -0.10866787894E+04  0.10887975775E+04  0.00000000000E+00 0. -1.
          1    1    1    2  502    0 -0.40448276611E+02 -0.30052135131E+01 -0.26062675469E+02  0.48211590325E+02  0.00000000000E+00 0. -1.
         22    1    3    3    0    0  0.13741274144E+02 -0.90352916980E+01  0.78065106101E+02  0.79778567935E+02  0.00000000000E+00 0. -1.
         22    1    3    3    0    0 -0.22796793502E+02  0.58502828181E+02 -0.21474927950E+02  0.66358475190E+02  0.00000000000E+00 0. -1.
</event>
<event>
 7    1  0.5064652E-006  0.1942574E+03  0.7818608E-02  0.1241434E+00
          2   -1    0    0  502    0  0.00000000000E+00  0.00000000000E+00  0.14605777903E+04  0.14605777903E+04  0.00000000000E+00 0. -1.
          1   -1    0    0  501    0 -0.00000000000E+00 -0.00000000000E+00 -0.86970491186E+03  0.86970491186E+03  0.00000000000E+00 0. -1.
         25    2    1    2    0    0  0.17779325205E+03  0.15874114562E+03  0.80330864456E+03  0.84719496470E+03  0.12500135199E+03 0.  0.
          2    1    1    2  501    0 -0.31399228691E+02 -0.68536015013E+02 -0.83439621066E+03  0.83779480380E+03  0.00000000000E+00 0. -1.
          1    1    1    2  502    0 -0.14639402336E+03 -0.90205130604E+02  0.62196044449E+03  0.64529293361E+03  0.00000000000E+00 0. -1.
         22    1    3    3    0    0  0.18517252310E+02  0.38105207728E+02  0.34012906070E+03  0.34275745568E+03  0.00000000000E+00 0.  1.
         22    1    3    3    0    0  0.15927599974E+03  0.12063593789E+03  0.46317958385E+03  0.50443750902E+03  0.00000000000E+00 0.  1.
</event>
<event>
 7    1  0.5064652E-006  0.9512872E+02  0.7818608E-02  0.1299464E+00
          2   -1    0    0  502    0  0.00000000000E+00  0.00000000000E+00  0.59217960420E+03  0.59217960420E+03  0.00000000000E+00 0. -1.
          1   -1    0    0  501    0 -0.00000000000E+00 -0.00000000000E+00 -0.19560692932E+03  0.19560692932E+03  0.00000000000E+00 0. -1.
         25    2    1    2    0    0 -0.39714084833E+01 -0.39796512467E+02 -0.43342498016E+02  0.13816689723E+03  0.12494792862E+03 0.  0.
          2    1    1    2  501    0 -0.18676658958E+02  0.13218990156E+03 -0.55920127985E+02  0.14474131538E+03  0.00000000000E+00 0. -1.
          1    1    1    2  502    0  0.22648067441E+02 -0.92393389097E+02  0.49583530088E+03  0.50487832089E+03  0.00000000000E+00 0. -1.
         22    1    3    3    0    0 -0.57690294864E+00  0.40452409204E+02  0.10091510311E+02  0.41696148596E+02  0.00000000000E+00 0.  1.
         22    1    3    3    0    0 -0.33945055346E+01 -0.80248921670E+02 -0.53434008327E+02  0.96470748639E+02  0.00000000000E+00 0.  1.
</event>
<event>
 7    1  0.5064652E-006  0.4221779E+02  0.7818608E-02  0.1495726E+00
          2   -1    0    0  502    0  0.00000000000E+00  0.00000000000E+00  0.19719597450E+02  0.19719597450E+02  0.00000000000E+00 0. -1.
          1   -1    0    0  501    0 -0.00000000000E+00 -0.00000000000E+00 -0.13040349701E+04  0.13040349701E+04  0.00000000000E+00 0. -1.
         25    2    1    2    0    0  0.40384757308E+00  0.80231967643E+01 -0.30630555108E+03  0.33092596549E+03  0.12499747693E+03 0.  0.
          2    1    1    2  501    0  0.41778802991E+02 -0.97453314542E+01 -0.92043337683E+03  0.92143260255E+03  0.00000000000E+00 0. -1.
          1    1    1    2  502    0 -0.42182650564E+02  0.17221346899E+01 -0.57576444768E+02  0.71395999528E+02  0.00000000000E+00 0. -1.
         22    1    3    3    0    0  0.41897592735E+02 -0.35882441247E+02 -0.83500791304E+02  0.10007667068E+03  0.00000000000E+00 0. -1.
         22    1    3    3    0    0 -0.41493745162E+02  0.43905638011E+02 -0.22280475977E+03  0.23084929481E+03  0.00000000000E+00 0. -1.
</event>
<event>
 7    1  0.5064652E-006  0.4821175E+02  0.7818608E-02  0.1532154E+00
          2   -1    0    0  502    0  0.00000000000E+00  0.00000000000E+00  0.15559494618E+04  0.15559494618E+04  0.00000000000E+00 0. -1.
          1   -1    0    0  501    0 -0.00000000000E+00 -0.00000000000E+00 -0.77940654208E+03  0.77940654208E+03  0.00000000000E+00 0. -1.
         25    2    1    2    0    0  0.30707339282E+00  0.67679205605E+02 -0.18169388044E+03  0.23065944580E+03  0.12494216495E+03 0.  0.
          2    1    1    2  501    0  0.16900115096E+02 -0.22672484273E+02 -0.57250181372E+03  0.57319977508E+03  0.00000000000E+00 0. -1.
          1    1    1    2  502    0 -0.17207188489E+02 -0.45006721332E+02  0.15307386139E+04  0.15314967830E+04  0.00000000000E+00 0. -1.
         22    1    3    3    0    0 -0.27432015212E+02 -0.28708960493E+02 -0.34862444177E+02  0.52840419048E+02  0.00000000000E+00 0. -1.
         22    1    3    3    0    0  0.27739088605E+02  0.96388166098E+02 -0.14683143626E+03  0.17781902675E+03  0.00000000000E+00 0. -1.
</event>
<event>
 7    1  0.5064652E-006  0.7165639E+02  0.7818608E-02  0.1449860E+00
          2   -1    0    0  502    0  0.00000000000E+00  0.00000000000E+00  0.26207787191E+04  0.26207787191E+04  0.00000000000E+00 0. -1.
          1   -1    0    0  501    0 -0.00000000000E+00 -0.00000000000E+00 -0.19216921720E+02  0.19216921720E+02  0.00000000000E+00 0. -1.
         25    2    1    2    0    0  0.84874242495E+02  0.55504787671E+01  0.11551325843E+04  0.11649853562E+04  0.12500059177E+03 0.  0.
          2    1    1    2  501    0 -0.18386061826E+02 -0.28293552416E+02  0.77568971601E+01  0.34622851288E+02  0.00000000000E+00 0. -1.
          1    1    1    2  502    0 -0.66488180670E+02  0.22743073649E+02  0.14386723159E+04  0.14403874334E+04  0.00000000000E+00 0. -1.
         22    1    3    3    0    0  0.10958481231E+01  0.54175488324E+02  0.39060531789E+03  0.39434591260E+03  0.00000000000E+00 0.  1.
         22    1    3    3    0    0  0.83778394372E+02 -0.48625009556E+02  0.76452726642E+03  0.77063944359E+03  0.00000000000E+00 0.  1.
</event>
<event>
 7    1  0.5064652E-006  0.1183951E+03  0.7818608E-02  0.1327783E+00
          2   -1    0    0  502    0  0.00000000000E+00  0.00000000000E+00  0.21496038153E+03  0.21496038153E+03  0.00000000000E+00 0. -1.
          1   -1    0    0  501    0 -0.00000000000E+00 -0.00000000000E+00 -0.16732060576E+04  0.16732060576E+04  0.00000000000E+00 0. -1.
         25    2    1    2    0    0 -0.11460796096E+03  0.12476430144E+01 -0.34161323805E+03  0.38140168392E+03  0.12502439264E+03 0.  0.
          2    1    1    2  501    0  0.89597028657E+01  0.53925032757E+02 -0.12928608609E+04  0.12940159934E+04  0.00000000000E+00 0. -1.
          1    1    1    2  502    0  0.10564825809E+03 -0.55172675771E+02  0.17622842294E+03  0.21274876179E+03  0.00000000000E+00 0. -1.
         22    1    3    3    0    0 -0.77550981921E+02 -0.49823410247E+02 -0.12202132494E+03  0.15292393778E+03  0.00000000000E+00 0.  1.
         22    1    3    3    0    0 -0.37056979039E+02  0.51071053261E+02 -0.21959191311E+03  0.22847774614E+03  0.00000000000E+00 0.  1.
</event>
<event>
 7    1  0.5064652E-006  0.9020395E+02  0.7818608E-02  0.1306494E+00
          2   -1    0    0  502    0  0.00000000000E+00  0.00000000000E+00  0.38751968399E+03  0.38751968399E+03  0.00000000000E+00 0. -1.
          1   -1    0    0  501    0 -0.00000000000E+00 -0.00000000000E+00 -0.15587146314E+04  0.15587146314E+04  0.00000000000E+00 0. -1.
         25    2    1    2    0    0 -0.36510371608E+01 -0.38451822481E+02 -0.10792677104E+03  0.16960341950E+03  0.12500103710E+03 0.  0.
          2    1    1    2  501    0 -0.83018397274E+02  0.44099848979E+02 -0.14130773293E+04  0.14162006883E+04  0.00000000000E+00 0. -1.
          1    1    1    2  502    0  0.86669434434E+02 -0.56480264980E+01  0.34980915293E+03  0.36043020759E+03  0.00000000000E+00 0. -1.
         22    1    3    3    0    0  0.56755156214E+02 -0.16213701302E+02 -0.80045173227E+02  0.99454822024E+02  0.00000000000E+00 0.  1.
         22    1    3    3    0    0 -0.60406193375E+02 -0.22238121179E+02 -0.27881597815E+02  0.70148597480E+02  0.00000000000E+00 0.  1.
</event>
<event>
 7    1  0.5064652E-006  0.7357257E+03  0.7818608E-02  0.1185333E+00
          2   -1    0    0  502    0  0.00000000000E+00  0.00000000000E+00  0.85866806512E+03  0.85866806512E+03  0.00000000000E+00 0. -1.
          1   -1    0    0  501    0 -0.00000000000E+00 -0.00000000000E+00 -0.22405489932E+04  0.22405489932E+04  0.00000000000E+00 0. -1.
         25    2    1    2    0    0  0.11173491812E+03 -0.73034224264E+03 -0.14939971508E+04  0.16713877445E+04  0.12500009057E+03 0.  0.
          2    1    1    2  501    0 -0.14432601375E+03  0.71477136758E+03 -0.45503702008E+03  0.85952707683E+03  0.00000000000E+00 0. -1.
          1    1    1    2  502    0  0.32591095628E+02  0.15570875052E+02  0.56715324282E+03  0.56830223694E+03  0.00000000000E+00 0. -1.
         22    1    3    3    0    0  0.81798611808E+02 -0.18927417560E+03 -0.36976007078E+03  0.42336536985E+03  0.00000000000E+00 0. -1.
         22    1    3    3    0    0  0.29936306311E+02 -0.54106806703E+03 -0.11242370800E+04  0.12480223747E+04  0.00000000000E+00 0. -1.
</event>
<event>
 7    1  0.5064652E-006  0.2800639E+02  0.7818608E-02  0.1646450E+00
          2   -1    0    0  502    0  0.00000000000E+00  0.00000000000E+00  0.12544585523E+04  0.12544585523E+04  0.00000000000E+00 0. -1.
          1   -1    0    0  501    0 -0.00000000000E+00 -0.00000000000E+00 -0.12629057535E+03  0.12629057535E+03  0.00000000000E+00 0. -1.
         25    2    1    2    0    0 -0.24269820662E+02 -0.97263447662E+01  0.24657048139E+03  0.27767344445E+03  0.12498765333E+03 0.  0.
          2    1    1    2  501    0  0.16813509858E+02 -0.17430737211E+02 -0.10921250867E+03  0.11186552983E+03  0.00000000000E+00 0. -1.
          1    1    1    2  502    0  0.74563108041E+01  0.27157081977E+02  0.99081000421E+03  0.99121015335E+03  0.00000000000E+00 0. -1.
         22    1    3    3    0    0  0.40474061813E+02 -0.38318029191E+02  0.12761186785E+03  0.13925232442E+03  0.00000000000E+00 0. -1.
         22    1    3    3    0    0 -0.64743882475E+02  0.28591684425E+02  0.11895861354E+03  0.13842112003E+03  0.00000000000E+00 0. -1.
</event>
<event>
 7    1  0.5064652E-006  0.6928737E+02  0.7818608E-02  0.1405337E+00
          2   -1    0    0  502    0  0.00000000000E+00  0.00000000000E+00  0.20089061145E+04  0.20089061145E+04  0.00000000000E+00 0. -1.
          1   -1    0    0  501    0 -0.00000000000E+00 -0.00000000000E+00 -0.36891622168E+02  0.36891622168E+02  0.00000000000E+00 0. -1.
         25    2    1    2    0    0  0.15188736370E+02  0.10833211131E+03  0.10074290920E+04  0.10210328380E+04  0.12501254723E+03 0.  0.
          2    1    1    2  501    0  0.11083743492E+02 -0.67010603613E+02  0.96829487834E+01  0.68607797396E+02  0.00000000000E+00 0. -1.
          1    1    1    2  502    0 -0.26272479862E+02 -0.41321507700E+02  0.95490245157E+03  0.95615710122E+03  0.00000000000E+00 0. -1.
         22    1    3    3    0    0  0.45003744523E+02  0.11958479465E+03  0.66793545111E+03  0.68004678294E+03  0.00000000000E+00 0. -1.
         22    1    3    3    0    0 -0.29815008153E+02 -0.11252683340E+02  0.33949364086E+03  0.34098605511E+03  0.00000000000E+00 0. -1.
</event>
<event>
 7    1  0.5064652E-006  0.6448924E+02  0.7818608E-02  0.1412827E+00
          2   -1    0    0  502    0  0.00000000000E+00  0.00000000000E+00  0.43589027882E+03  0.43589027882E+03  0.00000000000E+00 0. -1.
          1   -1    0    0  501    0 -0.00000000000E+00 -0.00000000000E+00 -0.31932876777E+03  0.31932876777E+03  0.00000000000E+00 0. -1.
         25    2    1    2    0    0 -0.23880905119E+02  0.10491217608E+03  0.85536127234E+02  0.18581317236E+03  0.12503297022E+03 0.  0.
          2    1    1    2  501    0 -0.36718885992E+01 -0.49483281962E+02 -0.26366061813E+03  0.26828902234E+03  0.00000000000E+00 0. -1.
          1    1    1    2  502    0  0.27552793718E+02 -0.55428894118E+02  0.29468600194E+03  0.30111685188E+03  0.00000000000E+00 0. -1.
         22    1    3    3    0    0 -0.42573859190E+02  0.10508783298E+03  0.10799992164E+03  0.15658853470E+03  0.00000000000E+00 0. -1.
         22    1    3    3    0    0  0.18692954072E+02 -0.17565689777E+00 -0.22463794404E+02  0.29224637659E+02  0.00000000000E+00 0. -1.
</event>
<event>
 7    1  0.5064652E-006  0.6136076E+02  0.7818608E-02  0.1428151E+00
          2   -1    0    0  502    0  0.00000000000E+00  0.00000000000E+00  0.17563144774E+03  0.17563144774E+03  0.00000000000E+00 0. -1.
          1   -1    0    0  501    0 -0.00000000000E+00 -0.00000000000E+00 -0.13567637760E+04  0.13567637760E+04  0.00000000000E+00 0. -1.
         25    2    1    2    0    0  0.51151432064E+02 -0.69199656596E+02  0.55157083515E+02  0.16146827404E+03  0.12499855273E+03 0.  0.
          2    1    1    2  501    0  0.17499707745E+01  0.46322348449E+02 -0.12907788437E+04  0.12916109498E+04  0.00000000000E+00 0. -1.
          1    1    1    2  502    0 -0.52901402839E+02  0.22877308147E+02  0.54489431904E+02  0.79315999896E+02  0.00000000000E+00 0. -1.
         22    1    3    3    0    0  0.20125308945E+02  0.29164997726E+02  0.45793641040E+02  0.57902354979E+02  0.00000000000E+00 0. -1.
         22    1    3    3    0    0  0.31026123119E+02 -0.98364654322E+02  0.93634424749E+01  0.10356591906E+03  0.00000000000E+00 0. -1.
</event>
<event>
 7    1  0.5064652E-006  0.7969168E+02  0.7818608E-02  0.1389181E+00
          2   -1    0    0  502    0  0.00000000000E+00  0.00000000000E+00  0.13097774675E+03  0.13097774675E+03  0.00000000000E+00 0. -1.
          1   -1    0    0  501    0 -0.00000000000E+00 -0.00000000000E+00 -0.45321642654E+03  0.45321642654E+03  0.00000000000E+00 0. -1.
         25    2    1    2    0    0  0.23132091524E+02 -0.31243959454E+02 -0.99134098931E+02  0.16420286882E+03  0.12499493548E+03 0.  0.
          2    1    1    2  501    0 -0.50594980773E+02  0.71108562865E+02 -0.30916708478E+03  0.32124844918E+03  0.00000000000E+00 0. -1.
          1    1    1    2  502    0  0.27462889249E+02 -0.39864603411E+02  0.86062503922E+02  0.98742855297E+02  0.00000000000E+00 0. -1.
         22    1    3    3    0    0  0.37549120620E+01 -0.69854627083E+02 -0.98728991826E+02  0.12100075255E+03  0.00000000000E+00 0.  1.
         22    1    3    3    0    0  0.19377179462E+02  0.38610667629E+02 -0.40510710485E+00  0.43202116272E+02  0.00000000000E+00 0.  1.
</event>
<event>
 7    1  0.5064652E-006  0.7094743E+02  0.7818608E-02  0.1496619E+00
          2   -1    0    0  502    0  0.00000000000E+00  0.00000000000E+00  0.15547170483E+03  0.15547170483E+03  0.00000000000E+00 0. -1.
          1   -1    0    0  501    0 -0.00000000000E+00 -0.00000000000E+00 -0.15589093771E+04  0.15589093771E+04  0.00000000000E+00 0. -1.
         25    2    1    2    0    0 -0.63474889260E+02  0.34226924560E+02 -0.27958465954E+03  0.31463570829E+03  0.12501001220E+03 0.  0.
          2    1    1    2  501    0  0.47627491667E+02 -0.52800231830E+02 -0.12597082998E+04  0.12617136137E+04  0.00000000000E+00 0. -1.
          1    1    1    2  502    0  0.15847397593E+02  0.18573307270E+02  0.13585528702E+03  0.13803175998E+03  0.00000000000E+00 0. -1.
         22    1    3    3    0    0 -0.76492183306E+02  0.67224243295E+02 -0.24396820076E+03  0.26436837174E+03  0.00000000000E+00 0.  1.
         22    1    3    3    0    0  0.13017294046E+02 -0.32997318734E+02 -0.35616458782E+02  0.50267336553E+02  0.00000000000E+00 0.  1.
</event>
<event>
 7    1  0.5064652E-006  0.6061265E+02  0.7818608E-02  0.1524713E+00
          2   -1    0    0  502    0  0.00000000000E+00  0.00000000000E+00  0.19744446566E+02  0.19744446566E+02  0.00000000000E+00 0. -1.
          1   -1    0    0  501    0 -0.00000000000E+00 -0.00000000000E+00 -0.64107338065E+03  0.64107338065E+03  0.00000000000E+00 0. -1.
         25    2    1    2    0    0  0.33781588341E+02 -0.48804481575E+02 -0.39423129190E+03  0.41780977876E+03  0.12499450619E+03 0.  0.
          2    1    1    2  501    0 -0.13690154754E+02  0.61236664440E+02 -0.15939832217E+03  0.17130433305E+03  0.00000000000E+00 0. -1.
          1    1    1    2  502    0 -0.20091433587E+02 -0.12432182864E+02 -0.67699320003E+02  0.71703715408E+02  0.00000000000E+00 0. -1.
         22    1    3    3    0    0 -0.34938775229E+02 -0.47637741584E+02 -0.26427829115E+03  0.27080082645E+03  0.00000000000E+00 0. -1.
         22    1    3    3    0    0  0.68720363570E+02 -0.11667399916E+01 -0.12995300075E+03  0.14700895230E+03  0.00000000000E+00 0. -1.
</event>
<event>
 7    1  0.5064652E-006  0.7771995E+02  0.7818608E-02  0.1411415E+00
          2   -1    0    0  502    0  0.00000000000E+00  0.00000000000E+00  0.15870536814E+04  0.15870536814E+04  0.00000000000E+00 0. -1.
          1   -1    0    0  501    0 -0.00000000000E+00 -0.00000000000E+00 -0.52371105431E+02  0.52371105431E+02  0.00000000000E+00 0. -1.
         25    2    1    2    0    0  0.36068309516E+02  0.37702161889E+02  0.30548664952E+03  0.33416929883E+03  0.12499860510E+03 0.  0.
          2    1    1    2  501    0 -0.25344429689E+02 -0.77924038968E+02  0.68793461638E+01  0.82230294716E+02  0.00000000000E+00 0. -1.
          1    1    1    2  502    0 -0.10723879827E+02  0.40221877079E+02  0.12223165803E+04  0.12230251933E+04  0.00000000000E+00 0. -1.
         22    1    3    3    0    0 -0.42443189326E+02  0.34384453846E+00  0.15148018975E+03  0.15731430461E+03  0.00000000000E+00 0. -1.
         22    1    3    3    0    0  0.78511498842E+02  0.37358317350E+02  0.15400645978E+03  0.17685499422E+03  0.00000000000E+00 0. -1.
</event>
<event>
 7    1  0.5064652E-006  0.1254117E+03  0.7818608E-02  0.1270243E+00
          2   -1    0    0  502    0  0.00000000000E+00  0.00000000000E+00  0.33735356992E+03  0.33735356992E+03  0.00000000000E+00 0. -1.
          1   -1    0    0  501    0 -0.00000000000E+00 -0.00000000000E+00 -0.25598048680E+04  0.25598048680E+04  0.00000000000E+00 0. -1.
         25    2    1    2    0    0  0.10246958490E+03 -0.12460480785E+03 -0.23115104127E+01  0.20410086387E+03  0.12500178232E+03 0.  0.
          2    1    1    2  501    0 -0.87774726883E+02  0.23479934429E+01 -0.24397241970E+04  0.24413037650E+04  0.00000000000E+00 0. -1.
          1    1    1    2  502    0 -0.14694858017E+02  0.12225681440E+03  0.21958440935E+03  0.25175380901E+03  0.00000000000E+00 0. -1.
         22    1    3    3    0    0  0.54150117383E+02 -0.14033133058E+03 -0.16563609663E+02  0.15132571071E+03  0.00000000000E+00 0. -1.
         22    1    3    3    0    0  0.48319467516E+02  0.15726522735E+02  0.14252099250E+02  0.52775153164E+02  0.00000000000E+00 0. -1.
</event>
<event>
 7    1  0.5064652E-006  0.6202468E+02  0.7818608E-02  0.1474019E+00
          2   -1    0    0  502    0  0.00000000000E+00  0.00000000000E+00  0.18970509574E+04  0.18970509574E+04  0.00000000000E+00 0. -1.
          1   -1    0    0  501    0 -0.00000000000E+00 -0.00000000000E+00 -0.43897589148E+02  0.43897589148E+02  0.00000000000E+00 0. -1.
         25    2    1    2    0    0 -0.16931597331E+02  0.40799969511E+02  0.69941893802E+03  0.71187266649E+03  0.12499810375E+03 0.  0.
          2    1    1    2  501    0 -0.76153825412E+01 -0.62439479432E+02 -0.11021432824E+02  0.63860430820E+02  0.00000000000E+00 0. -1.
          1    1    1    2  502    0  0.24546979872E+02  0.21639509921E+02  0.11647558631E+04  0.11652154492E+04  0.00000000000E+00 0. -1.
         22    1    3    3    0    0  0.30211369972E+02  0.46061438552E+02  0.14001652589E+03  0.15046265490E+03  0.00000000000E+00 0. -1.
         22    1    3    3    0    0 -0.47142967302E+02 -0.52614690409E+01  0.55940241213E+03  0.56141001159E+03  0.00000000000E+00 0. -1.
</event>
<event>
 7    1  0.5064652E-006  0.4021038E+02  0.7818608E-02  0.1548750E+00
          2   -1    0    0  502    0  0.00000000000E+00  0.00000000000E+00  0.22166308143E+04  0.22166308143E+04  0.00000000000E+00 0. -1.
          1   -1    0    0  501    0 -0.00000000000E+00 -0.00000000000E+00 -0.48792315037E+03  0.48792315037E+03  0.00000000000E+00 0. -1.
         25    2    1    2    0    0  0.13734942691E+01 -0.48681634327E+02  0.10247946219E+04  0.10335372866E+04  0.12499407095E+03 0.  0.
          2    1    1    2  501    0 -0.25945293825E+02  0.30722222553E+02 -0.48252031556E+03  0.48419300714E+03  0.00000000000E+00 0. -1.
          1    1    1    2  502    0  0.24571799556E+02  0.17959411773E+02  0.11864333576E+04  0.11868236709E+04  0.00000000000E+00 0. -1.
         22    1    3    3    0    0  0.45634413355E+02  0.20446742667E+02  0.30421232299E+03  0.30829483685E+03  0.00000000000E+00 0.  1.
         22    1    3    3    0    0 -0.44260919086E+02 -0.69128376994E+02  0.72058229891E+03  0.72524244978E+03  0.00000000000E+00 0.  1.
</event>
<event>
 7    1  0.5064652E-006  0.1384571E+03  0.7818608E-02  0.1221767E+00
          2   -1    0    0  502    0  0.00000000000E+00  0.00000000000E+00  0.23943297335E+03  0.23943297335E+03  0.00000000000E+00 0. -1.
          1   -1    0    0  501    0 -0.00000000000E+00 -0.00000000000E+00 -0.10486631925E+04  0.10486631925E+04  0.00000000000E+00 0. -1.
         25    2    1    2    0    0  0.27437319950E+01 -0.14088844454E+03 -0.15350808890E+03  0.24299264408E+03  0.12499443927E+03 0.  0.
          2    1    1    2  501    0  0.11562007053E+03  0.88320737575E+02 -0.82175304552E+03  0.83453377476E+03  0.00000000000E+00 0. -1.
          1    1    1    2  502    0 -0.11836380252E+03  0.52567706967E+02  0.16603091522E+03  0.21056974705E+03  0.00000000000E+00 0. -1.
         22    1    3    3    0    0  0.48302129909E+02 -0.17251157497E+02 -0.70783222289E+02  0.87412600615E+02  0.00000000000E+00 0.  1.
         22    1    3    3    0    0 -0.45558397914E+02 -0.12363728704E+03 -0.82724866608E+02  0.15558004346E+03  0.00000000000E+00 0.  1.
</event>
<event>
 7    1  0.5064652E-006  0.8457290E+02  0.7818608E-02  0.1441655E+00
          2   -1    0    0  502    0  0.00000000000E+00  0.00000000000E+00  0.64845099061E+03  0.64845099061E+03  0.00000000000E+00 0. -1.
          1   -1    0    0  501    0 -0.00000000000E+00 -0.00000000000E+00 -0.70975500059E+03  0.70975500059E+03  0.00000000000E+00 0. -1.
         25    2    1    2    0    0 -0.32397705766E+02  0.10994640374E+03  0.21648651329E+03  0.27500893774E+03  0.12500272943E+03 0.  0.
          2    1    1    2  501    0  0.23020455269E+02 -0.81047910613E+02 -0.67730687620E+03  0.68252714944E+03  0.00000000000E+00 0. -1.
          1    1    1    2  502    0  0.93772504973E+01 -0.28898493123E+02  0.39951635292E+03  0.40066990402E+03  0.00000000000E+00 0. -1.
         22    1    3    3    0    0 -0.70702696499E+02  0.59437883133E+02  0.17883352390E+03  0.20127881785E+03  0.00000000000E+00 0. -1.
         22    1    3    3    0    0  0.38304990734E+02  0.50508520602E+02  0.37652989389E+02  0.73730119887E+02  0.00000000000E+00 0. -1.
</event>
<event>
 7    1  0.5064652E-006  0.1047890E+03  0.7818608E-02  0.1412673E+00
          2   -1    0    0  502    0  0.00000000000E+00  0.00000000000E+00  0.71260403931E+03  0.71260403931E+03  0.00000000000E+00 0. -1.
          1   -1    0    0  501    0 -0.00000000000E+00 -0.00000000000E+00 -0.86547538751E+03  0.86547538751E+03  0.00000000000E+00 0. -1.
         25    2    1    2    0    0  0.18945427172E+00 -0.88496693156E+02 -0.52695793640E+02  0.16197339842E+03  0.12500733793E+03 0.  0.
          2    1    1    2  501    0  0.26931165150E+02  0.10261044315E+03 -0.75407075396E+03  0.76149648238E+03  0.00000000000E+00 0. -1.
          1    1    1    2  502    0 -0.27120619422E+02 -0.14113749992E+02  0.65389519940E+03  0.65460954601E+03  0.00000000000E+00 0. -1.
         22    1    3    3    0    0  0.11154253667E+02 -0.11791799120E+03 -0.54795396243E+02  0.13050519328E+03  0.00000000000E+00 0. -1.
         22    1    3    3    0    0 -0.10964799395E+02  0.29421298040E+02  0.20996026030E+01  0.31468205148E+02  0.00000000000E+00 0. -1.
</event>
<event>
 7    1  0.5064652E-006  0.7314732E+02  0.7818608E-02  0.1399766E+00
          2   -1    0    0  502    0  0.00000000000E+00  0.00000000000E+00  0.20105565888E+03  0.20105565888E+03  0.00000000000E+00 0. -1.
          1   -1    0    0  501    0 -0.00000000000E+00 -0.00000000000E+00 -0.72961690226E+03  0.72961690226E+03  0.00000000000E+00 0. -1.
         25    2    1    2    0    0 -0.52461236900E+02  0.10179836353E+03 -0.14764525282E+03  0.22481022607E+03  0.12500171548E+03 0.  0.
          2    1    1    2  501    0  0.51023469103E+01 -0.48196989258E+02 -0.53436693401E+03  0.53656034505E+03  0.00000000000E+00 0. -1.
          1    1    1    2  502    0  0.47358889989E+02 -0.53601374276E+02  0.15345094343E+03  0.16930199002E+03  0.00000000000E+00 0. -1.
         22    1    3    3    0    0 -0.90404021588E+02  0.44421242521E+02 -0.89161870941E+02  0.13452127392E+03  0.00000000000E+00 0.  1.
         22    1    3    3    0    0  0.37942784689E+02  0.57377121013E+02 -0.58483381875E+02  0.90288952155E+02  0.00000000000E+00 0.  1.
</event>
<event>
 7    1  0.5064652E-006  0.8222605E+02  0.7818608E-02  0.1468569E+00
          2   -1    0    0  502    0  0.00000000000E+00  0.00000000000E+00  0.51686180251E+03  0.51686180251E+03  0.00000000000E+00 0. -1.
          1   -1    0    0  501    0 -0.00000000000E+00 -0.00000000000E+00 -0.83665088227E+03  0.83665088227E+03  0.00000000000E+00 0. -1.
         25    2    1    2    0    0 -0.10236735052E+03 -0.16359322960E+02 -0.20504588950E+03  0.26156393366E+03  0.12500069074E+03 0.  0.
          2    1    1    2  501    0  0.77266350349E+02  0.21708584099E+02 -0.60033658666E+03  0.60567761128E+03  0.00000000000E+00 0. -1.
          1    1    1    2  502    0  0.25101000174E+02 -0.53492611394E+01  0.48559339641E+03  0.48627113984E+03  0.00000000000E+00 0. -1.
         22    1    3    3    0    0 -0.33819155438E+02 -0.66206137840E+02 -0.69926946980E+02  0.10206255864E+03  0.00000000000E+00 0. -1.
         22    1    3    3    0    0 -0.68548195085E+02  0.49846814881E+02 -0.13511894252E+03  0.15950137502E+03  0.00000000000E+00 0. -1.
</event>
<event>
 7    1  0.5064652E-006  0.7748005E+02  0.7818608E-02  0.1507407E+00
          2   -1    0    0  502    0  0.00000000000E+00  0.00000000000E+00  0.16186064833E+03  0.16186064833E+03  0.00000000000E+00 0. -1.
          1   -1    0    0  501    0 -0.00000000000E+00 -0.00000000000E+00 -0.10058350282E+04  0.10058350282E+04  0.00000000000E+00 0. -1.
         25    2    1    2    0    0 -0.32788465076E+02 -0.64977503006E+02 -0.27895243048E+03  0.31422299224E+03  0.12499788415E+03 0.  0.
          2    1    1    2  501    0  0.17463110794E+02 -0.11232561324E+02 -0.69860720509E+03  0.69891570141E+03  0.00000000000E+00 0. -1.
          1    1    1    2  502    0  0.15325354282E+02  0.76210064331E+02  0.13358525574E+03  0.15455698283E+03  0.00000000000E+00 0. -1.
         22    1    3    3    0    0 -0.30083509383E+02 -0.45879990637E+02 -0.28781415302E+03  0.29299654906E+03  0.00000000000E+00 0.  1.
         22    1    3    3    0    0 -0.27049556930E+01 -0.19097512369E+02  0.88617225400E+01  0.21226443187E+02  0.00000000000E+00 0.  1.
</event>
<event>
 7    1  0.5064652E-006  0.6659322E+02  0.7818608E-02  0.1410623E+00
          2   -1    0    0  502    0  0.00000000000E+00  0.00000000000E+00  0.20233252624E+03  0.20233252624E+03  0.00000000000E+00 0. -1.
          1   -1    0    0  501    0 -0.00000000000E+00 -0.00000000000E+00 -0.19691362518E+04  0.19691362518E+04  0.00000000000E+00 0. -1.
         25    2    1    2    0    0 -0.39809265201E+02  0.36304555758E+02 -0.88339307706E+03  0.89382000764E+03  0.12501231575E+03 0.  0.
          2    1    1    2  501    0  0.38235094590E+02  0.30457055557E+02 -0.10743019724E+04  0.10754135402E+04  0.00000000000E+00 0. -1.
          1    1    1    2  502    0  0.15741706102E+01 -0.66761611315E+02  0.19089132391E+03  0.20223523012E+03  0.00000000000E+00 0. -1.
         22    1    3    3    0    0 -0.17007827158E+02  0.80899440175E+02 -0.64080784711E+03  0.64611816452E+03  0.00000000000E+00 0.  1.
         22    1    3    3    0    0 -0.22801438042E+02 -0.44594884417E+02 -0.24258522995E+03  0.24770184312E+03  0.00000000000E+00 0.  1.
</event>
<event>
 7    1  0.5064652E-006  0.1739191E+03  0.7818608E-02  0.1353189E+00
          2   -1    0    0  502    0  0.00000000000E+00  0.00000000000E+00  0.43196576201E+03  0.43196576201E+03  0.00000000000E+00 0. -1.
          1   -1    0    0  501    0 -0.00000000000E+00 -0.00000000000E+00 -0.61341120478E+03  0.61341120478E+03  0.00000000000E+00 0. -1.
         25    2    1    2    0    0 -0.14460116319E+03  0.59731405257E+02 -0.78256451539E+02  0.21499888434E+03  0.12499244334E+03 0.  0.
          2    1    1    2  501    0 -0.83412715948E+01  0.28677363021E+02 -0.44479554780E+03  0.44579709207E+03  0.00000000000E+00 0. -1.
          1    1    1    2  502    0  0.15294243478E+03 -0.88408768278E+02  0.34160655657E+03  0.38458099037E+03  0.00000000000E+00 0. -1.
         22    1    3    3    0    0 -0.17169916825E+02  0.24633739496E+02 -0.77183126250E+02  0.82818247645E+02  0.00000000000E+00 0. -1.
         22    1    3    3    0    0 -0.12743124636E+03  0.35097665760E+02 -0.10733252895E+01  0.13218063670E+03  0.00000000000E+00 0. -1.
</event>
<event>
 7    1  0.5064652E-006  0.6330732E+02  0.7818608E-02  0.1454703E+00
          2   -1    0    0  502    0  0.00000000000E+00  0.00000000000E+00  0.61989687469E+03  0.61989687469E+03  0.00000000000E+00 0. -1.
          1   -1    0    0  501    0 -0.00000000000E+00 -0.00000000000E+00 -0.12058262910E+04  0.12058262910E+04  0.00000000000E+00 0. -1.
         25    2    1    2    0    0  0.32911673088E+02 -0.74577919999E+02 -0.20920009816E+02  0.15068877317E+03  0.12499766066E+03 0.  0.
          2    1    1    2  501    0 -0.35011112445E+02  0.11521652721E+02 -0.11179242168E+04  0.11185316629E+04  0.00000000000E+00 0. -1.
          1    1    1    2  502    0  0.20994393576E+01  0.63056267278E+02  0.55291481035E+03  0.55650272955E+03  0.00000000000E+00 0. -1.
         22    1    3    3    0    0  0.63622732179E+02 -0.12005809019E+02 -0.42822879107E+02  0.77625965212E+02  0.00000000000E+00 0. -1.
         22    1    3    3    0    0 -0.30711059091E+02 -0.62572110980E+02  0.21902869291E+02  0.73062807954E+02  0.00000000000E+00 0. -1.
</event>
<event>
 7    1  0.5064652E-006  0.1210514E+03  0.7818608E-02  0.1415935E+00
          2   -1    0    0  502    0  0.00000000000E+00  0.00000000000E+00  0.38459196319E+03  0.38459196319E+03  0.00000000000E+00 0. -1.
          1   -1    0    0  501    0 -0.00000000000E+00 -0.00000000000E+00 -0.11421120870E+03  0.11421120870E+03  0.00000000000E+00 0. -1.
         25    2    1    2    0    0 -0.79872129138E+02  0.11652411020E+03  0.13824105840E+03  0.23388274005E+03  0.12503247817E+03 0.  0.
          2    1    1    2  501    0  0.64313239942E+02 -0.95937224666E+02 -0.14158252077E+02  0.11636408385E+03  0.00000000000E+00 0. -1.
          1    1    1    2  502    0  0.15558889196E+02 -0.20586885536E+02  0.14629794817E+03  0.14855634799E+03  0.00000000000E+00 0. -1.
         22    1    3    3    0    0 -0.55445589624E+02 -0.67975583268E+01  0.15013304018E+02  0.57843059268E+02  0.00000000000E+00 0. -1.
         22    1    3    3    0    0 -0.24426539514E+02  0.12332166853E+03  0.12322775438E+03  0.17603968078E+03  0.00000000000E+00 0. -1.
</event>
<event>
 7    1  0.5064652E-006  0.2264739E+03  0.7818608E-02  0.1220703E+00
          2   -1    0    0  502    0  0.00000000000E+00  0.00000000000E+00  0.23006316725E+04  0.23006316725E+04  0.00000000000E+00 0. -1.
          1   -1    0    0  501    0 -0.00000000000E+00 -0.00000000000E+00 -0.80975848753E+03  0.80975848753E+03  0.00000000000E+00 0. -1.
         25    2    1    2    0    0  0.27751307830E+03 -0.88496677303E+02  0.25306827462E+03  0.40560352256E+03  0.12500198145E+03 0.  0.
          2    1    1    2  501    0 -0.58708596359E+02  0.54441232905E+02 -0.72506160839E+03  0.72946890481E+03  0.00000000000E+00 0. -1.
          1    1    1    2  502    0 -0.21880448194E+03  0.34055444398E+02  0.19628665187E+04  0.19753177326E+04  0.00000000000E+00 0. -1.
         22    1    3    3    0    0  0.22431443310E+03 -0.66395236868E+02  0.12513822479E+03  0.26530146566E+03  0.00000000000E+00 0. -1.
         22    1    3    3    0    0  0.53198645200E+02 -0.22101440436E+02  0.12793004983E+03  0.14030205690E+03  0.00000000000E+00 0. -1.
</event>
<event>
 7    1  0.5064652E-006  0.4928355E+02  0.7818608E-02  0.1458906E+00
          2   -1    0    0  502    0  0.00000000000E+00  0.00000000000E+00  0.21715503407E+03  0.21715503407E+03  0.00000000000E+00 0. -1.
          1   -1    0    0  501    0 -0.00000000000E+00 -0.00000000000E+00 -0.27674104490E+04  0.27674104490E+04  0.00000000000E+00 0. -1.
         25    2    1    2    0    0  0.12592492921E+02  0.72572412701E+01  0.38975855753E+02  0.13173872805E+03  0.12499894683E+03 0.  0.
          2    1    1    2  501    0 -0.39022899923E+02  0.30289383361E+02 -0.27167985069E+04  0.27172475707E+04  0.00000000000E+00 0. -1.
          1    1    1    2  502    0  0.26430407002E+02 -0.37546624631E+02  0.12756723626E+03  0.13557918425E+03  0.00000000000E+00 0. -1.
         22    1    3    3    0    0  0.54732365185E+02  0.42973403310E+01  0.62659822928E+02  0.83308777101E+02  0.00000000000E+00 0.  1.
         22    1    3    3    0    0 -0.42139872264E+02  0.29599009391E+01 -0.23683967175E+02  0.48429950952E+02  0.00000000000E+00 0.  1.
</event>
<event>
 7    1  0.5064652E-006  0.5911043E+02  0.7818608E-02  0.1478284E+00
          2   -1    0    0  502    0  0.00000000000E+00  0.00000000000E+00  0.11786805743E+04  0.11786805743E+04  0.00000000000E+00 0. -1.
          1   -1    0    0  501    0 -0.00000000000E+00 -0.00000000000E+00 -0.27466975994E+02  0.27466975994E+02  0.00000000000E+00 0. -1.
         25    2    1    2    0    0 -0.11145015162E+02 -0.63974454524E+02  0.49737731214E+03  0.51693940957E+03  0.12500088138E+03 0.  0.
          2    1    1    2  501    0 -0.27474725240E+02  0.18837538777E+02  0.64234464726E+00  0.33318553403E+02  0.00000000000E+00 0. -1.
          1    1    1    2  502    0  0.38619740403E+02  0.45136915746E+02  0.65319394147E+03  0.65588958727E+03  0.00000000000E+00 0. -1.
         22    1    3    3    0    0 -0.67526140879E+02 -0.45567576291E+02  0.27866639510E+03  0.29032937066E+03  0.00000000000E+00 0.  1.
         22    1    3    3    0    0  0.56381125717E+02 -0.18406878232E+02  0.21871091704E+03  0.22661003891E+03  0.00000000000E+00 0.  1.
</event>
<event>
 7    1  0.5064652E-006  0.1704600E+03  0.7818608E-02  0.1244353E+00
          2   -1    0    0  502    0  0.00000000000E+00  0.00000000000E+00  0.34447355174E+03  0.34447355174E+03  0.00000000000E+00 0. -1.
          1   -1    0    0  501    0 -0.00000000000E+00 -0.00000000000E+00 -0.20578086837E+04  0.20578086837E+04  0.00000000000E+00 0. -1.
         25    2    1    2    0    0  0.12714409805E+03 -0.74692014080E+02 -0.73958787901E+03  0.76443399592E+03  0.12499833882E+03 0.  0.
          2    1    1    2  501    0 -0.10657632282E+03  0.15553001630E+03 -0.12936153343E+04  0.13072829578E+04  0.00000000000E+00 0. -1.
          1    1    1    2  502    0 -0.20567775233E+02 -0.80838002219E+02  0.31986808139E+03  0.33056528171E+03  0.00000000000E+00 0. -1.
         22    1    3    3    0    0  0.14757294190E+03 -0.81484789118E+02 -0.60141115897E+03  0.62459020660E+03  0.00000000000E+00 0.  1.
         22    1    3    3    0    0 -0.20428843841E+02  0.67927750373E+01 -0.13817672004E+03  0.13984378933E+03  0.00000000000E+00 0.  1.
</event>
<event>
 7    1  0.5064652E-006  0.6177470E+02  0.7818608E-02  0.1489089E+00
          2   -1    0    0  502    0  0.00000000000E+00  0.00000000000E+00  0.13746604590E+04  0.13746604590E+04  0.00000000000E+00 0. -1.
          1   -1    0    0  501    0 -0.00000000000E+00 -0.00000000000E+00 -0.70795745849E+02  0.70795745849E+02  0.00000000000E+00 0. -1.
         25    2    1    2    0    0  0.84248288255E+02 -0.29604776718E+02  0.36420172727E+03  0.39527553526E+03  0.12500253496E+03 0.  0.
          2    1    1    2  501    0 -0.28952078269E+02  0.58882779346E+01 -0.50330013218E+02  0.58360987686E+02  0.00000000000E+00 0. -1.
          1    1    1    2  502    0 -0.55296209985E+02  0.23716498783E+02  0.98999299908E+03  0.99181968189E+03  0.00000000000E+00 0. -1.
         22    1    3    3    0    0 -0.21152879656E+02 -0.17799899269E+02  0.17511729679E+02  0.32725241146E+02  0.00000000000E+00 0.  1.
         22    1    3    3    0    0  0.10540116791E+03 -0.11804877449E+02  0.34668999760E+03  0.36255029411E+03  0.00000000000E+00 0.  1.
</event>
<event>
 7    1  0.5774141E-006  0.1688456E+03  0.7818608E-02  0.1231958E+00
          2   -1    0    0  502    0  0.00000000000E+00  0.00000000000E+00  0.18958735102E+04  0.18958735102E+04  0.00000000000E+00 0. -1.
          1   -1    0    0  501    0 -0.00000000000E+00 -0.00000000000E+00 -0.74509977843E+03  0.74509977843E+03  0.00000000000E+00 0. -1.
         25    2    1    2    0    0 -0.17078673875E+03 -0.22187249610E+02 -0.30335180421E+03  0.37054910943E+03  0.12499576475E+03 0.  0.
          2    1    1    2  501    0  0.17633816279E+02  0.93901911794E+02 -0.39865375124E+03  0.40994308616E+03  0.00000000000E+00 0. -1.
          1    1    1    2  502    0  0.15315292247E+03 -0.71714662184E+02  0.18527792873E+04  0.18604810931E+04  0.00000000000E+00 0. -1.
         22    1    3    3    0    0 -0.66335146641E+02 -0.58728118762E+02 -0.20164760244E+03  0.22025235341E+03  0.00000000000E+00 0.  1.
         22    1    3    3    0    0 -0.10445159211E+03  0.36540869152E+02 -0.10170420177E+03  0.15029675602E+03  0.00000000000E+00 0.  1.
</event>
<event>
 7    1  0.5064652E-006  0.9455366E+02  0.7818608E-02  0.1317890E+00
          2   -1    0    0  502    0  0.00000000000E+00  0.00000000000E+00  0.76763689978E+03  0.76763689978E+03  0.00000000000E+00 0. -1.
          1   -1    0    0  501    0 -0.00000000000E+00 -0.00000000000E+00 -0.11119772554E+03  0.11119772554E+03  0.00000000000E+00 0. -1.
         25    2    1    2    0    0 -0.91511591467E+02  0.10770196921E+03  0.66036815469E+01  0.18879181557E+03  0.12499862188E+03 0.  0.
          2    1    1    2  501    0  0.72957030059E+02 -0.16244401034E+02  0.68886419540E+02  0.10164618831E+03  0.00000000000E+00 0. -1.
          1    1    1    2  502    0  0.18554561408E+02 -0.91457568175E+02  0.58094907316E+03  0.58839662145E+03  0.00000000000E+00 0. -1.
         22    1    3    3    0    0  0.28203456333E+02  0.42006955284E+01 -0.86682692913E+01  0.29803014689E+02  0.00000000000E+00 0. -1.
         22    1    3    3    0    0 -0.11971504780E+03  0.10350127368E+03  0.15271950838E+02  0.15898880088E+03  0.00000000000E+00 0. -1.
</event>
<event>
 7    1  0.5064652E-006  0.1544495E+03  0.7818608E-02  0.1205282E+00
          2   -1    0    0  502    0  0.00000000000E+00  0.00000000000E+00  0.18362582170E+04  0.18362582170E+04  0.00000000000E+00 0. -1.
          1   -1    0    0  501    0 -0.00000000000E+00 -0.00000000000E+00 -0.93957984796E+02  0.93957984796E+02  0.00000000000E+00 0. -1.
         25    2    1    2    0    0 -0.15996748213E+03 -0.16378553062E+03  0.10944786188E+04  0.11251321457E+04  0.12499441089E+03 0.  0.
          2    1    1    2  501    0  0.14967361953E+03  0.25868512488E+02  0.97598131065E+01  0.15220586806E+03  0.00000000000E+00 0. -1.
          1    1    1    2  502    0  0.10293862597E+02  0.13791701813E+03  0.63806180028E+03  0.65287818808E+03  0.00000000000E+00 0. -1.
         22    1    3    3    0    0  0.18626092365E+02 -0.11049984200E+02  0.49074281758E+02  0.53640643151E+02  0.00000000000E+00 0. -1.
         22    1    3    3    0    0 -0.17859357449E+03 -0.15273554642E+03  0.10454043371E+04  0.10714915025E+04  0.00000000000E+00 0. -1.
</event>
<event>
 7    1  0.5064652E-006  0.1124211E+03  0.7818608E-02  0.1444096E+00
          2   -1    0    0  502    0  0.00000000000E+00  0.00000000000E+00  0.16248813560E+04  0.16248813560E+04  0.00000000000E+00 0. -1.
          1   -1    0    0  501    0 -0.00000000000E+00 -0.00000000000E+00 -0.30800256051E+03  0.30800256051E+03  0.00000000000E+00 0. -1.
         25    2    1    2    0    0  0.10085084114E+03  0.47881823124E+02  0.12334238023E+04  0.12447579827E+04  0.12499839271E+03 0.  0.
          2    1    1    2  501    0  0.10581647241E+02 -0.19793308468E+02 -0.29333939565E+03  0.29419678339E+03  0.00000000000E+00 0. -1.
          1    1    1    2  502    0 -0.11143248838E+03 -0.28088514657E+02  0.37679438881E+03  0.39392915043E+03  0.00000000000E+00 0. -1.
         22    1    3    3    0    0  0.12425961758E+03  0.62549430279E+02  0.97796448158E+03  0.98780940014E+03  0.00000000000E+00 0.  1.
         22    1    3    3    0    0 -0.23408776436E+02 -0.14667607155E+02  0.25545932073E+03  0.25694858252E+03  0.00000000000E+00 0.  1.
</event>
<event>
 7    1  0.5064652E-006  0.1114878E+03  0.7818608E-02  0.1329960E+00
          2   -1    0    0  502    0  0.00000000000E+00  0.00000000000E+00  0.58799927416E+03  0.58799927416E+03  0.00000000000E+00 0. -1.
          1   -1    0    0  501    0 -0.00000000000E+00 -0.00000000000E+00 -0.97117760712E+03  0.97117760712E+03  0.00000000000E+00 0. -1.
         25    2    1    2    0    0  0.80303097911E+02 -0.54657977395E+02 -0.43074911744E+02  0.16406204149E+03  0.12499929364E+03 0.  0.
          2    1    1    2  501    0 -0.31593608897E+02 -0.47380670293E+02 -0.86059829037E+03  0.86248043539E+03  0.00000000000E+00 0. -1.
          1    1    1    2  502    0 -0.48709489014E+02  0.10203864769E+03  0.52049486915E+03  0.53263440441E+03  0.00000000000E+00 0. -1.
         22    1    3    3    0    0  0.30615074311E+02  0.26995581840E+02 -0.54181234999E+02  0.67835465945E+02  0.00000000000E+00 0. -1.
         22    1    3    3    0    0  0.49688023599E+02 -0.81653559235E+02  0.11106323255E+02  0.96226575545E+02  0.00000000000E+00 0. -1.
</event>
<event>
 7    1  0.5064652E-006  0.1743360E+03  0.7818608E-02  0.1180413E+00
          2   -1    0    0  502    0  0.00000000000E+00  0.00000000000E+00  0.17871906253E+04  0.17871906253E+04  0.00000000000E+00 0. -1.
          1   -1    0    0  501    0 -0.00000000000E+00 -0.00000000000E+00 -0.28251925227E+03  0.28251925227E+03  0.00000000000E+00 0. -1.
         25    2    1    2    0    0  0.95937460616E+02  0.23556894786E+02  0.17877229677E+03  0.23945723488E+03  0.12498523755E+03 0.  0.
          2    1    1    2  501    0 -0.14668834542E+03  0.12929196404E+03 -0.20941700341E+03  0.28651241503E+03  0.00000000000E+00 0. -1.
          1    1    1    2  502    0  0.50750884804E+02 -0.15284885883E+03  0.15353160797E+04  0.15437402277E+04  0.00000000000E+00 0. -1.
         22    1    3    3    0    0  0.28595669608E+02  0.47583463949E+02  0.15414194291E+03  0.16383417509E+03  0.00000000000E+00 0.  1.
         22    1    3    3    0    0  0.67341791009E+02 -0.24026569163E+02  0.24630353855E+02  0.75623059797E+02  0.00000000000E+00 0.  1.
</event>
<event>
 7    1  0.5064652E-006  0.1512821E+03  0.7818608E-02  0.1286216E+00
          2   -1    0    0  502    0  0.00000000000E+00  0.00000000000E+00  0.46457600446E+04  0.46457600446E+04  0.00000000000E+00 0. -1.
          1   -1    0    0  501    0 -0.00000000000E+00 -0.00000000000E+00 -0.70939655362E+02  0.70939655362E+02  0.00000000000E+00 0. -1.
         25    2    1    2    0    0  0.16535691793E+02 -0.19325034120E+03  0.34155801185E+03  0.41219612545E+03  0.12499858761E+03 0.  0.
          2    1    1    2  501    0  0.96695824866E+01  0.13651046583E+03  0.96937500476E+02  0.16770655057E+03  0.00000000000E+00 0. -1.
          1    1    1    2  502    0 -0.26205274279E+02  0.56739875372E+02  0.41363248770E+04  0.41367970240E+04  0.00000000000E+00 0. -1.
         22    1    3    3    0    0  0.14402815265E+02  0.10780984054E+02  0.50954801670E+01  0.18698519270E+02  0.00000000000E+00 0.  1.
         22    1    3    3    0    0  0.21328765271E+01 -0.20403132526E+03  0.33646253168E+03  0.39349760618E+03  0.00000000000E+00 0.  1.
</event>
<event>
 7    1  0.5064652E-006  0.1894759E+03  0.7818608E-02  0.1194494E+00
          2   -1    0    0  502    0  0.00000000000E+00  0.00000000000E+00  0.11455470599E+04  0.11455470599E+04  0.00000000000E+00 0. -1.
          1   -1    0    0  501    0 -0.00000000000E+00 -0.00000000000E+00 -0.18725687848E+03  0.18725687848E+03  0.00000000000E+00 0. -1.
         25    2    1    2    0    0 -0.10889871585E+03  0.24706030341E+02  0.79119142172E+01  0.16782421970E+03  0.12503220418E+03 0.  0.
          2    1    1    2  501    0 -0.78102372097E+02 -0.99828749339E+02 -0.56037294361E+02  0.13858549015E+03  0.00000000000E+00 0. -1.
          1    1    1    2  502    0  0.18700108795E+03  0.75122718998E+02  0.10064155616E+04  0.10263942285E+04  0.00000000000E+00 0. -1.
         22    1    3    3    0    0 -0.16459297582E+02 -0.36656379296E+02  0.35362512173E+02  0.53526683879E+02  0.00000000000E+00 0.  1.
         22    1    3    3    0    0 -0.92439418267E+02  0.61362409637E+02 -0.27450597956E+02  0.11429753582E+03  0.00000000000E+00 0.  1.
</event>
<event>
 7    1  0.5064652E-006  0.1496155E+03  0.7818608E-02  0.1298270E+00
          2   -1    0    0  502    0  0.00000000000E+00  0.00000000000E+00  0.39152833987E+03  0.39152833987E+03  0.00000000000E+00 0. -1.
          1   -1    0    0  501    0 -0.00000000000E+00 -0.00000000000E+00 -0.47534608498E+03  0.47534608498E+03  0.00000000000E+00 0. -1.
         25    2    1    2    0    0 -0.12929055930E+03  0.36752337282E+02 -0.11733496434E+03  0.21785717200E+03  0.12500988168E+03 0.  0.
          2    1    1    2  501    0  0.12800744916E+03 -0.93209753809E+02 -0.28472959350E+03  0.32579887455E+03  0.00000000000E+00 0. -1.
          1    1    1    2  502    0  0.12831101411E+01  0.56457416527E+02  0.31824681273E+03  0.32321837829E+03  0.00000000000E+00 0. -1.
         22    1    3    3    0    0 -0.10227399002E+03  0.19047543918E+02 -0.85560880580E+01  0.10438383307E+03  0.00000000000E+00 0. -1.
         22    1    3    3    0    0 -0.27016569283E+02  0.17704793364E+02 -0.10877887628E+03  0.11347333894E+03  0.00000000000E+00 0. -1.
</event>
<event>
 7    1  0.5064652E-006  0.1159692E+03  0.7818608E-02  0.1298721E+00
          2   -1    0    0  502    0  0.00000000000E+00  0.00000000000E+00  0.60381656721E+03  0.60381656721E+03  0.00000000000E+00 0. -1.
          1   -1    0    0  501    0 -0.00000000000E+00 -0.00000000000E+00 -0.35546064796E+03  0.35546064796E+03  0.00000000000E+00 0. -1.
         25    2    1    2    0    0  0.15966951703E+02 -0.17858044522E+03  0.71053179108E+02  0.22982509109E+03  0.12500039709E+03 0.  0.
          2    1    1    2  501    0 -0.24710601549E+02  0.68215606087E+02 -0.26435462721E+03  0.27413017285E+03  0.00000000000E+00 0. -1.
          1    1    1    2  502    0  0.87436498462E+01  0.11036483913E+03  0.44165736735E+03  0.45532195122E+03  0.00000000000E+00 0. -1.
         22    1    3    3    0    0  0.24544470690E+02  0.95915671767E+01 -0.47511034092E+01  0.26776896497E+02  0.00000000000E+00 0.  1.
         22    1    3    3    0    0 -0.85775189872E+01 -0.18817201239E+03  0.75804282517E+02  0.20304819460E+03  0.00000000000E+00 0.  1.
</event>
<event>
 7    1  0.5064652E-006  0.5522174E+02  0.7818608E-02  0.1520498E+00
          2   -1    0    0  502    0  0.00000000000E+00  0.00000000000E+00  0.14061143616E+04  0.14061143616E+04  0.00000000000E+00 0. -1.
          1   -1    0    0  501    0 -0.00000000000E+00 -0.00000000000E+00 -0.19926824996E+04  0.19926824996E+04  0.00000000000E+00 0. -1.
         25    2    1    2    0    0  0.13350319161E+02  0.26375543250E+02 -0.15222033272E+03  0.19917480953E+03  0.12500269898E+03 0.  0.
          2    1    1    2  501    0 -0.31464733289E+02 -0.45952823543E+02 -0.18164294636E+04  0.18172830511E+04  0.00000000000E+00 0. -1.
          1    1    1    2  502    0  0.18114414129E+02  0.19577280293E+02  0.13820816584E+04  0.13823390006E+04  0.00000000000E+00 0. -1.
         22    1    3    3    0    0  0.11738730534E+01 -0.34175717216E+02  0.75221248129E+00  0.34204143738E+02  0.00000000000E+00 0. -1.
         22    1    3    3    0    0  0.12176446107E+02  0.60551260467E+02 -0.15297254521E+03  0.16497066579E+03  0.00000000000E+00 0. -1.
</event>
<event>
 7    1  0.5064652E-006  0.8392062E+02  0.7818608E-02  0.1436008E+00
          2   -1    0    0  502    0  0.00000000000E+00  0.00000000000E+00  0.11511305706E+04  0.11511305706E+04  0.00000000000E+00 0. -1.
          1   -1    0    0  501    0 -0.00000000000E+00 -0.00000000000E+00 -0.12364946609E+03  0.12364946609E+03  0.00000000000E+00 0. -1.
         25    2    1    2    0    0 -0.73737501713E+01  0.79078925084E+02  0.55206994460E+02  0.15805466484E+03  0.12500246501E+03 0.  0.
          2    1    1    2  501    0  0.39223625627E+02 -0.76683157814E+02 -0.46206714575E+02  0.97743848766E+02  0.00000000000E+00 0. -1.
          1    1    1    2  502    0 -0.31849875456E+02 -0.23957672699E+01  0.10184808246E+04  0.10189815231E+04  0.00000000000E+00 0. -1.
         22    1    3    3    0    0 -0.30797792001E+02 -0.52461494235E+01 -0.24482527097E+02  0.39691563448E+02  0.00000000000E+00 0.  1.
         22    1    3    3    0    0  0.23424041830E+02  0.84325074508E+02  0.79689521556E+02  0.11836310140E+03  0.00000000000E+00 0.  1.
</event>
<event>
 7    1  0.5064652E-006  0.1442983E+03  0.7818608E-02  0.1214140E+00
          2   -1    0    0  502    0  0.00000000000E+00  0.00000000000E+00  0.13351390136E+04  0.13351390136E+04  0.00000000000E+00 0. -1.
          1   -1    0    0  501    0 -0.00000000000E+00 -0.00000000000E+00 -0.26533975493E+03  0.26533975493E+03  0.00000000000E+00 0. -1.
         25    2    1    2    0    0  0.22640977278E+03 -0.58782371682E+02  0.99740773045E+02  0.28335528554E+03  0.12500097441E+03 0.  0.
          2    1    1    2  501    0 -0.96603574897E+02  0.94630390371E+02 -0.14249567043E+03  0.19644891844E+03  0.00000000000E+00 0. -1.
          1    1    1    2  502    0 -0.12980619788E+03 -0.35848018689E+02  0.11125541561E+04  0.11206745646E+04  0.00000000000E+00 0. -1.
         22    1    3    3    0    0 -0.91367212056E+01  0.16248904528E+01  0.28488914542E+02  0.29962279539E+02  0.00000000000E+00 0. -1.
         22    1    3    3    0    0  0.23554649399E+03 -0.60407262135E+02  0.71251858503E+02  0.25339300600E+03  0.00000000000E+00 0. -1.
</event>
<event>
 7    1  0.5064652E-006  0.1514909E+03  0.7818608E-02  0.1386956E+00
          2   -1    0    0  502    0  0.00000000000E+00  0.00000000000E+00  0.25208363870E+04  0.25208363870E+04  0.00000000000E+00 0. -1.
          1   -1    0    0  501    0 -0.00000000000E+00 -0.00000000000E+00 -0.21891643515E+03  0.21891643515E+03  0.00000000000E+00 0. -1.
         25    2    1    2    0    0  0.13964203220E+03 -0.44805397731E+02  0.14319771260E+04  0.14448844473E+04  0.12500062391E+03 0.  0.
          2    1    1    2  501    0 -0.15014569410E+03  0.21102441470E+02 -0.18523258691E+03  0.23937450522E+03  0.00000000000E+00 0. -1.
          1    1    1    2  502    0  0.10503661907E+02  0.23702956262E+02  0.10551754127E+04  0.10554938696E+04  0.00000000000E+00 0. -1.
         22    1    3    3    0    0  0.47057729376E+02 -0.40959486683E+02  0.10491087284E+04  0.10509620514E+04  0.00000000000E+00 0.  1.
         22    1    3    3    0    0  0.92584302822E+02 -0.38459110484E+01  0.38286839757E+03  0.39392239593E+03  0.00000000000E+00 0.  1.
</event>
<event>
 7    1  0.5064652E-006  0.1050378E+03  0.7818608E-02  0.1313207E+00
          2   -1    0    0  502    0  0.00000000000E+00  0.00000000000E+00  0.12968053769E+03  0.12968053769E+03  0.00000000000E+00 0. -1.
          1   -1    0    0  501    0 -0.00000000000E+00 -0.00000000000E+00 -0.10271034347E+04  0.10271034347E+04  0.00000000000E+00 0. -1.
         25    2    1    2    0    0 -0.15291384544E+03 -0.22486178485E+02 -0.25197109583E+03  0.32094077461E+03  0.12500110129E+03 0.  0.
          2    1    1    2  501    0  0.88052384173E+02  0.49281877954E+02 -0.72371954879E+03  0.73072013189E+03  0.00000000000E+00 0. -1.
          1    1    1    2  502    0  0.64861461265E+02 -0.26795699469E+02  0.78267747607E+02  0.10512306589E+03  0.00000000000E+00 0. -1.
         22    1    3    3    0    0 -0.64679734689E+02 -0.71211860699E+02 -0.10164801721E+03  0.13995326573E+03  0.00000000000E+00 0. -1.
         22    1    3    3    0    0 -0.88234110749E+02  0.48725682213E+02 -0.15032307862E+03  0.18098750889E+03  0.00000000000E+00 0. -1.
</event>
<event>
 7    1  0.5064652E-006  0.5832529E+02  0.7818608E-02  0.1455671E+00
          2   -1    0    0  502    0  0.00000000000E+00  0.00000000000E+00  0.15246014379E+04  0.15246014379E+04  0.00000000000E+00 0. -1.
          1   -1    0    0  501    0 -0.00000000000E+00 -0.00000000000E+00 -0.16032373586E+03  0.16032373586E+03  0.00000000000E+00 0. -1.
         25    2    1    2    0    0  0.71218195039E+02  0.49053144266E+02  0.27437420292E+03  0.31366290231E+03  0.12499988315E+03 0.  0.
          2    1    1    2  501    0 -0.14968959670E+02 -0.36796112205E+02 -0.13718673181E+03  0.14282234773E+03  0.00000000000E+00 0. -1.
          1    1    1    2  502    0 -0.56249235368E+02 -0.12257032061E+02  0.12270902310E+04  0.12284399237E+04  0.00000000000E+00 0. -1.
         22    1    3    3    0    0  0.80367665966E+02  0.77757184989E+02  0.15877616952E+03  0.19420353642E+03  0.00000000000E+00 0.  1.
         22    1    3    3    0    0 -0.91494709274E+01 -0.28704040723E+02  0.11559803340E+03  0.11945936589E+03  0.00000000000E+00 0.  1.
</event>
<event>
 7    1  0.5064652E-006  0.8088470E+02  0.7818608E-02  0.1390201E+00
          2   -1    0    0  502    0  0.00000000000E+00  0.00000000000E+00  0.18995346268E+04  0.18995346268E+04  0.00000000000E+00 0. -1.
          1   -1    0    0  501    0 -0.00000000000E+00 -0.00000000000E+00 -0.97224555961E+03  0.97224555961E+03  0.00000000000E+00 0. -1.
         25    2    1    2    0    0 -0.51200728604E+02 -0.35525116059E+02  0.18621768659E+02  0.14091180622E+03  0.12500327349E+03 0.  0.
          2    1    1    2  501    0  0.81564278070E+02 -0.74909460042E+00 -0.90896657111E+03  0.91261904429E+03  0.00000000000E+00 0. -1.
          1    1    1    2  502    0 -0.30363549466E+02  0.36274210659E+02  0.18176338696E+04  0.18182493359E+04  0.00000000000E+00 0. -1.
         22    1    3    3    0    0 -0.69654797959E+02 -0.58530529870E+02  0.44857626630E+02  0.10143875232E+03  0.00000000000E+00 0.  1.
         22    1    3    3    0    0  0.18454069355E+02  0.23005413811E+02 -0.26235857971E+02  0.39473053896E+02  0.00000000000E+00 0.  1.
</event>
<event>
 7    1  0.5064652E-006  0.4601148E+02  0.7818608E-02  0.1521801E+00
          2   -1    0    0  502    0  0.00000000000E+00  0.00000000000E+00  0.61832869670E+03  0.61832869670E+03  0.00000000000E+00 0. -1.
          1   -1    0    0  501    0 -0.00000000000E+00 -0.00000000000E+00 -0.25218007505E+03  0.25218007505E+03  0.00000000000E+00 0. -1.
         25    2    1    2    0    0 -0.43953392676E+02 -0.12533806566E+02 -0.14961508392E+02  0.13393175137E+03  0.12499948103E+03 0.  0.
          2    1    1    2  501    0  0.42432046136E+02 -0.19163532176E+02 -0.17422356065E+03  0.18033737436E+03  0.00000000000E+00 0. -1.
          1    1    1    2  502    0  0.15213465402E+01  0.31697338742E+02  0.55533369069E+03  0.55623964601E+03  0.00000000000E+00 0. -1.
         22    1    3    3    0    0  0.35456437885E+02  0.63735435222E+01  0.24195844838E+02  0.43396082219E+02  0.00000000000E+00 0. -1.
         22    1    3    3    0    0 -0.79409830561E+02 -0.18907350088E+02 -0.39157353231E+02  0.90535669154E+02  0.00000000000E+00 0. -1.
</event>
<event>
 7    1  0.5064652E-006  0.3318584E+03  0.7818608E-02  0.1242024E+00
          2   -1    0    0  502    0  0.00000000000E+00  0.00000000000E+00  0.14398560827E+04  0.14398560827E+04  0.00000000000E+00 0. -1.
          1   -1    0    0  501    0 -0.00000000000E+00 -0.00000000000E+00 -0.40728889088E+03  0.40728889088E+03  0.00000000000E+00 0. -1.
         25    2    1    2    0    0 -0.67682359445E+02  0.30025469871E+03  0.12005659166E+03  0.35323874771E+03  0.12502096546E+03 0.  0.
          2    1    1    2  501    0  0.10267753383E+03 -0.32670267473E+03 -0.18925128428E+03  0.39127146872E+03  0.00000000000E+00 0. -1.
          1    1    1    2  502    0 -0.34995174389E+02  0.26447976018E+02  0.11017618844E+04  0.11026347571E+04  0.00000000000E+00 0. -1.
         22    1    3    3    0    0 -0.77331893847E+02  0.12877619675E+03  0.99698118203E+02  0.18028656475E+03  0.00000000000E+00 0.  1.
         22    1    3    3    0    0  0.96495344019E+01  0.17147850196E+03  0.20358473454E+02  0.17295218296E+03  0.00000000000E+00 0.  1.
</event>
<event>
 7    1  0.5064652E-006  0.1502244E+03  0.7818608E-02  0.1410178E+00
          2   -1    0    0  502    0  0.00000000000E+00  0.00000000000E+00  0.35136243745E+04  0.35136243745E+04  0.00000000000E+00 0. -1.
          1   -1    0    0  501    0 -0.00000000000E+00 -0.00000000000E+00 -0.14432561677E+03  0.14432561677E+03  0.00000000000E+00 0. -1.
         25    2    1    2    0    0  0.17758906950E+02  0.14123170409E+03  0.24391101949E+04  0.24464557781E+04  0.12500223387E+03 0.  0.
          2    1    1    2  501    0  0.70455317630E+01  0.20571766882E+02 -0.13351235592E+03  0.13527152802E+03  0.00000000000E+00 0. -1.
          1    1    1    2  502    0 -0.24804438713E+02 -0.16180347097E+03  0.10637009187E+04  0.10762226851E+04  0.00000000000E+00 0. -1.
         22    1    3    3    0    0 -0.12146392374E+02 -0.76650961462E+01  0.84627230933E+03  0.84639418126E+03  0.00000000000E+00 0.  1.
         22    1    3    3    0    0  0.29905299323E+02  0.14889680024E+03  0.15928378856E+04  0.16000615969E+04  0.00000000000E+00 0.  1.
</event>
<event>
 7    1  0.5064652E-006  0.4392199E+02  0.7818608E-02  0.1551551E+00
          2   -1    0    0  502    0  0.00000000000E+00  0.00000000000E+00  0.21855070642E+03  0.21855070642E+03  0.00000000000E+00 0. -1.
          1   -1    0    0  501    0 -0.00000000000E+00 -0.00000000000E+00 -0.72623121967E+03  0.72623121967E+03  0.00000000000E+00 0. -1.
         25    2    1    2    0    0 -0.63747335355E+02  0.27234497287E+02 -0.66692978602E+02  0.15772810908E+03  0.12499904956E+03 0.  0.
          2    1    1    2  501    0  0.42279257815E+02 -0.10262078674E+02 -0.61216170482E+03  0.61370579169E+03  0.00000000000E+00 0. -1.
          1    1    1    2  502    0  0.21468077540E+02 -0.16972418613E+02  0.17117417018E+03  0.17334802532E+03  0.00000000000E+00 0. -1.
         22    1    3    3    0    0 -0.52493304531E+02 -0.37204436136E+02 -0.43233095512E-01  0.64340647789E+02  0.00000000000E+00 0.  1.
         22    1    3    3    0    0 -0.11254030824E+02  0.64438933423E+02 -0.66649745506E+02  0.93387461292E+02  0.00000000000E+00 0.  1.
</event>
<event>
 7    1  0.5064652E-006  0.4132134E+02  0.7818608E-02  0.1599031E+00
          2   -1    0    0  502    0  0.00000000000E+00  0.00000000000E+00  0.96346128427E+02  0.96346128427E+02  0.00000000000E+00 0. -1.
          1   -1    0    0  501    0 -0.00000000000E+00 -0.00000000000E+00 -0.18258053384E+04  0.18258053384E+04  0.00000000000E+00 0. -1.
         25    2    1    2    0    0 -0.26748237155E+02 -0.20841289550E+02 -0.98215248120E+03  0.99065592321E+03  0.12500333724E+03 0.  0.
          2    1    1    2  501    0  0.12197381283E+02 -0.17895776175E+02 -0.83460537726E+03  0.83488632201E+03  0.00000000000E+00 0. -1.
          1    1    1    2  502    0  0.14550855872E+02  0.38737065725E+02  0.87298648503E+02  0.96609221600E+02  0.00000000000E+00 0. -1.
         22    1    3    3    0    0  0.14547888986E+02  0.37405542863E+02 -0.63335515043E+03  0.63462552918E+03  0.00000000000E+00 0.  1.
         22    1    3    3    0    0 -0.41296126141E+02 -0.58246832413E+02 -0.34879733078E+03  0.35603039404E+03  0.00000000000E+00 0.  1.
</event>
<event>
 7    1  0.5064652E-006  0.8179493E+02  0.7818608E-02  0.1489376E+00
          2   -1    0    0  502    0  0.00000000000E+00  0.00000000000E+00  0.22031616880E+02  0.22031616880E+02  0.00000000000E+00 0. -1.
          1   -1    0    0  501    0 -0.00000000000E+00 -0.00000000000E+00 -0.20748066353E+04  0.20748066353E+04  0.00000000000E+00 0. -1.
         25    2    1    2    0    0 -0.66958350396E+02 -0.22039594395E+02 -0.15223984358E+04  0.15291471863E+04  0.12499982208E+03 0.  0.
          2    1    1    2  501    0 -0.28754416285E+01 -0.22082395627E+02 -0.45597834493E+03  0.45652179730E+03  0.00000000000E+00 0. -1.
          1    1    1    2  502    0  0.69833792024E+02  0.44121990022E+02 -0.74398237655E+02  0.11116926859E+03  0.00000000000E+00 0. -1.
         22    1    3    3    0    0 -0.12130131299E+02 -0.27716382154E+02 -0.77475764407E+02  0.83173505369E+02  0.00000000000E+00 0.  1.
         22    1    3    3    0    0 -0.54828219097E+02  0.56767877591E+01 -0.14449226714E+04  0.14459736809E+04  0.00000000000E+00 0.  1.
</event>
<event>
 7    1  0.5064652E-006  0.6573555E+02  0.7818608E-02  0.1402283E+00
          2   -1    0    0  502    0  0.00000000000E+00  0.00000000000E+00  0.79207145133E+03  0.79207145133E+03  0.00000000000E+00 0. -1.
          1   -1    0    0  501    0 -0.00000000000E+00 -0.00000000000E+00 -0.49722031202E+02  0.49722031202E+02  0.00000000000E+00 0. -1.
         25    2    1    2    0    0  0.32110469446E+02  0.14814671471E+02  0.46341989108E+03  0.48128323046E+03  0.12499998295E+03 0.  0.
          2    1    1    2  501    0  0.42330222647E+02  0.31674167450E+02 -0.14020340979E+02  0.54696166174E+02  0.00000000000E+00 0. -1.
          1    1    1    2  502    0 -0.74440692093E+02 -0.46488838921E+02  0.29294987003E+03  0.30581408590E+03  0.00000000000E+00 0. -1.
         22    1    3    3    0    0  0.27786599868E+02  0.50996019215E+02  0.42257376838E+03  0.42654575233E+03  0.00000000000E+00 0. -1.
         22    1    3    3    0    0  0.43238695783E+01 -0.36181347744E+02  0.40846122696E+02  0.54737478130E+02  0.00000000000E+00 0. -1.
</event>
<event>
 7    1  0.5064652E-006  0.7427596E+02  0.7818608E-02  0.1385823E+00
          2   -1    0    0  502    0  0.00000000000E+00  0.00000000000E+00  0.46322869734E+02  0.46322869734E+02  0.00000000000E+00 0. -1.
          1   -1    0    0  501    0 -0.00000000000E+00 -0.00000000000E+00 -0.33454797578E+04  0.33454797578E+04  0.00000000000E+00 0. -1.
         25    2    1    2    0    0  0.54794076205E+02 -0.36107301733E+02 -0.72873592343E+03  0.74228483413E+03  0.12499840339E+03 0.  0.
          2    1    1    2  501    0 -0.75248113387E+02 -0.13181074977E+02 -0.25911450590E+04  0.25922709611E+04  0.00000000000E+00 0. -1.
          1    1    1    2  502    0  0.20454037182E+02  0.49288376710E+02  0.20724094360E+02  0.57246832251E+02  0.00000000000E+00 0. -1.
         22    1    3    3    0    0 -0.15986782325E+02  0.56069815185E+01 -0.11774503772E+02  0.20631393311E+02  0.00000000000E+00 0.  1.
         22    1    3    3    0    0  0.70780858530E+02 -0.41714283251E+02 -0.71696141966E+03  0.72165344082E+03  0.00000000000E+00 0.  1.
</event>
<event>
 7    1  0.5064652E-006  0.5889083E+02  0.7818608E-02  0.1421038E+00
          2   -1    0    0  502    0  0.00000000000E+00  0.00000000000E+00  0.94901507515E+03  0.94901507515E+03  0.00000000000E+00 0. -1.
          1   -1    0    0  501    0 -0.00000000000E+00 -0.00000000000E+00 -0.14019164317E+03  0.14019164317E+03  0.00000000000E+00 0. -1.
         25    2    1    2    0    0  0.15821667598E+02 -0.10498874909E+03  0.35829103203E+03  0.39404357428E+03  0.12499964880E+03 0.  0.
          2    1    1    2  501    0 -0.10423814745E+02  0.49920119604E+02 -0.11559176544E+03  0.12634132535E+03  0.00000000000E+00 0. -1.
          1    1    1    2  502    0 -0.53978528525E+01  0.55068629486E+02  0.56612416539E+03  0.56882181869E+03  0.00000000000E+00 0. -1.
         22    1    3    3    0    0 -0.13437369928E+02 -0.55096872484E+02  0.31928241221E+03  0.32427995161E+03  0.00000000000E+00 0.  1.
         22    1    3    3    0    0  0.29259037526E+02 -0.49891876606E+02  0.39008619815E+02  0.69763622670E+02  0.00000000000E+00 0.  1.
</event>
<event>
 7    1  0.5064652E-006  0.4380075E+02  0.7818608E-02  0.1523590E+00
          2   -1    0    0  502    0  0.00000000000E+00  0.00000000000E+00  0.43642638467E+03  0.43642638467E+03  0.00000000000E+00 0. -1.
          1   -1    0    0  501    0 -0.00000000000E+00 -0.00000000000E+00 -0.15896501949E+04  0.15896501949E+04  0.00000000000E+00 0. -1.
         25    2    1    2    0    0  0.13164240945E+01 -0.11743247006E+02 -0.63094617216E+02  0.14051895249E+03  0.12500003386E+03 0.  0.
          2    1    1    2  501    0  0.15011526522E+02 -0.29321295841E+02 -0.14864327943E+04  0.14867977456E+04  0.00000000000E+00 0. -1.
          1    1    1    2  502    0 -0.16327950617E+02  0.41064542847E+02  0.39630360131E+03  0.39875988146E+03  0.00000000000E+00 0. -1.
         22    1    3    3    0    0  0.95605353076E+01 -0.73781389338E+01  0.37549368329E+02  0.39443577822E+02  0.00000000000E+00 0. -1.
         22    1    3    3    0    0 -0.82441112131E+01 -0.43651080726E+01 -0.10064398554E+03  0.10107537467E+03  0.00000000000E+00 0. -1.
</event>
<event>
 7    1  0.5064652E-006  0.2804152E+02  0.7818608E-02  0.1662338E+00
          2   -1    0    0  502    0  0.00000000000E+00  0.00000000000E+00  0.17915423801E+04  0.17915423801E+04  0.00000000000E+00 0. -1.
          1   -1    0    0  501    0 -0.00000000000E+00 -0.00000000000E+00 -0.17813844847E+02  0.17813844847E+02  0.00000000000E+00 0. -1.
         25    2    1    2    0    0  0.27562430792E+02  0.14597996944E+02  0.93559180466E+03  0.94442032173E+03  0.12499972019E+03 0.  0.
          2    1    1    2  501    0 -0.27325750447E+00 -0.22121594939E+02 -0.38650992237E+01  0.22458375372E+02  0.00000000000E+00 0. -1.
          1    1    1    2  502    0 -0.27289173287E+02  0.75235979958E+01  0.84200182978E+03  0.84247752780E+03  0.00000000000E+00 0. -1.
         22    1    3    3    0    0 -0.31189314151E+02  0.34389406489E+02  0.16702938263E+03  0.17336152762E+03  0.00000000000E+00 0. -1.
         22    1    3    3    0    0  0.58751744943E+02 -0.19791409545E+02  0.76856242202E+03  0.77105879411E+03  0.00000000000E+00 0. -1.
</event>
<event>
 7    1  0.5064652E-006  0.6066263E+02  0.7818608E-02  0.1492946E+00
          2   -1    0    0  502    0  0.00000000000E+00  0.00000000000E+00  0.78703914699E+03  0.78703914699E+03  0.00000000000E+00 0. -1.
          1   -1    0    0  501    0 -0.00000000000E+00 -0.00000000000E+00 -0.13184778454E+04  0.13184778454E+04  0.00000000000E+00 0. -1.
         25    2    1    2    0    0  0.67724361858E+02 -0.58612901467E+02 -0.49529558229E+02  0.16155559358E+03  0.12499988508E+03 0.  0.
          2    1    1    2  501    0 -0.45532240314E+02  0.39497167897E+02 -0.12118925508E+04  0.12133906073E+04  0.00000000000E+00 0. -1.
          1    1    1    2  502    0 -0.22192121543E+02  0.19115733570E+02  0.72998341066E+03  0.73057079148E+03  0.00000000000E+00 0. -1.
         22    1    3    3    0    0  0.25239981777E+02 -0.90745762254E+02 -0.89948480984E+01  0.94619011512E+02  0.00000000000E+00 0. -1.
         22    1    3    3    0    0  0.42484380081E+02  0.32132860786E+02 -0.40534710130E+02  0.66936582065E+02  0.00000000000E+00 0. -1.
</event>
<event>
 7    1  0.5064652E-006  0.3583131E+02  0.7818608E-02  0.1561280E+00
          2   -1    0    0  502    0  0.00000000000E+00  0.00000000000E+00  0.14746539408E+03  0.14746539408E+03  0.00000000000E+00 0. -1.
          1   -1    0    0  501    0 -0.00000000000E+00 -0.00000000000E+00 -0.54434165823E+03  0.54434165823E+03  0.00000000000E+00 0. -1.
         25    2    1    2    0    0  0.54608776119E+01 -0.16061125173E+01 -0.47046642862E+02  0.13368092706E+03  0.12499921149E+03 0.  0.
          2    1    1    2  501    0  0.25463687775E+02 -0.18595565993E+02 -0.45013372057E+03  0.45123670159E+03  0.00000000000E+00 0. -1.
          1    1    1    2  502    0 -0.30924565387E+02  0.20201678510E+02  0.10030409928E+03  0.10688942367E+03  0.00000000000E+00 0. -1.
         22    1    3    3    0    0 -0.56716103003E+02 -0.10466638882E+02 -0.45578806491E+01  0.57853618256E+02  0.00000000000E+00 0.  1.
         22    1    3    3    0    0  0.62176980615E+02  0.88605263645E+01 -0.42488762213E+02  0.75827308802E+02  0.00000000000E+00 0.  1.
</event>
<event>
 7    1  0.5064652E-006  0.2258311E+03  0.7818608E-02  0.1341598E+00
          2   -1    0    0  502    0  0.00000000000E+00  0.00000000000E+00  0.56818604232E+03  0.56818604232E+03  0.00000000000E+00 0. -1.
          1   -1    0    0  501    0 -0.00000000000E+00 -0.00000000000E+00 -0.66831210668E+03  0.66831210668E+03  0.00000000000E+00 0. -1.
         25    2    1    2    0    0  0.22886602664E+03 -0.35470982927E+02  0.11773987815E+02  0.26346427389E+03  0.12504778304E+03 0.  0.
          2    1    1    2  501    0 -0.43725574086E+01  0.25022064466E+02 -0.51280559437E+03  0.51343431964E+03  0.00000000000E+00 0. -1.
          1    1    1    2  502    0 -0.22449346923E+03  0.10448918461E+02  0.40090554220E+03  0.45959955547E+03  0.00000000000E+00 0. -1.
         22    1    3    3    0    0  0.90057252594E+02 -0.65120053379E+01 -0.56056509537E+02  0.10627815966E+03  0.00000000000E+00 0.  1.
         22    1    3    3    0    0  0.13880877405E+03 -0.28958977589E+02  0.67830497352E+02  0.15718611423E+03  0.00000000000E+00 0.  1.
</event>
<event>
 7    1  0.5064652E-006  0.1329541E+03  0.7818608E-02  0.1309009E+00
          2   -1    0    0  502    0  0.00000000000E+00  0.00000000000E+00  0.46200824266E+02  0.46200824266E+02  0.00000000000E+00 0. -1.
          1   -1    0    0  501    0 -0.00000000000E+00 -0.00000000000E+00 -0.12231082110E+04  0.12231082110E+04  0.00000000000E+00 0. -1.
         25    2    1    2    0    0  0.91586958248E+02 -0.80926237719E+02 -0.49780280647E+03  0.52760892820E+03  0.12500528036E+03 0.  0.
          2    1    1    2  501    0 -0.34685070838E+02 -0.45975807674E+02 -0.54654161462E+03  0.54956761690E+03  0.00000000000E+00 0. -1.
          1    1    1    2  502    0 -0.56901887410E+02  0.12690204539E+03 -0.13256296564E+03  0.19213249016E+03  0.00000000000E+00 0. -1.
         22    1    3    3    0    0 -0.18595211204E+02  0.23582987362E+01 -0.18150406395E+03  0.18246936369E+03  0.00000000000E+00 0. -1.
         22    1    3    3    0    0  0.11018216945E+03 -0.83284536455E+02 -0.31629874252E+03  0.34513956452E+03  0.00000000000E+00 0. -1.
</event>
<event>
 7    1  0.5064652E-006  0.6500560E+02  0.7818608E-02  0.1412379E+00
          2   -1    0    0  502    0  0.00000000000E+00  0.00000000000E+00  0.96802238620E+03  0.96802238620E+03  0.00000000000E+00 0. -1.
          1   -1    0    0  501    0 -0.00000000000E+00 -0.00000000000E+00 -0.13558017497E+03  0.13558017497E+03  0.00000000000E+00 0. -1.
         25    2    1    2    0    0  0.29618893124E+02  0.23978150127E+02  0.37345186979E+03  0.39565561054E+03  0.12499933035E+03 0.  0.
          2    1    1    2  501    0  0.42463726485E+02 -0.25236835106E+02 -0.11724147358E+03  0.12722275363E+03  0.00000000000E+00 0. -1.
          1    1    1    2  502    0 -0.72082619610E+02  0.12586849790E+01  0.57623181502E+03  0.58072419700E+03  0.00000000000E+00 0. -1.
         22    1    3    3    0    0 -0.13621296075E+02  0.15778829700E+02  0.33932258718E+03  0.33996224694E+03  0.00000000000E+00 0. -1.
         22    1    3    3    0    0  0.43240189199E+02  0.81993204270E+01  0.34129282609E+02  0.55693363598E+02  0.00000000000E+00 0. -1.
</event>
<event>
 7    1  0.5064652E-006  0.5557141E+02  0.7818608E-02  0.1465869E+00
          2   -1    0    0  502    0  0.00000000000E+00  0.00000000000E+00  0.25606877650E+04  0.25606877650E+04  0.00000000000E+00 0. -1.
          1   -1    0    0  501    0 -0.00000000000E+00 -0.00000000000E+00 -0.35494232207E+03  0.35494232207E+03  0.00000000000E+00 0. -1.
         25    2    1    2    0    0 -0.43781775796E+02  0.82769466799E+02  0.79365037906E+00  0.15619007870E+03  0.12500832884E+03 0.  0.
          2    1    1    2  501    0  0.13731029341E+02 -0.36202766297E+02 -0.27558121408E+03  0.27828795700E+03  0.00000000000E+00 0. -1.
          1    1    1    2  502    0  0.30050746455E+02 -0.46566700501E+02  0.24805330067E+04  0.24811520514E+04  0.00000000000E+00 0. -1.
         22    1    3    3    0    0  0.33764961516E+02  0.25330971262E+02 -0.33381687371E+02  0.53815125968E+02  0.00000000000E+00 0.  1.
         22    1    3    3    0    0 -0.77546737313E+02  0.57438495537E+02  0.34175337750E+02  0.10237495274E+03  0.00000000000E+00 0.  1.
</event>
<event>
 7    1  0.5064652E-006  0.9381140E+02  0.7818608E-02  0.1327666E+00
          2   -1    0    0  502    0  0.00000000000E+00  0.00000000000E+00  0.26389404538E+04  0.26389404538E+04  0.00000000000E+00 0. -1.
          1   -1    0    0  501    0 -0.00000000000E+00 -0.00000000000E+00 -0.29438390670E+04  0.29438390670E+04  0.00000000000E+00 0. -1.
         25    2    1    2    0    0  0.65764875943E+02  0.88702489026E+01  0.10357344461E+03  0.17537194078E+03  0.12499663580E+03 0.  0.
          2    1    1    2  501    0  0.81488234721E+01 -0.68577909951E+02 -0.29066265003E+04  0.29074468087E+04  0.00000000000E+00 0. -1.
          1    1    1    2  502    0 -0.73913699415E+02  0.59707661048E+02  0.24981544425E+04  0.24999607714E+04  0.00000000000E+00 0. -1.
         22    1    3    3    0    0  0.36224441056E+02  0.30522268531E+02  0.12448778154E+03  0.13319544571E+03  0.00000000000E+00 0. -1.
         22    1    3    3    0    0  0.29540434887E+02 -0.21652019629E+02 -0.20914336926E+02  0.42176495070E+02  0.00000000000E+00 0. -1.
</event>
<event>
 7    1  0.5064652E-006  0.4338547E+02  0.7818608E-02  0.1543834E+00
          2   -1    0    0  502    0  0.00000000000E+00  0.00000000000E+00  0.11180469636E+03  0.11180469636E+03  0.00000000000E+00 0. -1.
          1   -1    0    0  501    0 -0.00000000000E+00 -0.00000000000E+00 -0.10654576234E+04  0.10654576234E+04  0.00000000000E+00 0. -1.
         25    2    1    2    0    0 -0.38478216679E+02  0.51956333997E+02 -0.32687383612E+02  0.14447005728E+03  0.12499239417E+03 0.  0.
          2    1    1    2  501    0  0.26584916011E+02 -0.11877392179E+02 -0.96881483660E+03  0.96925229833E+03  0.00000000000E+00 0. -1.
          1    1    1    2  502    0  0.11893300668E+02 -0.40078941818E+02  0.47849293217E+02  0.63539964112E+02  0.00000000000E+00 0. -1.
         22    1    3    3    0    0  0.66106130359E+01  0.63256275271E+02  0.26764949667E+02  0.69003036865E+02  0.00000000000E+00 0. -1.
         22    1    3    3    0    0 -0.45088829715E+02 -0.11299941274E+02 -0.59452333279E+02  0.75467020414E+02  0.00000000000E+00 0. -1.
</event>
<event>
 7    1  0.5064652E-006  0.1390361E+03  0.7818608E-02  0.1285529E+00
          2   -1    0    0  502    0  0.00000000000E+00  0.00000000000E+00  0.62015759283E+03  0.62015759283E+03  0.00000000000E+00 0. -1.
          1   -1    0    0  501    0 -0.00000000000E+00 -0.00000000000E+00 -0.29152614223E+03  0.29152614223E+03  0.00000000000E+00 0. -1.
         25    2    1    2    0    0  0.64048771338E+02 -0.68400191087E+02  0.18231652298E+02  0.15728214242E+03  0.12499779169E+03 0.  0.
          2    1    1    2  501    0 -0.70986865953E+02  0.13649324472E+03 -0.19274790389E+03  0.24661973856E+03  0.00000000000E+00 0. -1.
          1    1    1    2  502    0  0.69380946149E+01 -0.68093053633E+02  0.50314770219E+03  0.50778185408E+03  0.00000000000E+00 0. -1.
         22    1    3    3    0    0  0.10444406740E+02  0.14298105228E+02  0.50554147071E+02  0.53565317429E+02  0.00000000000E+00 0.  1.
         22    1    3    3    0    0  0.53604364598E+02 -0.82698296315E+02 -0.32322494773E+02  0.10371682499E+03  0.00000000000E+00 0.  1.
</event>
<event>
 7    1  0.5064652E-006  0.2135587E+03  0.7818608E-02  0.1289893E+00
          2   -1    0    0  502    0  0.00000000000E+00  0.00000000000E+00  0.97574176245E+03  0.97574176245E+03  0.00000000000E+00 0. -1.
          1   -1    0    0  501    0 -0.00000000000E+00 -0.00000000000E+00 -0.48034473155E+03  0.48034473155E+03  0.00000000000E+00 0. -1.
         25    2    1    2    0    0  0.17610449419E+02 -0.19900132902E+03  0.54571645041E+02  0.24190352243E+03  0.12501037092E+03 0.  0.
          2    1    1    2  501    0 -0.59253237079E+02  0.20875823305E+03 -0.35561396429E+03  0.41659601242E+03  0.00000000000E+00 0. -1.
          1    1    1    2  502    0  0.41642787660E+02 -0.97569040240E+01  0.79643935015E+03  0.79758695915E+03  0.00000000000E+00 0. -1.
         22    1    3    3    0    0  0.61708416281E+02 -0.12883830804E+03  0.31968102117E+00  0.14285426299E+03  0.00000000000E+00 0.  1.
         22    1    3    3    0    0 -0.44097966862E+02 -0.70163020984E+02  0.54251964019E+02  0.99049259436E+02  0.00000000000E+00 0.  1.
</event>
<event>
 7    1  0.5064652E-006  0.3002574E+03  0.7818608E-02  0.1190774E+00
          2   -1    0    0  502    0  0.00000000000E+00  0.00000000000E+00  0.22929563164E+04  0.22929563164E+04  0.00000000000E+00 0. -1.
          1   -1    0    0  501    0 -0.00000000000E+00 -0.00000000000E+00 -0.11408339623E+03  0.11408339623E+03  0.00000000000E+00 0. -1.
         25    2    1    2    0    0 -0.31637721925E+03  0.12644509933E+03  0.11186661520E+04  0.11760619768E+04  0.12499962279E+03 0.  0.
          2    1    1    2  501    0  0.24214360955E+03 -0.16429187118E+03  0.17313594572E+03  0.34000206217E+03  0.00000000000E+00 0. -1.
          1    1    1    2  502    0  0.74233609699E+02  0.37846771851E+02  0.88707082249E+03  0.89097567366E+03  0.00000000000E+00 0. -1.
         22    1    3    3    0    0 -0.11236827813E+03  0.10383065554E+03  0.38684388999E+03  0.41599955551E+03  0.00000000000E+00 0.  1.
         22    1    3    3    0    0 -0.20400894112E+03  0.22614443789E+02  0.73182226201E+03  0.76006242132E+03  0.00000000000E+00 0.  1.
</event>
<event>
 7    1  0.5064652E-006  0.8894102E+02  0.7818608E-02  0.1442131E+00
          2   -1    0    0  502    0  0.00000000000E+00  0.00000000000E+00  0.68195900391E+03  0.68195900391E+03  0.00000000000E+00 0. -1.
          1   -1    0    0  501    0 -0.00000000000E+00 -0.00000000000E+00 -0.48352633241E+03  0.48352633241E+03  0.00000000000E+00 0. -1.
         25    2    1    2    0    0 -0.23431472054E+02 -0.77059423176E+02  0.60690500993E+03  0.62485692281E+03  0.12500117727E+03 0.  0.
          2    1    1    2  501    0 -0.27700048203E+01  0.88984104700E+02 -0.46699679738E+03  0.47540703884E+03  0.00000000000E+00 0. -1.
          1    1    1    2  502    0  0.26201476874E+02 -0.11924681524E+02  0.58524458948E+02  0.65221374679E+02  0.00000000000E+00 0. -1.
         22    1    3    3    0    0 -0.13249218212E+02  0.30037594881E+02  0.70485305313E+02  0.77755881800E+02  0.00000000000E+00 0. -1.
         22    1    3    3    0    0 -0.10182253842E+02 -0.10709701806E+03  0.53641970462E+03  0.54710104101E+03  0.00000000000E+00 0. -1.
</event>
<event>
 7    1  0.5064652E-006  0.5833141E+02  0.7818608E-02  0.1414122E+00
          2   -1    0    0  502    0  0.00000000000E+00  0.00000000000E+00  0.15802426506E+04  0.15802426506E+04  0.00000000000E+00 0. -1.
          1   -1    0    0  501    0 -0.00000000000E+00 -0.00000000000E+00 -0.15680708778E+02  0.15680708778E+02  0.00000000000E+00 0. -1.
         25    2    1    2    0    0  0.40977882231E+01 -0.36215662225E+02  0.56331755921E+03  0.57816918848E+03  0.12499828775E+03 0.  0.
          2    1    1    2  501    0 -0.54174452599E+02 -0.38155348925E+01  0.96430925338E+02  0.11067227739E+03  0.00000000000E+00 0. -1.
          1    1    1    2  502    0  0.50076664376E+02  0.40031197118E+02  0.90481345726E+03  0.90708189349E+03  0.00000000000E+00 0. -1.
         22    1    3    3    0    0 -0.57022880145E+02 -0.37932651950E+02  0.27046007803E+03  0.27899668234E+03  0.00000000000E+00 0. -1.
         22    1    3    3    0    0  0.61120668368E+02  0.17169897243E+01  0.29285748117E+03  0.29917250614E+03  0.00000000000E+00 0. -1.
</event>
<event>
 7    1  0.5064652E-006  0.1182707E+03  0.7818608E-02  0.1319642E+00
          2   -1    0    0  502    0  0.00000000000E+00  0.00000000000E+00  0.12319751176E+04  0.12319751176E+04  0.00000000000E+00 0. -1.
          1   -1    0    0  501    0 -0.00000000000E+00 -0.00000000000E+00 -0.37066047758E+03  0.37066047758E+03  0.00000000000E+00 0. -1.
         25    2    1    2    0    0  0.14798150621E+03 -0.69723379811E+02  0.11802573798E+03  0.23730998265E+03  0.12500430860E+03 0.  0.
          2    1    1    2  501    0 -0.89292837416E+02  0.73731040027E+02 -0.29938181866E+03  0.32099680750E+03  0.00000000000E+00 0. -1.
          1    1    1    2  502    0 -0.58688668793E+02 -0.40076602158E+01  0.10426707207E+04  0.10443288050E+04  0.00000000000E+00 0. -1.
         22    1    3    3    0    0  0.27174335338E+02 -0.24854640872E+02  0.10077137106E+03  0.10728964022E+03  0.00000000000E+00 0. -1.
         22    1    3    3    0    0  0.12080717087E+03 -0.44868738939E+02  0.17254366916E+02  0.13002034243E+03  0.00000000000E+00 0. -1.
</event>
<event>
 7    1  0.5064652E-006  0.9571906E+02  0.7818608E-02  0.1310346E+00
          2   -1    0    0  502    0  0.00000000000E+00  0.00000000000E+00  0.32393005531E+03  0.32393005531E+03  0.00000000000E+00 0. -1.
          1   -1    0    0  501    0 -0.00000000000E+00 -0.00000000000E+00 -0.20735275851E+04  0.20735275851E+04  0.00000000000E+00 0. -1.
         25    2    1    2    0    0 -0.16479073573E+03  0.39949242955E+02 -0.18103261299E+03  0.27775909210E+03  0.12500151073E+03 0.  0.
          2    1    1    2  501    0  0.93809045434E+02 -0.52012380717E+01 -0.18372402355E+04  0.18396409630E+04  0.00000000000E+00 0. -1.
          1    1    1    2  502    0  0.70981690295E+02 -0.34748004883E+02  0.26867531869E+03  0.28005758528E+03  0.00000000000E+00 0. -1.
         22    1    3    3    0    0 -0.71443642251E+02  0.79344559097E+02 -0.11444925944E+03  0.15651960281E+03  0.00000000000E+00 0.  1.
         22    1    3    3    0    0 -0.93347093478E+02 -0.39395316142E+02 -0.66583353547E+02  0.12123948929E+03  0.00000000000E+00 0.  1.
</event>
<event>
 7    1  0.5064652E-006  0.8195196E+02  0.7818608E-02  0.1401399E+00
          2   -1    0    0  502    0  0.00000000000E+00  0.00000000000E+00  0.30651997381E+03  0.30651997381E+03  0.00000000000E+00 0. -1.
          1   -1    0    0  501    0 -0.00000000000E+00 -0.00000000000E+00 -0.17973967288E+04  0.17973967288E+04  0.00000000000E+00 0. -1.
         25    2    1    2    0    0  0.56931733127E+02  0.99941272749E+02 -0.41640485677E+03  0.44971916130E+03  0.12499935624E+03 0.  0.
          2    1    1    2  501    0 -0.20853837861E+02 -0.77093426282E+02 -0.13615853916E+04  0.13639256056E+04  0.00000000000E+00 0. -1.
          1    1    1    2  502    0 -0.36077895265E+02 -0.22847846468E+02  0.28711349337E+03  0.29027193576E+03  0.00000000000E+00 0. -1.
         22    1    3    3    0    0 -0.20044617140E+01  0.38603476797E+02 -0.31499031634E+03  0.31735334514E+03  0.00000000000E+00 0. -1.
         22    1    3    3    0    0  0.58936194841E+02  0.61337795953E+02 -0.10141454044E+03  0.13236581616E+03  0.00000000000E+00 0. -1.
</event>
<event>
 7    1  0.5064652E-006  0.8929902E+02  0.7818608E-02  0.1413438E+00
          2   -1    0    0  502    0  0.00000000000E+00  0.00000000000E+00  0.24719631442E+03  0.24719631442E+03  0.00000000000E+00 0. -1.
          1   -1    0    0  501    0 -0.00000000000E+00 -0.00000000000E+00 -0.31224958371E+03  0.31224958371E+03  0.00000000000E+00 0. -1.
         25    2    1    2    0    0 -0.96644858715E+02  0.38820443669E+01 -0.10034983593E+03  0.18721675357E+03  0.12499889704E+03 0.  0.
          2    1    1    2  501    0  0.12450322482E+02 -0.33420325666E+02 -0.15659654719E+03  0.16060637375E+03  0.00000000000E+00 0. -1.
          1    1    1    2  502    0  0.84194536233E+02  0.29538281299E+02  0.19189311383E+03  0.21162277082E+03  0.00000000000E+00 0. -1.
         22    1    3    3    0    0  0.11839543839E+02  0.41196403240E+02 -0.21043340580E+02  0.47750818014E+02  0.00000000000E+00 0. -1.
         22    1    3    3    0    0 -0.10848440255E+03 -0.37314358873E+02 -0.79306495350E+02  0.13946593556E+03  0.00000000000E+00 0. -1.
</event>
<event>
 7    1  0.5064652E-006  0.3039888E+03  0.7818608E-02  0.1266958E+00
          2   -1    0    0  502    0  0.00000000000E+00  0.00000000000E+00  0.63173466270E+03  0.63173466270E+03  0.00000000000E+00 0. -1.
          1   -1    0    0  501    0 -0.00000000000E+00 -0.00000000000E+00 -0.68883763029E+03  0.68883763029E+03  0.00000000000E+00 0. -1.
         25    2    1    2    0    0 -0.29485695101E+03 -0.13579598449E+03 -0.56144432527E+03  0.66047483455E+03  0.12500442284E+03 0.  0.
          2    1    1    2  501    0  0.33404856432E+02 -0.16811046675E+02 -0.28665551056E+02  0.47119099535E+02  0.00000000000E+00 0. -1.
          1    1    1    2  502    0  0.26145209458E+03  0.15260703116E+03  0.53300690874E+03  0.61297835891E+03  0.00000000000E+00 0. -1.
         22    1    3    3    0    0  0.11859530291E+02 -0.11890776850E+02 -0.33102611822E+02  0.37119023994E+02  0.00000000000E+00 0.  1.
         22    1    3    3    0    0 -0.30671648130E+03 -0.12390520764E+03 -0.52834171345E+03  0.62335581055E+03  0.00000000000E+00 0.  1.
</event>
<event>
 7    1  0.5064652E-006  0.1585386E+03  0.7818608E-02  0.1351069E+00
          2   -1    0    0  502    0  0.00000000000E+00  0.00000000000E+00  0.22291078285E+04  0.22291078285E+04  0.00000000000E+00 0. -1.
          1   -1    0    0  501    0 -0.00000000000E+00 -0.00000000000E+00 -0.30009719641E+02  0.30009719641E+02  0.00000000000E+00 0. -1.
         25    2    1    2    0    0  0.11292763276E+03 -0.97290453673E+02  0.13313081105E+04  0.13454450573E+04  0.12499213741E+03 0.  0.
          2    1    1    2  501    0  0.32485873994E+02  0.75829576634E+01  0.45284808230E+01  0.33665121337E+02  0.00000000000E+00 0. -1.
          1    1    1    2  502    0 -0.14541350675E+03  0.89707496010E+02  0.86326151753E+03  0.88000736954E+03  0.00000000000E+00 0. -1.
         22    1    3    3    0    0  0.54383499879E+02 -0.11295048409E+03  0.69134073722E+03  0.70261468235E+03  0.00000000000E+00 0.  1.
         22    1    3    3    0    0  0.58544132878E+02  0.15660030416E+02  0.63996737327E+03  0.64283037490E+03  0.00000000000E+00 0.  1.
</event>
<event>
 7    1  0.5064652E-006  0.4310236E+02  0.7818608E-02  0.1498215E+00
          2   -1    0    0  502    0  0.00000000000E+00  0.00000000000E+00  0.30429884234E+02  0.30429884234E+02  0.00000000000E+00 0. -1.
          1   -1    0    0  501    0 -0.00000000000E+00 -0.00000000000E+00 -0.10497202510E+04  0.10497202510E+04  0.00000000000E+00 0. -1.
         25    2    1    2    0    0  0.23881162010E+02  0.62511994601E+02 -0.70305105043E+03  0.71720600062E+03  0.12500243377E+03 0.  0.
          2    1    1    2  501    0  0.84964887430E+01 -0.39454948714E+02 -0.32044245510E+03  0.32297407067E+03  0.00000000000E+00 0. -1.
          1    1    1    2  502    0 -0.32377650753E+02 -0.23057045886E+02  0.42031387897E+01  0.39970063910E+02  0.00000000000E+00 0. -1.
         22    1    3    3    0    0 -0.24674412319E+02  0.29860498674E+02 -0.57630576175E+03  0.57760610023E+03  0.00000000000E+00 0.  1.
         22    1    3    3    0    0  0.48555574330E+02  0.32651495926E+02 -0.12674528868E+03  0.13959990038E+03  0.00000000000E+00 0.  1.
</event>
<event>
 7    1  0.5064652E-006  0.1044528E+03  0.7818608E-02  0.1396123E+00
          2   -1    0    0  502    0  0.00000000000E+00  0.00000000000E+00  0.21323350470E+04  0.21323350470E+04  0.00000000000E+00 0. -1.
          1   -1    0    0  501    0 -0.00000000000E+00 -0.00000000000E+00 -0.97780184415E+02  0.97780184415E+02  0.00000000000E+00 0. -1.
         25    2    1    2    0    0  0.12029326833E+03 -0.31720184489E+02  0.61458233881E+03  0.63937950060E+03  0.12497221335E+03 0.  0.
          2    1    1    2  501    0 -0.10362540199E+03  0.10155298853E+01 -0.53653248020E+02  0.11669587080E+03  0.00000000000E+00 0. -1.
          1    1    1    2  502    0 -0.16667866338E+02  0.30704654604E+02  0.14736257718E+04  0.14740398600E+04  0.00000000000E+00 0. -1.
         22    1    3    3    0    0 -0.74887191309E+00  0.13458759077E+02  0.28587754823E+03  0.28619516346E+03  0.00000000000E+00 0. -1.
         22    1    3    3    0    0  0.12104214024E+03 -0.45178943567E+02  0.32870479058E+03  0.35318433715E+03  0.00000000000E+00 0. -1.
</event>
<event>
 7    1  0.5064652E-006  0.6005139E+02  0.7818608E-02  0.1407002E+00
          2   -1    0    0  502    0  0.00000000000E+00  0.00000000000E+00  0.11205411742E+04  0.11205411742E+04  0.00000000000E+00 0. -1.
          1   -1    0    0  501    0 -0.00000000000E+00 -0.00000000000E+00 -0.69759231616E+03  0.69759231616E+03  0.00000000000E+00 0. -1.
         25    2    1    2    0    0 -0.49237024576E+02  0.42183086939E+02 -0.99338633700E+02  0.17232508888E+03  0.12499629875E+03 0.  0.
          2    1    1    2  501    0 -0.95752058111E+01 -0.54936097997E+02 -0.55953824828E+03  0.56231015527E+03  0.00000000000E+00 0. -1.
          1    1    1    2  502    0  0.58812230387E+02  0.12753011058E+02  0.10818257400E+04  0.10834982462E+04  0.00000000000E+00 0. -1.
         22    1    3    3    0    0 -0.20351193312E+02  0.64051006000E+02 -0.11472726473E+03  0.13296258011E+03  0.00000000000E+00 0. -1.
         22    1    3    3    0    0 -0.28885831263E+02 -0.21867919061E+02  0.15388631026E+02  0.39362508771E+02  0.00000000000E+00 0. -1.
</event>
<event>
 7    1  0.5064652E-006  0.5372271E+02  0.7818608E-02  0.1515373E+00
          2   -1    0    0  502    0  0.00000000000E+00  0.00000000000E+00  0.73196898430E+03  0.73196898430E+03  0.00000000000E+00 0. -1.
          1   -1    0    0  501    0 -0.00000000000E+00 -0.00000000000E+00 -0.14720391346E+04  0.14720391346E+04  0.00000000000E+00 0. -1.
         25    2    1    2    0    0  0.63638821897E+02 -0.41271587956E+02  0.27887109868E+03  0.31487731667E+03  0.12500156500E+03 0.  0.
          2    1    1    2  501    0 -0.28188603020E+02  0.32456524785E+01 -0.14523440206E+04  0.14526211777E+04  0.00000000000E+00 0. -1.
          1    1    1    2  502    0 -0.35450218877E+02  0.38025935478E+02  0.43340277168E+03  0.43650962451E+03  0.00000000000E+00 0. -1.
         22    1    3    3    0    0  0.57687746766E+02  0.27694236191E+02  0.70031528766E+02  0.94864439420E+02  0.00000000000E+00 0. -1.
         22    1    3    3    0    0  0.59510751305E+01 -0.68965824147E+02  0.20883956991E+03  0.22001287725E+03  0.00000000000E+00 0. -1.
</event>
<event>
 7    1  0.5064652E-006  0.6865626E+02  0.7818608E-02  0.1376852E+00
          2   -1    0    0  502    0  0.00000000000E+00  0.00000000000E+00  0.73342201678E+03  0.73342201678E+03  0.00000000000E+00 0. -1.
          1   -1    0    0  501    0 -0.00000000000E+00 -0.00000000000E+00 -0.13817461555E+03  0.13817461555E+03  0.00000000000E+00 0. -1.
         25    2    1    2    0    0 -0.12696743010E+03 -0.21748262240E+02  0.71169926715E+02  0.19309530313E+03  0.12500768940E+03 0.  0.
          2    1    1    2  501    0  0.60799368675E+02  0.12667153793E+02 -0.62514319286E+02  0.88119578598E+02  0.00000000000E+00 0. -1.
          1    1    1    2  502    0  0.66168061422E+02  0.90811084473E+01  0.58659179380E+03  0.59038175060E+03  0.00000000000E+00 0. -1.
         22    1    3    3    0    0 -0.14970208909E+03 -0.23756655740E+02  0.76309716632E+02  0.16970052157E+03  0.00000000000E+00 0.  1.
         22    1    3    3    0    0  0.22734658992E+02  0.20083935001E+01 -0.51397899169E+01  0.23394781562E+02  0.00000000000E+00 0.  1.
</event>
<event>
 7    1  0.5064652E-006  0.4905804E+02  0.7818608E-02  0.1481926E+00
          2   -1    0    0  502    0  0.00000000000E+00  0.00000000000E+00  0.29527151956E+03  0.29527151956E+03  0.00000000000E+00 0. -1.
          1   -1    0    0  501    0 -0.00000000000E+00 -0.00000000000E+00 -0.29599259785E+03  0.29599259785E+03  0.00000000000E+00 0. -1.
         25    2    1    2    0    0  0.10749040409E+02 -0.72089253555E+01  0.35776897744E+02  0.13066148016E+03  0.12499970204E+03 0.  0.
          2    1    1    2  501    0  0.37950977966E+02 -0.94883396186E+01 -0.24384338060E+03  0.24696133215E+03  0.00000000000E+00 0. -1.
          1    1    1    2  502    0 -0.48700018375E+02  0.16697264974E+02  0.20734540457E+03  0.21364130510E+03  0.00000000000E+00 0. -1.
         22    1    3    3    0    0  0.55397989323E+02 -0.41620296592E+02  0.20389928168E+02  0.72228356482E+02  0.00000000000E+00 0. -1.
         22    1    3    3    0    0 -0.44648948914E+02  0.34411371237E+02  0.15386969576E+02  0.58433123674E+02  0.00000000000E+00 0. -1.
</event>
<event>
 7    1  0.5064652E-006  0.5733531E+02  0.7818608E-02  0.1437542E+00
          2   -1    0    0  502    0  0.00000000000E+00  0.00000000000E+00  0.10552490591E+04  0.10552490591E+04  0.00000000000E+00 0. -1.
          1   -1    0    0  501    0 -0.00000000000E+00 -0.00000000000E+00 -0.16397090398E+04  0.16397090398E+04  0.00000000000E+00 0. -1.
         25    2    1    2    0    0 -0.30974585168E+02  0.97548478143E+02  0.31942100275E+02  0.16468471547E+03  0.12500250887E+03 0.  0.
          2    1    1    2  501    0  0.19301151385E+02 -0.41991142995E+02 -0.15721558980E+04  0.15728350067E+04  0.00000000000E+00 0. -1.
          1    1    1    2  502    0  0.11673433783E+02 -0.55557335148E+02  0.95575381699E+03  0.95743837673E+03  0.00000000000E+00 0. -1.
         22    1    3    3    0    0 -0.77158002899E+01  0.72502874686E+02 -0.41345116318E+02  0.83818965964E+02  0.00000000000E+00 0. -1.
         22    1    3    3    0    0 -0.23258784878E+02  0.25045603456E+02  0.73287216593E+02  0.80865749502E+02  0.00000000000E+00 0. -1.
</event>
<event>
 7    1  0.5064652E-006  0.6823741E+02  0.7818608E-02  0.1418594E+00
          2   -1    0    0  502    0  0.00000000000E+00  0.00000000000E+00  0.23562786551E+03  0.23562786551E+03  0.00000000000E+00 0. -1.
          1   -1    0    0  501    0 -0.00000000000E+00 -0.00000000000E+00 -0.45889163377E+03  0.45889163377E+03  0.00000000000E+00 0. -1.
         25    2    1    2    0    0 -0.34363763759E+02 -0.72456692325E+02  0.78044414693E+01  0.14871526010E+03  0.12499791501E+03 0.  0.
          2    1    1    2  501    0 -0.10210109801E+02  0.67515606366E+02 -0.38215218476E+03  0.38820470858E+03  0.00000000000E+00 0. -1.
          1    1    1    2  502    0  0.44573873561E+02  0.49410859592E+01  0.15108397503E+03  0.15759953060E+03  0.00000000000E+00 0. -1.
         22    1    3    3    0    0 -0.19610930281E+02 -0.82583337481E+02  0.53026251819E+02  0.10008186448E+03  0.00000000000E+00 0. -1.
         22    1    3    3    0    0 -0.14752833478E+02  0.10126645156E+02 -0.45221810350E+02  0.48633395615E+02  0.00000000000E+00 0. -1.
</event>
<event>
 7    1  0.5064652E-006  0.9760927E+02  0.7818608E-02  0.1298191E+00
          2   -1    0    0  502    0  0.00000000000E+00  0.00000000000E+00  0.30354692107E+04  0.30354692107E+04  0.00000000000E+00 0. -1.
          1   -1    0    0  501    0 -0.00000000000E+00 -0.00000000000E+00 -0.44346795656E+02  0.44346795656E+02  0.00000000000E+00 0. -1.
         25    2    1    2    0    0  0.91671674111E+02 -0.13931908910E+03  0.86913239619E+03  0.89377243724E+03  0.12499817215E+03 0.  0.
          2    1    1    2  501    0 -0.71502145513E+02  0.48898787500E+02  0.29507791829E+02  0.91511518458E+02  0.00000000000E+00 0. -1.
          1    1    1    2  502    0 -0.20169528599E+02  0.90420301599E+02  0.20924822271E+04  0.20945320507E+04  0.00000000000E+00 0. -1.
         22    1    3    3    0    0  0.12019958003E+03 -0.13100901035E+03  0.71264843254E+03  0.73449240175E+03  0.00000000000E+00 0.  1.
         22    1    3    3    0    0 -0.28527905915E+02 -0.83100787452E+01  0.15648396365E+03  0.15928003549E+03  0.00000000000E+00 0.  1.
</event>
<event>
 7    1  0.5064652E-006  0.1042327E+03  0.7818608E-02  0.1336648E+00
          2   -1    0    0  502    0  0.00000000000E+00  0.00000000000E+00  0.10844105770E+04  0.10844105770E+04  0.00000000000E+00 0. -1.
          1   -1    0    0  501    0 -0.00000000000E+00 -0.00000000000E+00 -0.10861955291E+03  0.10861955291E+03  0.00000000000E+00 0. -1.
         25    2    1    2    0    0 -0.14448352012E+03 -0.36233535157E+02  0.24506402164E+03  0.31284445817E+03  0.12500769437E+03 0.  0.
          2    1    1    2  501    0  0.87902577135E+02  0.46181087434E+02 -0.40197750738E+02  0.10712336378E+03  0.00000000000E+00 0. -1.
          1    1    1    2  502    0  0.56580942980E+02 -0.99475522762E+01  0.77092475317E+03  0.77306230794E+03  0.00000000000E+00 0. -1.
         22    1    3    3    0    0 -0.72573062443E+02  0.16041337324E+02  0.30039241979E+02  0.80165640734E+02  0.00000000000E+00 0. -1.
         22    1    3    3    0    0 -0.71910457672E+02 -0.52274872482E+02  0.21502477966E+03  0.23267881744E+03  0.00000000000E+00 0. -1.
</event>
<event>
 7    1  0.5064652E-006  0.8620792E+02  0.7818608E-02  0.1366049E+00
          2   -1    0    0  502    0  0.00000000000E+00  0.00000000000E+00  0.10850132640E+04  0.10850132640E+04  0.00000000000E+00 0. -1.
          1   -1    0    0  501    0 -0.00000000000E+00 -0.00000000000E+00 -0.13766480574E+03  0.13766480574E+03  0.00000000000E+00 0. -1.
         25    2    1    2    0    0  0.33332132576E+02  0.10382680894E+02  0.57974193006E+02  0.14214515065E+03  0.12500162268E+03 0.  0.
          2    1    1    2  501    0  0.48072746425E+02  0.24765608385E+02 -0.85754422003E+02  0.10138118761E+03  0.00000000000E+00 0. -1.
          1    1    1    2  502    0 -0.81404879001E+02 -0.35148289279E+02  0.97512868726E+03  0.97915173150E+03  0.00000000000E+00 0. -1.
         22    1    3    3    0    0 -0.12118751936E+02  0.26272076803E+02 -0.30111797178E+02  0.41758909197E+02  0.00000000000E+00 0. -1.
         22    1    3    3    0    0  0.45450884512E+02 -0.15889395909E+02  0.88085990185E+02  0.10038624145E+03  0.00000000000E+00 0. -1.
</event>
<event>
 7    1  0.5064652E-006  0.1364885E+03  0.7818608E-02  0.1262219E+00
          2   -1    0    0  502    0  0.00000000000E+00  0.00000000000E+00  0.22401701145E+04  0.22401701145E+04  0.00000000000E+00 0. -1.
          1   -1    0    0  501    0 -0.00000000000E+00 -0.00000000000E+00 -0.38846699293E+03  0.38846699293E+03  0.00000000000E+00 0. -1.
         25    2    1    2    0    0 -0.56392235997E+02  0.19557269489E+02  0.10424829532E+03  0.17336259014E+03  0.12499723801E+03 0.  0.
          2    1    1    2  501    0  0.12438256938E+03 -0.74204894907E+02 -0.33814156264E+03  0.36785473543E+03  0.00000000000E+00 0. -1.
          1    1    1    2  502    0 -0.67990333378E+02  0.54647625418E+02  0.20855963889E+04  0.20874197819E+04  0.00000000000E+00 0. -1.
         22    1    3    3    0    0  0.18650266933E+02 -0.36780719233E+02  0.15060730825E+02  0.43903067968E+02  0.00000000000E+00 0.  1.
         22    1    3    3    0    0 -0.75042502930E+02  0.56337988722E+02  0.89187564499E+02  0.12945952217E+03  0.00000000000E+00 0.  1.
</event>
<event>
 7    1  0.5064652E-006  0.5038318E+02  0.7818608E-02  0.1481405E+00
          2   -1    0    0  502    0  0.00000000000E+00  0.00000000000E+00  0.12776473639E+04  0.12776473639E+04  0.00000000000E+00 0. -1.
          1   -1    0    0  501    0 -0.00000000000E+00 -0.00000000000E+00 -0.92640162693E+02  0.92640162693E+02  0.00000000000E+00 0. -1.
         25    2    1    2    0    0 -0.25993307397E+02 -0.37647005861E+01 -0.28019651886E+02  0.13076615992E+03  0.12499945075E+03 0.  0.
          2    1    1    2  501    0 -0.23469463472E+01 -0.38158052390E+02  0.16029193494E+02  0.41454555400E+02  0.00000000000E+00 0. -1.
          1    1    1    2  502    0  0.28340253744E+02  0.41922752976E+02  0.11969976596E+04  0.11980668113E+04  0.00000000000E+00 0. -1.
         22    1    3    3    0    0  0.16079500927E+02 -0.47582247747E+02  0.19257146681E+02  0.53790876077E+02  0.00000000000E+00 0. -1.
         22    1    3    3    0    0 -0.42072808324E+02  0.43817547161E+02 -0.47276798567E+02  0.76975283840E+02  0.00000000000E+00 0. -1.
</event>
<event>
 7    1  0.5064652E-006  0.1468366E+03  0.7818608E-02  0.1334834E+00
          2   -1    0    0  502    0  0.00000000000E+00  0.00000000000E+00  0.14783972212E+03  0.14783972212E+03  0.00000000000E+00 0. -1.
          1   -1    0    0  501    0 -0.00000000000E+00 -0.00000000000E+00 -0.10672329963E+04  0.10672329963E+04  0.00000000000E+00 0. -1.
         25    2    1    2    0    0  0.14326838519E+03  0.41979866547E+02 -0.25715665645E+02  0.19640277729E+03  0.12499846430E+03 0.  0.
          2    1    1    2  501    0 -0.14703521645E+03 -0.72080810596E+00 -0.94292082853E+03  0.95431628054E+03  0.00000000000E+00 0. -1.
          1    1    1    2  502    0  0.37668312592E+01 -0.41259058441E+02  0.49243219970E+02  0.64353660613E+02  0.00000000000E+00 0. -1.
         22    1    3    3    0    0 -0.73936266202E+01  0.25974084455E+02  0.24828180570E+02  0.36684565260E+02  0.00000000000E+00 0. -1.
         22    1    3    3    0    0  0.15066201181E+03  0.16005782092E+02 -0.50543846215E+02  0.15971821203E+03  0.00000000000E+00 0. -1.
</event>
<event>
 7    1  0.5064652E-006  0.1122211E+03  0.7818608E-02  0.1416109E+00
          2   -1    0    0  502    0  0.00000000000E+00  0.00000000000E+00  0.74236540163E+03  0.74236540163E+03  0.00000000000E+00 0. -1.
          1   -1    0    0  501    0 -0.00000000000E+00 -0.00000000000E+00 -0.10371291830E+04  0.10371291830E+04  0.00000000000E+00 0. -1.
         25    2    1    2    0    0 -0.59631614510E+02  0.80956991687E+02 -0.15072770383E+03  0.22012732836E+03  0.12500894383E+03 0.  0.
          2    1    1    2  501    0  0.15928176596E+02  0.22781998030E+02 -0.84699559783E+03  0.84745163224E+03  0.00000000000E+00 0. -1.
          1    1    1    2  502    0  0.43703437915E+02 -0.10373898972E+03  0.70295952032E+03  0.71191562399E+03  0.00000000000E+00 0. -1.
         22    1    3    3    0    0 -0.39327820583E+02  0.92627643739E+02 -0.16458820823E+03  0.19291406414E+03  0.00000000000E+00 0. -1.
         22    1    3    3    0    0 -0.20303793927E+02 -0.11670652052E+02  0.13860504401E+02  0.27213264218E+02  0.00000000000E+00 0. -1.
</event>
<event>
 7    1  0.5064652E-006  0.9377150E+02  0.7818608E-02  0.1359529E+00
          2   -1    0    0  502    0  0.00000000000E+00  0.00000000000E+00  0.81232023010E+03  0.81232023010E+03  0.00000000000E+00 0. -1.
          1   -1    0    0  501    0 -0.00000000000E+00 -0.00000000000E+00 -0.75409102690E+02  0.75409102690E+02  0.00000000000E+00 0. -1.
         25    2    1    2    0    0  0.21029145205E+02 -0.67216082765E+02  0.15878374469E+03  0.21399886074E+03  0.12499203211E+03 0.  0.
          2    1    1    2  501    0  0.52474464015E+02  0.17323561349E+01 -0.28108560206E+02  0.59553854521E+02  0.00000000000E+00 0. -1.
          1    1    1    2  502    0 -0.73503609220E+02  0.65483726630E+02  0.60623594292E+03  0.61417661752E+03  0.00000000000E+00 0. -1.
         22    1    3    3    0    0 -0.46909454233E+02 -0.27158537210E+02  0.10612527696E+03  0.11916651145E+03  0.00000000000E+00 0.  1.
         22    1    3    3    0    0  0.67938599439E+02 -0.40057545555E+02  0.52658467728E+02  0.94832349296E+02  0.00000000000E+00 0.  1.
</event>
<event>
 7    1  0.5064652E-006  0.8583222E+02  0.7818608E-02  0.1463157E+00
          2   -1    0    0  502    0  0.00000000000E+00  0.00000000000E+00  0.96499585720E+02  0.96499585720E+02  0.00000000000E+00 0. -1.
          1   -1    0    0  501    0 -0.00000000000E+00 -0.00000000000E+00 -0.13560856884E+04  0.13560856884E+04  0.00000000000E+00 0. -1.
         25    2    1    2    0    0  0.73347600747E+02 -0.82152745374E+02 -0.16181991691E+03  0.23224761490E+03  0.12499730001E+03 0.  0.
          2    1    1    2  501    0 -0.58485617478E+02  0.61352755127E+02 -0.11547633650E+04  0.11578700951E+04  0.00000000000E+00 0. -1.
          1    1    1    2  502    0 -0.14861983269E+02  0.20799990247E+02  0.56997179163E+02  0.62467564172E+02  0.00000000000E+00 0. -1.
         22    1    3    3    0    0  0.53767279160E+02 -0.85342186746E+02 -0.39494067450E+02  0.10832354550E+03  0.00000000000E+00 0.  1.
         22    1    3    3    0    0  0.19580321587E+02  0.31894413712E+01 -0.12232584946E+03  0.12392406940E+03  0.00000000000E+00 0.  1.
</event>
<event>
 7    1  0.5064652E-006  0.6514395E+02  0.7818608E-02  0.1516036E+00
          2   -1    0    0  502    0  0.00000000000E+00  0.00000000000E+00  0.33927349448E+03  0.33927349448E+03  0.00000000000E+00 0. -1.
          1   -1    0    0  501    0 -0.00000000000E+00 -0.00000000000E+00 -0.57350208752E+03  0.57350208752E+03  0.00000000000E+00 0. -1.
         25    2    1    2    0    0 -0.29442341824E+02  0.31442352539E+02 -0.17784597022E+03  0.22160458787E+03  0.12499572481E+03 0.  0.
          2    1    1    2  501    0 -0.94374353529E+01  0.21298774470E+02 -0.37002494786E+03  0.37075755558E+03  0.00000000000E+00 0. -1.
          1    1    1    2  502    0  0.38879777177E+02 -0.52741127009E+02  0.31364232503E+03  0.32041343855E+03  0.00000000000E+00 0. -1.
         22    1    3    3    0    0  0.38199840688E+02 -0.10479664249E+02 -0.18984992901E+02  0.43925859659E+02  0.00000000000E+00 0.  1.
         22    1    3    3    0    0 -0.67642182513E+02  0.41922016788E+02 -0.15886097731E+03  0.17767872821E+03  0.00000000000E+00 0.  1.
</event>
<event>
 7    1  0.6449853E-006  0.6248501E+02  0.7818608E-02  0.1432254E+00
          2   -1    0    0  502    0  0.00000000000E+00  0.00000000000E+00  0.70822329318E+03  0.70822329318E+03  0.00000000000E+00 0. -1.
          1   -1    0    0  501    0 -0.00000000000E+00 -0.00000000000E+00 -0.12496238559E+04  0.12496238559E+04  0.00000000000E+00 0. -1.
         25    2    1    2    0    0 -0.27801157580E+02 -0.16398214471E+02 -0.35498298569E+03  0.37773007032E+03  0.12500112036E+03 0.  0.
          2    1    1    2  501    0 -0.33639346228E+02  0.28559805965E+02 -0.88130682929E+03  0.88241089946E+03  0.00000000000E+00 0. -1.
          1    1    1    2  502    0  0.61440503808E+02 -0.12161591495E+02  0.69488925223E+03  0.69770617934E+03  0.00000000000E+00 0. -1.
         22    1    3    3    0    0 -0.63618843930E+02 -0.16442244392E+02 -0.32330134694E+03  0.32991129965E+03  0.00000000000E+00 0. -1.
         22    1    3    3    0    0  0.35817686350E+02  0.44029921250E-01 -0.31681638747E+02  0.47818770663E+02  0.00000000000E+00 0. -1.
</event>
<event>
 7    1  0.5064652E-006  0.3055214E+03  0.7818608E-02  0.1204484E+00
          2   -1    0    0  502    0  0.00000000000E+00  0.00000000000E+00  0.13305030409E+04  0.13305030409E+04  0.00000000000E+00 0. -1.
          1   -1    0    0  501    0 -0.00000000000E+00 -0.00000000000E+00 -0.81637829712E+03  0.81637829712E+03  0.00000000000E+00 0. -1.
         25    2    1    2    0    0  0.10968135989E+03  0.35598506168E+03 -0.28583208469E+03  0.48588109267E+03  0.12500036292E+03 0.  0.
          2    1    1    2  501    0 -0.26410283097E+02 -0.65386331454E+02 -0.40889158177E+03  0.41492794680E+03  0.00000000000E+00 0. -1.
          1    1    1    2  502    0 -0.83271076792E+02 -0.29059873023E+03  0.12088484102E+04  0.12460722985E+04  0.00000000000E+00 0. -1.
         22    1    3    3    0    0  0.12182042122E+03  0.19383980645E+03 -0.18695990171E+03  0.29558093720E+03  0.00000000000E+00 0.  1.
         22    1    3    3    0    0 -0.12139061328E+02  0.16214525523E+03 -0.98872182980E+02  0.19030015547E+03  0.00000000000E+00 0.  1.
</event>
<event>
 7    1  0.5064652E-006  0.9952300E+02  0.7818608E-02  0.1395907E+00
          2   -1    0    0  502    0  0.00000000000E+00  0.00000000000E+00  0.90602903213E+03  0.90602903213E+03  0.00000000000E+00 0. -1.
          1   -1    0    0  501    0 -0.00000000000E+00 -0.00000000000E+00 -0.13951567952E+03  0.13951567952E+03  0.00000000000E+00 0. -1.
         25    2    1    2    0    0  0.11874136132E+03 -0.50479809071E+02  0.63578626815E+02  0.19056523843E+03  0.12500058520E+03 0.  0.
          2    1    1    2  501    0 -0.83098928670E+02  0.41605537822E+02 -0.47002952007E+02  0.10414283567E+03  0.00000000000E+00 0. -1.
          1    1    1    2  502    0 -0.35642432647E+02  0.88742712488E+01  0.74993767780E+03  0.75083663755E+03  0.00000000000E+00 0. -1.
         22    1    3    3    0    0 -0.22920601658E+02  0.90586455711E+01  0.17198760243E+02  0.30053458933E+02  0.00000000000E+00 0.  1.
         22    1    3    3    0    0  0.14166196298E+03 -0.59538454642E+02  0.46379866572E+02  0.16051177950E+03  0.00000000000E+00 0.  1.
</event>
<event>
 7    1  0.5064652E-006  0.6424017E+02  0.7818608E-02  0.1464983E+00
          2   -1    0    0  502    0  0.00000000000E+00  0.00000000000E+00  0.21884486089E+04  0.21884486089E+04  0.00000000000E+00 0. -1.
          1   -1    0    0  501    0 -0.00000000000E+00 -0.00000000000E+00 -0.14569762922E+03  0.14569762922E+03  0.00000000000E+00 0. -1.
         25    2    1    2    0    0 -0.25114413032E+01  0.45162589329E+02  0.36016475419E+03  0.38391422757E+03  0.12500206862E+03 0.  0.
          2    1    1    2  501    0  0.34882365656E+02 -0.54565172604E+02 -0.12582137613E+03  0.14151026884E+03  0.00000000000E+00 0. -1.
          1    1    1    2  502    0 -0.32370924353E+02  0.94025832754E+01  0.18084076016E+04  0.18087217417E+04  0.00000000000E+00 0. -1.
         22    1    3    3    0    0 -0.61834953829E+02  0.27210908044E+02  0.23052197386E+03  0.24021735046E+03  0.00000000000E+00 0.  1.
         22    1    3    3    0    0  0.59323512526E+02  0.17951681285E+02  0.12964278033E+03  0.14369687711E+03  0.00000000000E+00 0.  1.
</event>
<event>
 7    1  0.5236495E-006  0.8577814E+02  0.7818608E-02  0.1384585E+00
          2   -1    0    0  502    0  0.00000000000E+00  0.00000000000E+00  0.21067829101E+04  0.21067829101E+04  0.00000000000E+00 0. -1.
          1   -1    0    0  501    0 -0.00000000000E+00 -0.00000000000E+00 -0.36830247839E+03  0.36830247839E+03  0.00000000000E+00 0. -1.
         25    2    1    2    0    0 -0.12284807816E+03  0.25780429866E+02 -0.21459137704E+03  0.27826356231E+03  0.12499948057E+03 0.  0.
          2    1    1    2  501    0  0.45406413716E+02  0.10802270356E+02 -0.11648797812E+03  0.12549055939E+03  0.00000000000E+00 0. -1.
          1    1    1    2  502    0  0.77441664443E+02 -0.36582700222E+02  0.20695597869E+04  0.20713312668E+04  0.00000000000E+00 0. -1.
         22    1    3    3    0    0 -0.67272688263E+02  0.73763226967E+02 -0.15161690504E+03  0.18153323148E+03  0.00000000000E+00 0.  1.
         22    1    3    3    0    0 -0.55575389896E+02 -0.47982797101E+02 -0.62974471998E+02  0.96730330834E+02  0.00000000000E+00 0.  1.
</event>
<event>
 7    1  0.5064652E-006  0.8229381E+02  0.7818608E-02  0.1495505E+00
          2   -1    0    0  502    0  0.00000000000E+00  0.00000000000E+00  0.29832199659E+03  0.29832199659E+03  0.00000000000E+00 0. -1.
          1   -1    0    0  501    0 -0.00000000000E+00 -0.00000000000E+00 -0.15850758166E+04  0.15850758166E+04  0.00000000000E+00 0. -1.
         25    2    1    2    0    0 -0.11672035264E+02  0.62773075132E+02  0.93586961254E+01  0.14067394044E+03  0.12499950783E+03 0.  0.
          2    1    1    2  501    0 -0.89502436354E+01  0.19230828152E+02 -0.15113364720E+04  0.15114853169E+04  0.00000000000E+00 0. -1.
          1    1    1    2  502    0  0.20622278899E+02 -0.82003903284E+02  0.21522395586E+03  0.23123855586E+03  0.00000000000E+00 0. -1.
         22    1    3    3    0    0  0.52814778312E+02  0.53547232317E+02  0.42760169462E+01  0.75332537578E+02  0.00000000000E+00 0.  1.
         22    1    3    3    0    0 -0.64486813576E+02  0.92258428147E+01  0.50826791792E+01  0.65341402866E+02  0.00000000000E+00 0.  1.
</event>
<event>
 7    1  0.5064652E-006  0.1860969E+03  0.7818608E-02  0.1195801E+00
          2   -1    0    0  502    0  0.00000000000E+00  0.00000000000E+00  0.16446935615E+04  0.16446935615E+04  0.00000000000E+00 0. -1.
          1   -1    0    0  501    0 -0.00000000000E+00 -0.00000000000E+00 -0.11577492023E+04  0.11577492023E+04  0.00000000000E+00 0. -1.
         25    2    1    2    0    0  0.28729885251E+03 -0.39251066263E+02 -0.79009778886E+01  0.31586122187E+03  0.12499843668E+03 0.  0.
          2    1    1    2  501    0 -0.16507195279E+03  0.74533091000E+02 -0.98488116740E+03  0.10013964475E+04  0.00000000000E+00 0. -1.
          1    1    1    2  502    0 -0.12222689972E+03 -0.35282024737E+02  0.14797265045E+04  0.14851850944E+04  0.00000000000E+00 0. -1.
         22    1    3    3    0    0  0.79578394681E+02 -0.57396760555E+02 -0.37938720499E+02  0.10519722209E+03  0.00000000000E+00 0.  1.
         22    1    3    3    0    0  0.20772045783E+03  0.18145694292E+02  0.30037742611E+02  0.21066399978E+03  0.00000000000E+00 0.  1.
</event>
<event>
 7    1  0.8444348E-006  0.1311831E+03  0.7818608E-02  0.1276469E+00
          2   -1    0    0  502    0  0.00000000000E+00  0.00000000000E+00  0.16298530137E+04  0.16298530137E+04  0.00000000000E+00 0. -1.
          1   -1    0    0  501    0 -0.00000000000E+00 -0.00000000000E+00 -0.21136057145E+04  0.21136057145E+04  0.00000000000E+00 0. -1.
         25    2    1    2    0    0 -0.64947246084E+01  0.20889835013E+03 -0.40440383667E+03  0.47206909795E+03  0.12500427188E+03 0.  0.
          2    1    1    2  501    0 -0.62820971008E+01 -0.78813887071E+02 -0.16717571717E+04  0.16736257451E+04  0.00000000000E+00 0. -1.
          1    1    1    2  502    0  0.12776821709E+02 -0.13008446306E+03  0.15924083076E+04  0.15977638852E+04  0.00000000000E+00 0. -1.
         22    1    3    3    0    0  0.28041202640E+02 -0.30356641273E+01 -0.37105754761E+02  0.46608597260E+02  0.00000000000E+00 0. -1.
         22    1    3    3    0    0 -0.34535927249E+02  0.21193401426E+03 -0.36729808191E+03  0.42546050069E+03  0.00000000000E+00 0. -1.
</event>
<event>
 7    1  0.5064652E-006  0.5652053E+02  0.7818608E-02  0.1425910E+00
          2   -1    0    0  502    0  0.00000000000E+00  0.00000000000E+00  0.26983704757E+04  0.26983704757E+04  0.00000000000E+00 0. -1.
          1   -1    0    0  501    0 -0.00000000000E+00 -0.00000000000E+00 -0.27671167455E+03  0.27671167455E+03  0.00000000000E+00 0. -1.
         25    2    1    2    0    0 -0.78312777252E+01 -0.94510212330E+02  0.47980364178E+03  0.50480679461E+03  0.12499942429E+03 0.  0.
          2    1    1    2  501    0 -0.20846281876E+02  0.46754145145E+02 -0.26137516700E+03  0.26634093842E+03  0.00000000000E+00 0. -1.
          1    1    1    2  502    0  0.28677559601E+02  0.47756067185E+02  0.22032303264E+04  0.22039344172E+04  0.00000000000E+00 0. -1.
         22    1    3    3    0    0 -0.21032254047E+02 -0.99944045580E+02  0.19935087754E+03  0.22399093806E+03  0.00000000000E+00 0.  1.
         22    1    3    3    0    0  0.13200976322E+02  0.54338332501E+01  0.28045276424E+03  0.28081585655E+03  0.00000000000E+00 0.  1.
</event>
<event>
 7    1  0.5064652E-006  0.1249845E+03  0.7818608E-02  0.1414433E+00
          2   -1    0    0  502    0  0.00000000000E+00  0.00000000000E+00  0.16026443587E+04  0.16026443587E+04  0.00000000000E+00 0. -1.
          1   -1    0    0  501    0 -0.00000000000E+00 -0.00000000000E+00 -0.75862580175E+03  0.75862580175E+03  0.00000000000E+00 0. -1.
         25    2    1    2    0    0  0.12700277465E+03  0.39256777644E+01 -0.18120932231E+03  0.25417834697E+03  0.12499879143E+03 0.  0.
          2    1    1    2  501    0 -0.12320309303E+03  0.21072503260E+02 -0.53360763589E+03  0.54805123994E+03  0.00000000000E+00 0. -1.
          1    1    1    2  502    0 -0.37996816201E+01 -0.24998181025E+02  0.15588355152E+04  0.15590405736E+04  0.00000000000E+00 0. -1.
         22    1    3    3    0    0  0.13465833410E+03  0.40645360879E+02 -0.14005498539E+03  0.19849511640E+03  0.00000000000E+00 0. -1.
         22    1    3    3    0    0 -0.76555594479E+01 -0.36719683114E+02 -0.41154336929E+02  0.55683230569E+02  0.00000000000E+00 0. -1.
</event>
<event>
 7    1  0.5064652E-006  0.3391991E+02  0.7818608E-02  0.1559796E+00
          2   -1    0    0  502    0  0.00000000000E+00  0.00000000000E+00  0.15712255215E+03  0.15712255215E+03  0.00000000000E+00 0. -1.
          1   -1    0    0  501    0 -0.00000000000E+00 -0.00000000000E+00 -0.86872986929E+02  0.86872986929E+02  0.00000000000E+00 0. -1.
         25    2    1    2    0    0  0.94145533048E+01 -0.23895731749E+02  0.40710234782E+02  0.13394705519E+03  0.12499940227E+03 0.  0.
          2    1    1    2  501    0 -0.35789424414E+02  0.25667299036E+01 -0.26456336623E+02  0.44580362827E+02  0.00000000000E+00 0. -1.
          1    1    1    2  502    0  0.26374871109E+02  0.21329001846E+02  0.55995667065E+02  0.65468121065E+02  0.00000000000E+00 0. -1.
         22    1    3    3    0    0  0.18429435454E+02 -0.34818373597E+02  0.81633704571E+02  0.90642291195E+02  0.00000000000E+00 0.  1.
         22    1    3    3    0    0 -0.90148821488E+01  0.10922641848E+02 -0.40923469789E+02  0.43304763995E+02  0.00000000000E+00 0.  1.
</event>
<event>
 7    1  0.5064652E-006  0.7099844E+02  0.7818608E-02  0.1372438E+00
          2   -1    0    0  502    0  0.00000000000E+00  0.00000000000E+00  0.38257833914E+04  0.38257833914E+04  0.00000000000E+00 0. -1.
          1   -1    0    0  501    0 -0.00000000000E+00 -0.00000000000E+00 -0.24133449263E+03  0.24133449263E+03  0.00000000000E+00 0. -1.
         25    2    1    2    0    0 -0.12118821212E+02 -0.33064113781E+02  0.15733736183E+04  0.15787261422E+04  0.12502634962E+03 0.  0.
          2    1    1    2  501    0  0.43289116613E+02 -0.44769267545E+02 -0.23379974538E+03  0.24195155688E+03  0.00000000000E+00 0. -1.
          1    1    1    2  502    0 -0.31170295401E+02  0.77833381326E+02  0.22448750259E+04  0.22464401849E+04  0.00000000000E+00 0. -1.
         22    1    3    3    0    0  0.56324607389E+01 -0.79334865829E+02  0.88213700988E+03  0.88571521933E+03  0.00000000000E+00 0.  1.
         22    1    3    3    0    0 -0.17751281951E+02  0.46270752049E+02  0.69123660837E+03  0.69301092290E+03  0.00000000000E+00 0.  1.
</event>
<event>
 7    1  0.5064652E-006  0.9550710E+02  0.7818608E-02  0.1374776E+00
          2   -1    0    0  502    0  0.00000000000E+00  0.00000000000E+00  0.54897982719E+03  0.54897982719E+03  0.00000000000E+00 0. -1.
          1   -1    0    0  501    0 -0.00000000000E+00 -0.00000000000E+00 -0.43296065451E+03  0.43296065451E+03  0.00000000000E+00 0. -1.
         25    2    1    2    0    0  0.42890175642E+02  0.88528736893E+02  0.29829311710E+03  0.33805423690E+03  0.12499991582E+03 0.  0.
          2    1    1    2  501    0  0.34734642351E+02 -0.29252928346E+02 -0.40140965988E+03  0.40397022692E+03  0.00000000000E+00 0. -1.
          1    1    1    2  502    0 -0.77624817993E+02 -0.59275808547E+02  0.21913571546E+03  0.23991601788E+03  0.00000000000E+00 0. -1.
         22    1    3    3    0    0 -0.10910671059E+02 -0.24376861959E+02  0.10089761775E+03  0.10437242648E+03  0.00000000000E+00 0.  1.
         22    1    3    3    0    0  0.53800846701E+02  0.11290559885E+03  0.19739549936E+03  0.23368181043E+03  0.00000000000E+00 0.  1.
</event>
<event>
 7    1  0.5064652E-006  0.7727082E+02  0.7818608E-02  0.1500384E+00
          2   -1    0    0  502    0  0.00000000000E+00  0.00000000000E+00  0.19249208416E+03  0.19249208416E+03  0.00000000000E+00 0. -1.
          1   -1    0    0  501    0 -0.00000000000E+00 -0.00000000000E+00 -0.28281199511E+04  0.28281199511E+04  0.00000000000E+00 0. -1.
         25    2    1    2    0    0  0.59605135263E+02  0.42661031280E+02 -0.19269957558E+03  0.24110176265E+03  0.12499679109E+03 0.  0.
          2    1    1    2  501    0 -0.47715693545E+02 -0.60985581270E+02 -0.26099338208E+04  0.26110822617E+04  0.00000000000E+00 0. -1.
          1    1    1    2  502    0 -0.11889441718E+02  0.18324549991E+02  0.16700552949E+03  0.16842801084E+03  0.00000000000E+00 0. -1.
         22    1    3    3    0    0 -0.11352767982E+02  0.43632950342E+02 -0.11540546534E+02  0.46539272778E+02  0.00000000000E+00 0. -1.
         22    1    3    3    0    0  0.70957903245E+02 -0.97191906234E+00 -0.18115902904E+03  0.19456248987E+03  0.00000000000E+00 0. -1.
</event>
<event>
 7    1  0.5064652E-006  0.9758032E+02  0.7818608E-02  0.1396115E+00
          2   -1    0    0  502    0  0.00000000000E+00  0.00000000000E+00  0.66742848223E+03  0.66742848223E+03  0.00000000000E+00 0. -1.
          1   -1    0    0  501    0 -0.00000000000E+00 -0.00000000000E+00 -0.32365772300E+03  0.32365772300E+03  0.00000000000E+00 0. -1.
         25    2    1    2    0    0 -0.29649222125E+02 -0.60594203465E+02  0.13731734817E+02  0.14270310861E+03  0.12499953120E+03 0.  0.
          2    1    1    2  501    0  0.60726836683E+02  0.81400987354E+02 -0.24859624626E+03  0.26854043101E+03  0.00000000000E+00 0. -1.
          1    1    1    2  502    0 -0.31077614559E+02 -0.20806783889E+02  0.57863527068E+03  0.57984266560E+03  0.00000000000E+00 0. -1.
         22    1    3    3    0    0 -0.35287835020E+02 -0.80319065516E+02  0.50042184188E+02  0.10099803852E+03  0.00000000000E+00 0. -1.
         22    1    3    3    0    0  0.56386128953E+01  0.19724862051E+02 -0.36310449372E+02  0.41705070098E+02  0.00000000000E+00 0. -1.
</event>
<event>
 7    1  0.5064652E-006  0.4944984E+02  0.7818608E-02  0.1545166E+00
          2   -1    0    0  502    0  0.00000000000E+00  0.00000000000E+00  0.10272976169E+04  0.10272976169E+04  0.00000000000E+00 0. -1.
          1   -1    0    0  501    0 -0.00000000000E+00 -0.00000000000E+00 -0.13747652450E+04  0.13747652450E+04  0.00000000000E+00 0. -1.
         25    2    1    2    0    0  0.47782154604E+00  0.33546667950E+02 -0.11587118505E+04  0.11659172100E+04  0.12499672310E+03 0.  0.
          2    1    1    2  501    0  0.23358668130E+02  0.97905742580E+01 -0.21109586380E+03  0.21260984557E+03  0.00000000000E+00 0. -1.
          1    1    1    2  502    0 -0.23836489676E+02 -0.43337242208E+02  0.10223400863E+04  0.10235358063E+04  0.00000000000E+00 0. -1.
         22    1    3    3    0    0 -0.22202832016E+02  0.73390028914E+02 -0.52761192428E+03  0.53315420353E+03  0.00000000000E+00 0. -1.
         22    1    3    3    0    0  0.22680653562E+02 -0.39843360964E+02 -0.63109992626E+03  0.63276300649E+03  0.00000000000E+00 0. -1.
</event>
<event>
 7    1  0.5064652E-006  0.1208154E+03  0.7818608E-02  0.1318109E+00
          2   -1    0    0  502    0  0.00000000000E+00  0.00000000000E+00  0.96028547882E+03  0.96028547882E+03  0.00000000000E+00 0. -1.
          1   -1    0    0  501    0 -0.00000000000E+00 -0.00000000000E+00 -0.24838550828E+03  0.24838550828E+03  0.00000000000E+00 0. -1.
         25    2    1    2    0    0 -0.41114752789E+02 -0.16318791231E+03  0.24469265709E+03  0.32220883892E+03  0.12499328712E+03 0.  0.
          2    1    1    2  501    0  0.32576847546E+02  0.48448155372E+02 -0.20054482998E+03  0.20887006388E+03  0.00000000000E+00 0. -1.
          1    1    1    2  502    0  0.85379052425E+01  0.11473975694E+03  0.66775214343E+03  0.67759208430E+03  0.00000000000E+00 0. -1.
         22    1    3    3    0    0 -0.45075751275E+02 -0.47897465109E+01  0.26346992236E+02  0.52430230064E+02  0.00000000000E+00 0. -1.
         22    1    3    3    0    0  0.39609984868E+01 -0.15839816580E+03  0.21834566486E+03  0.26977860886E+03  0.00000000000E+00 0. -1.
</event>
<event>
 7    1  0.5064652E-006  0.1524801E+03  0.7818608E-02  0.1293944E+00
          2   -1    0    0  502    0  0.00000000000E+00  0.00000000000E+00  0.48359217021E+04  0.48359217021E+04  0.00000000000E+00 0. -1.
          1   -1    0    0  501    0 -0.00000000000E+00 -0.00000000000E+00 -0.12691130681E+03  0.12691130681E+03  0.00000000000E+00 0. -1.
         25    2    1    2    0    0 -0.17603624372E+03  0.67642417557E+01  0.51996623822E+03  0.56304926283E+03  0.12500027766E+03 0.  0.
          2    1    1    2  501    0  0.34166691813E+02  0.46471122698E+02 -0.96035555557E+02  0.11202569351E+03  0.00000000000E+00 0. -1.
          1    1    1    2  502    0  0.14186955191E+03 -0.53235364454E+02  0.42850797126E+04  0.42877580526E+04  0.00000000000E+00 0. -1.
         22    1    3    3    0    0 -0.83215698327E+02  0.21289025749E+02  0.96085749971E+02  0.12888190879E+03  0.00000000000E+00 0.  1.
         22    1    3    3    0    0 -0.92820545391E+02 -0.14524783993E+02  0.42388048824E+03  0.43416735404E+03  0.00000000000E+00 0.  1.
</event>
<event>
 7    1  0.5064652E-006  0.7685234E+02  0.7818608E-02  0.1429758E+00
          2   -1    0    0  502    0  0.00000000000E+00  0.00000000000E+00  0.29840179151E+04  0.29840179151E+04  0.00000000000E+00 0. -1.
          1   -1    0    0  501    0 -0.00000000000E+00 -0.00000000000E+00 -0.90458864880E+02  0.90458864880E+02  0.00000000000E+00 0. -1.
         25    2    1    2    0    0 -0.47777760876E+02  0.99773384139E+02  0.51754836887E+03  0.54380035299E+03  0.12500026869E+03 0.  0.
          2    1    1    2  501    0  0.40521111413E+02 -0.63938228590E+02 -0.58638669605E+02  0.95752551498E+02  0.00000000000E+00 0. -1.
          1    1    1    2  502    0  0.72566494632E+01 -0.35835155549E+02  0.24346493509E+04  0.24349238755E+04  0.00000000000E+00 0. -1.
         22    1    3    3    0    0 -0.30554457437E+02  0.38894449304E+02  0.44415754593E+03  0.44690298574E+03  0.00000000000E+00 0.  1.
         22    1    3    3    0    0 -0.17223303439E+02  0.60878934835E+02  0.73390822939E+02  0.96897367248E+02  0.00000000000E+00 0.  1.
</event>
<event>
 7    1  0.5064652E-006  0.8155580E+02  0.7818608E-02  0.1428843E+00
          2   -1    0    0  502    0  0.00000000000E+00  0.00000000000E+00  0.77226004121E+03  0.77226004121E+03  0.00000000000E+00 0. -1.
          1   -1    0    0  501    0 -0.00000000000E+00 -0.00000000000E+00 -0.97841194584E+02  0.97841194584E+02  0.00000000000E+00 0. -1.
         25    2    1    2    0    0 -0.10139033849E+02  0.77000216549E+02  0.26543025602E+03  0.30349656934E+03  0.12500045374E+03 0.  0.
          2    1    1    2  501    0 -0.34120016013E+02 -0.62836251258E+01 -0.71210725317E+02  0.79212542174E+02  0.00000000000E+00 0. -1.
          1    1    1    2  502    0  0.44259049862E+02 -0.70716591423E+02  0.48019931592E+03  0.48739212428E+03  0.00000000000E+00 0. -1.
         22    1    3    3    0    0 -0.16505225859E+02 -0.32802873735E+02  0.77178176993E+02  0.85468836484E+02  0.00000000000E+00 0.  1.
         22    1    3    3    0    0  0.63661920104E+01  0.10980309028E+03  0.18825207903E+03  0.21802773286E+03  0.00000000000E+00 0.  1.
</event>
<event>
 7    1  0.5064652E-006  0.8387548E+02  0.7818608E-02  0.1419288E+00
          2   -1    0    0  502    0  0.00000000000E+00  0.00000000000E+00  0.31311329468E+03  0.31311329468E+03  0.00000000000E+00 0. -1.
          1   -1    0    0  501    0 -0.00000000000E+00 -0.00000000000E+00 -0.61172497415E+03  0.61172497415E+03  0.00000000000E+00 0. -1.
         25    2    1    2    0    0  0.99755224176E+01 -0.11260720007E+03 -0.15606946247E+03  0.22970095003E+03  0.12499982708E+03 0.  0.
          2    1    1    2  501    0 -0.21218136000E+02  0.78101363067E+02 -0.41370997308E+03  0.42155186399E+03  0.00000000000E+00 0. -1.
          1    1    1    2  502    0  0.11242613582E+02  0.34505837008E+02  0.27116775608E+03  0.27358545482E+03  0.00000000000E+00 0. -1.
         22    1    3    3    0    0 -0.30471189863E+02  0.13762021786E+02 -0.48408633774E+02  0.58832665069E+02  0.00000000000E+00 0.  1.
         22    1    3    3    0    0  0.40446712280E+02 -0.12636922186E+03 -0.10766082870E+03  0.17086828496E+03  0.00000000000E+00 0.  1.
</event>
<event>
 7    1  0.5064652E-006  0.6634147E+02  0.7818608E-02  0.1487184E+00
          2   -1    0    0  502    0  0.00000000000E+00  0.00000000000E+00  0.11751118442E+04  0.11751118442E+04  0.00000000000E+00 0. -1.
          1   -1    0    0  501    0 -0.00000000000E+00 -0.00000000000E+00 -0.26756546553E+03  0.26756546553E+03  0.00000000000E+00 0. -1.
         25    2    1    2    0    0 -0.13037914552E+02 -0.92725782439E+02  0.54572691283E+02  0.16543950881E+03  0.12499597792E+03 0.  0.
          2    1    1    2  501    0  0.20981234461E+01  0.27800373502E+02 -0.21019324327E+03  0.21203410670E+03  0.00000000000E+00 0. -1.
          1    1    1    2  502    0  0.10939791106E+02  0.64925408936E+02  0.10631669306E+04  0.10652036942E+04  0.00000000000E+00 0. -1.
         22    1    3    3    0    0  0.31129075644E+02  0.57500075206E+01  0.47759374930E+02  0.57297816980E+02  0.00000000000E+00 0.  1.
         22    1    3    3    0    0 -0.44166990197E+02 -0.98475789959E+02  0.68133163533E+01  0.10814169183E+03  0.00000000000E+00 0.  1.
</event>
<event>
 7    1  0.5064652E-006  0.7973433E+02  0.7818608E-02  0.1455138E+00
          2   -1    0    0  502    0  0.00000000000E+00  0.00000000000E+00  0.37677543586E+03  0.37677543586E+03  0.00000000000E+00 0. -1.
          1   -1    0    0  501    0 -0.00000000000E+00 -0.00000000000E+00 -0.38864934129E+03  0.38864934129E+03  0.00000000000E+00 0. -1.
         25    2    1    2    0    0 -0.93278066502E+02  0.55400652266E+02 -0.29131512939E+03  0.33505080163E+03  0.12499802037E+03 0.  0.
          2    1    1    2  501    0  0.24823643990E+02 -0.15322256991E+02 -0.67999710826E+02  0.73992874877E+02  0.00000000000E+00 0. -1.
          1    1    1    2  502    0  0.68454422512E+02 -0.40078395275E+02  0.34744093479E+03  0.35638110064E+03  0.00000000000E+00 0. -1.
         22    1    3    3    0    0 -0.10548458017E+03  0.75162209114E+02 -0.28143427721E+03  0.30980898425E+03  0.00000000000E+00 0. -1.
         22    1    3    3    0    0  0.12206513664E+02 -0.19761556847E+02 -0.98808521847E+01  0.25241817382E+02  0.00000000000E+00 0. -1.
</event>
<event>
 7    1  0.5064652E-006  0.4725254E+02  0.7818608E-02  0.1503087E+00
          2   -1    0    0  502    0  0.00000000000E+00  0.00000000000E+00  0.31600723346E+03  0.31600723346E+03  0.00000000000E+00 0. -1.
          1   -1    0    0  501    0 -0.00000000000E+00 -0.00000000000E+00 -0.45439867191E+03  0.45439867191E+03  0.00000000000E+00 0. -1.
         25    2    1    2    0    0  0.99856658890E+00 -0.17232878999E+02 -0.17350248380E+03  0.21453678565E+03  0.12499980502E+03 0.  0.
          2    1    1    2  501    0  0.13237785456E+02  0.49277396827E+02 -0.25682004890E+03  0.26183971876E+03  0.00000000000E+00 0. -1.
          1    1    1    2  502    0 -0.14236352045E+02 -0.32044517827E+02  0.29193109425E+03  0.29402940097E+03  0.00000000000E+00 0. -1.
         22    1    3    3    0    0 -0.56992107225E+02  0.16197915929E+02 -0.81438760495E+02  0.10071119341E+03  0.00000000000E+00 0. -1.
         22    1    3    3    0    0  0.57990673814E+02 -0.33430794928E+02 -0.92063723309E+02  0.11382559224E+03  0.00000000000E+00 0. -1.
</event>
<event>
 7    1  0.5064652E-006  0.1152690E+03  0.7818608E-02  0.1256884E+00
          2   -1    0    0  502    0  0.00000000000E+00  0.00000000000E+00  0.22933712031E+04  0.22933712031E+04  0.00000000000E+00 0. -1.
          1   -1    0    0  501    0 -0.00000000000E+00 -0.00000000000E+00 -0.19589665447E+04  0.19589665447E+04  0.00000000000E+00 0. -1.
         25    2    1    2    0    0 -0.16099887385E+03 -0.12653865357E+03  0.40258596149E+03  0.46864113768E+03  0.12496556050E+03 0.  0.
          2    1    1    2  501    0  0.11104503687E+03  0.29825180183E+02 -0.19226254275E+04  0.19260605069E+04  0.00000000000E+00 0. -1.
          1    1    1    2  502    0  0.49953836979E+02  0.96713473386E+02  0.18544441244E+04  0.18576361033E+04  0.00000000000E+00 0. -1.
         22    1    3    3    0    0 -0.74951448535E+02 -0.12326409993E+03  0.31156262702E+03  0.34334097997E+03  0.00000000000E+00 0.  1.
         22    1    3    3    0    0 -0.86047425317E+02 -0.32745536414E+01  0.91023334465E+02  0.12530015771E+03  0.00000000000E+00 0.  1.
</event>
<event>
 7    1  0.5064652E-006  0.6531430E+02  0.7818608E-02  0.1420831E+00
          2   -1    0    0  502    0  0.00000000000E+00  0.00000000000E+00  0.75438995939E+02  0.75438995939E+02  0.00000000000E+00 0. -1.
          1   -1    0    0  501    0 -0.00000000000E+00 -0.00000000000E+00 -0.19888475376E+04  0.19888475376E+04  0.00000000000E+00 0. -1.
         25    2    1    2    0    0 -0.48108694723E+02 -0.20839084625E+02 -0.91865719356E+03  0.92860374455E+03  0.12500064462E+03 0.  0.
          2    1    1    2  501    0  0.67886569619E+02 -0.20752423998E+02 -0.10563714285E+04  0.10587539112E+04  0.00000000000E+00 0. -1.
          1    1    1    2  502    0 -0.19777874896E+02  0.41591508624E+02  0.61620080440E+02  0.76928877793E+02  0.00000000000E+00 0. -1.
         22    1    3    3    0    0 -0.66160609816E+02  0.33277453311E+02 -0.63206263752E+03  0.63638651222E+03  0.00000000000E+00 0.  1.
         22    1    3    3    0    0  0.18051915092E+02 -0.54116537936E+02 -0.28659455604E+03  0.29221723233E+03  0.00000000000E+00 0.  1.
</event>
<event>
 7    1  0.5064652E-006  0.3962593E+02  0.7818608E-02  0.1547535E+00
          2   -1    0    0  502    0  0.00000000000E+00  0.00000000000E+00  0.17769884190E+04  0.17769884190E+04  0.00000000000E+00 0. -1.
          1   -1    0    0  501    0 -0.00000000000E+00 -0.00000000000E+00 -0.12018093242E+04  0.12018093242E+04  0.00000000000E+00 0. -1.
         25    2    1    2    0    0  0.77657209891E+01 -0.34330287912E+02  0.88731490509E+01  0.13017033868E+03  0.12500683664E+03 0.  0.
          2    1    1    2  501    0  0.23285711977E+02  0.32162513493E+02 -0.11406733917E+04  0.11413642881E+04  0.00000000000E+00 0. -1.
          1    1    1    2  502    0 -0.31051432966E+02  0.21677744190E+01  0.17069793374E+04  0.17072631165E+04  0.00000000000E+00 0. -1.
         22    1    3    3    0    0  0.50006086728E+02 -0.32671846353E+02  0.44821155253E+02  0.74679275654E+02  0.00000000000E+00 0.  1.
         22    1    3    3    0    0 -0.42240365739E+02 -0.16584415588E+01 -0.35948006202E+02  0.55491063029E+02  0.00000000000E+00 0.  1.
</event>
<event>
 7    1  0.5064652E-006  0.1076645E+03  0.7818608E-02  0.1369902E+00
          2   -1    0    0  502    0  0.00000000000E+00  0.00000000000E+00  0.12391528217E+03  0.12391528217E+03  0.00000000000E+00 0. -1.
          1   -1    0    0  501    0 -0.00000000000E+00 -0.00000000000E+00 -0.14579986081E+04  0.14579986081E+04  0.00000000000E+00 0. -1.
         25    2    1    2    0    0  0.35486846724E+02  0.93717151475E+02 -0.10010851193E+03  0.18891949768E+03  0.12500656651E+03 0.  0.
          2    1    1    2  501    0  0.40157278619E+02 -0.12086407734E+02 -0.12740262003E+04  0.12747162223E+04  0.00000000000E+00 0. -1.
          1    1    1    2  502    0 -0.75644125344E+02 -0.81630743741E+02  0.40051386332E+02  0.11827817030E+03  0.00000000000E+00 0. -1.
         22    1    3    3    0    0 -0.36227105523E+02  0.37804608271E+02  0.17321173848E+01  0.52388851980E+02  0.00000000000E+00 0.  1.
         22    1    3    3    0    0  0.71713952247E+02  0.55912543204E+02 -0.10184062932E+03  0.13653064570E+03  0.00000000000E+00 0.  1.
</event>
<event>
 7    1  0.5064652E-006  0.1705596E+03  0.7818608E-02  0.1184630E+00
          2   -1    0    0  502    0  0.00000000000E+00  0.00000000000E+00  0.20704923525E+04  0.20704923525E+04  0.00000000000E+00 0. -1.
          1   -1    0    0  501    0 -0.00000000000E+00 -0.00000000000E+00 -0.50427415947E+02  0.50427415947E+02  0.00000000000E+00 0. -1.
         25    2    1    2    0    0 -0.45732060888E+02  0.95313501834E+01  0.98999639687E+02  0.16614853484E+03  0.12498855525E+03 0.  0.
          2    1    1    2  501    0 -0.14977221928E+03  0.47191874385E+02  0.77103990296E+03  0.78686804652E+03  0.00000000000E+00 0. -1.
          1    1    1    2  502    0  0.19550428017E+03 -0.56723224568E+02  0.11500253939E+04  0.11679031870E+04  0.00000000000E+00 0. -1.
         22    1    3    3    0    0  0.15137165727E+02  0.40158492358E+02  0.86931328084E+02  0.96947893722E+02  0.00000000000E+00 0. -1.
         22    1    3    3    0    0 -0.60869226615E+02 -0.30627142174E+02  0.12068311602E+02  0.69200641120E+02  0.00000000000E+00 0. -1.
</event>
<event>
 7    1  0.5064652E-006  0.5481095E+02  0.7818608E-02  0.1451898E+00
          2   -1    0    0  502    0  0.00000000000E+00  0.00000000000E+00  0.12637134115E+03  0.12637134115E+03  0.00000000000E+00 0. -1.
          1   -1    0    0  501    0 -0.00000000000E+00 -0.00000000000E+00 -0.67394009083E+03  0.67394009083E+03  0.00000000000E+00 0. -1.
         25    2    1    2    0    0 -0.68737332566E+02  0.29873228783E+02 -0.26472541825E+03  0.30219405374E+03  0.12499787344E+03 0.  0.
          2    1    1    2  501    0  0.15187196375E+02 -0.40716080382E+02 -0.38223550970E+03  0.38469784898E+03  0.00000000000E+00 0. -1.
          1    1    1    2  502    0  0.53550136192E+02  0.10842851600E+02  0.99392178265E+02  0.11341952926E+03  0.00000000000E+00 0. -1.
         22    1    3    3    0    0 -0.50237087021E+02 -0.92994007272E+01 -0.25187846657E+03  0.25700779305E+03  0.00000000000E+00 0.  1.
         22    1    3    3    0    0 -0.18500245545E+02  0.39172629510E+02 -0.12846951677E+02  0.45186260692E+02  0.00000000000E+00 0.  1.
</event>
<event>
 7    1  0.5064652E-006  0.8287598E+02  0.7818608E-02  0.1460730E+00
          2   -1    0    0  502    0  0.00000000000E+00  0.00000000000E+00  0.20902201648E+04  0.20902201648E+04  0.00000000000E+00 0. -1.
          1   -1    0    0  501    0 -0.00000000000E+00 -0.00000000000E+00 -0.28272509304E+03  0.28272509304E+03  0.00000000000E+00 0. -1.
         25    2    1    2    0    0  0.26707606973E+02  0.54586447240E+02  0.34237997832E+03  0.36951640031E+03  0.12500137620E+03 0.  0.
          2    1    1    2  501    0  0.23146105966E+02  0.13795505558E+02 -0.26744715204E+03  0.26880111110E+03  0.00000000000E+00 0. -1.
          1    1    1    2  502    0 -0.49853712940E+02 -0.68381952799E+02  0.17325622454E+04  0.17346277464E+04  0.00000000000E+00 0. -1.
         22    1    3    3    0    0  0.60042134524E+02 -0.81467201979E+01  0.21815428081E+03  0.22641271432E+03  0.00000000000E+00 0.  1.
         22    1    3    3    0    0 -0.33334527551E+02  0.62733167438E+02  0.12422569751E+03  0.14310368599E+03  0.00000000000E+00 0.  1.
</event>
<event>
 7    1  0.6384063E-006  0.2001182E+03  0.7818608E-02  0.1195237E+00
          2   -1    0    0  502    0  0.00000000000E+00  0.00000000000E+00  0.13456981887E+04  0.13456981887E+04  0.00000000000E+00 0. -1.
          1   -1    0    0  501    0 -0.00000000000E+00 -0.00000000000E+00 -0.92637490977E+03  0.92637490977E+03  0.00000000000E+00 0. -1.
         25    2    1    2    0    0  0.61426893567E+02 -0.74459767580E+02 -0.26150948093E+03  0.30550124838E+03  0.12500513551E+03 0.  0.
          2    1    1    2  501    0  0.11676955224E+03 -0.23124269783E+02 -0.62946255156E+03  0.64061920358E+03  0.00000000000E+00 0. -1.
          1    1    1    2  502    0 -0.17819644581E+03  0.97584037363E+02  0.13102953114E+04  0.13259526465E+04  0.00000000000E+00 0. -1.
         22    1    3    3    0    0  0.81255749301E+02 -0.19944370183E+02 -0.83203305145E+02  0.11799603673E+03  0.00000000000E+00 0.  1.
         22    1    3    3    0    0 -0.19828855734E+02 -0.54515397397E+02 -0.17830617579E+03  0.18750521165E+03  0.00000000000E+00 0.  1.
</event>
<event>
 7    1  0.5064652E-006  0.7729023E+02  0.7818608E-02  0.1444570E+00
          2   -1    0    0  502    0  0.00000000000E+00  0.00000000000E+00  0.28588862316E+03  0.28588862316E+03  0.00000000000E+00 0. -1.
          1   -1    0    0  501    0 -0.00000000000E+00 -0.00000000000E+00 -0.64282491506E+03  0.64282491506E+03  0.00000000000E+00 0. -1.
         25    2    1    2    0    0  0.76063189940E+02 -0.57757236033E+02 -0.49698292042E+03  0.52128522042E+03  0.12499900262E+03 0.  0.
          2    1    1    2  501    0 -0.45189047563E+02  0.47506759276E+02 -0.12459556069E+03  0.14079416160E+03  0.00000000000E+00 0. -1.
          1    1    1    2  502    0 -0.30874142377E+02  0.10250476757E+02  0.26464218922E+03  0.26663415621E+03  0.00000000000E+00 0. -1.
         22    1    3    3    0    0  0.10889062537E+03 -0.58819210488E+02 -0.37137094738E+03  0.39145018632E+03  0.00000000000E+00 0.  1.
         22    1    3    3    0    0 -0.32827435426E+02  0.10619744550E+01 -0.12561197305E+03  0.12983503410E+03  0.00000000000E+00 0.  1.
</event>
<event>
 7    1  0.5064652E-006  0.9146760E+02  0.7818608E-02  0.1388244E+00
          2   -1    0    0  502    0  0.00000000000E+00  0.00000000000E+00  0.47152690332E+03  0.47152690332E+03  0.00000000000E+00 0. -1.
          1   -1    0    0  501    0 -0.00000000000E+00 -0.00000000000E+00 -0.38999495545E+03  0.38999495545E+03  0.00000000000E+00 0. -1.
         25    2    1    2    0    0 -0.50618947331E+02 -0.73539487097E+02  0.15820433884E+03  0.22051376969E+03  0.12500950285E+03 0.  0.
          2    1    1    2  501    0  0.80806427697E+02  0.43629946216E+02 -0.35130383473E+03  0.36310829687E+03  0.00000000000E+00 0. -1.
          1    1    1    2  502    0 -0.30187480366E+02  0.29909540881E+02  0.27463144376E+03  0.27789979220E+03  0.00000000000E+00 0. -1.
         22    1    3    3    0    0 -0.43513947166E+02 -0.80073425082E+02  0.36090600260E+02  0.98019122775E+02  0.00000000000E+00 0.  1.
         22    1    3    3    0    0 -0.71050001648E+01  0.65339379852E+01  0.12211373858E+03  0.12249464692E+03  0.00000000000E+00 0.  1.
</event>
<event>
 7    1  0.5064652E-006  0.8297212E+02  0.7818608E-02  0.1430357E+00
          2   -1    0    0  502    0  0.00000000000E+00  0.00000000000E+00  0.11805562814E+03  0.11805562814E+03  0.00000000000E+00 0. -1.
          1   -1    0    0  501    0 -0.00000000000E+00 -0.00000000000E+00 -0.88728012167E+03  0.88728012167E+03  0.00000000000E+00 0. -1.
         25    2    1    2    0    0 -0.89253412195E+02 -0.99516042904E+01 -0.23073158743E+03  0.27735675352E+03  0.12499798906E+03 0.  0.
          2    1    1    2  501    0  0.72879021446E+02  0.39420208776E+02 -0.62742454682E+03  0.63287191957E+03  0.00000000000E+00 0. -1.
          1    1    1    2  502    0  0.16374390749E+02 -0.29468604486E+02  0.88931640711E+02  0.95107076720E+02  0.00000000000E+00 0. -1.
         22    1    3    3    0    0 -0.42115124613E+01  0.39889909549E+02 -0.13152673618E+03  0.13750717818E+03  0.00000000000E+00 0. -1.
         22    1    3    3    0    0 -0.85041899734E+02 -0.49841513840E+02 -0.99204851256E+02  0.13984957535E+03  0.00000000000E+00 0. -1.
</event>
<event>
 7    1  0.5064652E-006  0.4146139E+02  0.7818608E-02  0.1538206E+00
          2   -1    0    0  502    0  0.00000000000E+00  0.00000000000E+00  0.54715987286E+03  0.54715987286E+03  0.00000000000E+00 0. -1.
          1   -1    0    0  501    0 -0.00000000000E+00 -0.00000000000E+00 -0.51254943279E+03  0.51254943279E+03  0.00000000000E+00 0. -1.
         25    2    1    2    0    0  0.70012327794E+02  0.13400884674E+02 -0.54868511901E+02  0.15400234533E+03  0.12499943606E+03 0.  0.
          2    1    1    2  501    0 -0.38412874814E+02 -0.13937277545E+02 -0.40658701102E+03  0.40863528260E+03  0.00000000000E+00 0. -1.
          1    1    1    2  502    0 -0.31599452981E+02  0.53639287181E+00  0.49606596299E+03  0.49707167771E+03  0.00000000000E+00 0. -1.
         22    1    3    3    0    0  0.86831419671E+02  0.42577992943E+02 -0.90401574377E+01  0.97130352474E+02  0.00000000000E+00 0. -1.
         22    1    3    3    0    0 -0.16819091877E+02 -0.29177108269E+02 -0.45828354464E+02  0.56871992856E+02  0.00000000000E+00 0. -1.
</event>
<event>
 7    1  0.5064652E-006  0.1104139E+03  0.7818608E-02  0.1328875E+00
          2   -1    0    0  502    0  0.00000000000E+00  0.00000000000E+00  0.23864458168E+03  0.23864458168E+03  0.00000000000E+00 0. -1.
          1   -1    0    0  501    0 -0.00000000000E+00 -0.00000000000E+00 -0.10069496170E+04  0.10069496170E+04  0.00000000000E+00 0. -1.
         25    2    1    2    0    0  0.38333199342E+02  0.68902280692E+02 -0.18216300680E+03  0.23457444173E+03  0.12499939683E+03 0.  0.
          2    1    1    2  501    0 -0.37307299572E+02  0.44479389004E+02 -0.78229875327E+03  0.78444986456E+03  0.00000000000E+00 0. -1.
          1    1    1    2  502    0 -0.10258997701E+01 -0.11338166970E+03  0.19615672473E+03  0.22656989241E+03  0.00000000000E+00 0. -1.
         22    1    3    3    0    0 -0.35453534109E+02  0.25188484742E+02 -0.12279085312E+03  0.13026513906E+03  0.00000000000E+00 0.  1.
         22    1    3    3    0    0  0.73786733451E+02  0.43713795951E+02 -0.59372153681E+02  0.10430930266E+03  0.00000000000E+00 0.  1.
</event>
<event>
 7    1  0.5064652E-006  0.5713829E+02  0.7818608E-02  0.1439722E+00
          2   -1    0    0  502    0  0.00000000000E+00  0.00000000000E+00  0.53385706788E+03  0.53385706788E+03  0.00000000000E+00 0. -1.
          1   -1    0    0  501    0 -0.00000000000E+00 -0.00000000000E+00 -0.86975348128E+03  0.86975348128E+03  0.00000000000E+00 0. -1.
         25    2    1    2    0    0  0.30901408272E+02  0.20484192710E+02 -0.22471525222E+03  0.25980069290E+03  0.12499982507E+03 0.  0.
          2    1    1    2  501    0 -0.70482127549E+01 -0.59374834554E+02 -0.62505824245E+03  0.62791150231E+03  0.00000000000E+00 0. -1.
          1    1    1    2  502    0 -0.23853195517E+02  0.38890641844E+02  0.51387708126E+03  0.51589835395E+03  0.00000000000E+00 0. -1.
         22    1    3    3    0    0  0.43707620270E+02  0.88017943075E+01 -0.23530230303E+03  0.23948904247E+03  0.00000000000E+00 0.  1.
         22    1    3    3    0    0 -0.12806211999E+02  0.11682398402E+02  0.10587050813E+02  0.20311650428E+02  0.00000000000E+00 0.  1.
</event>
<event>
 7    1  0.5064652E-006  0.1643859E+03  0.7818608E-02  0.1319548E+00
          2   -1    0    0  502    0  0.00000000000E+00  0.00000000000E+00  0.16162499601E+03  0.16162499601E+03  0.00000000000E+00 0. -1.
          1   -1    0    0  501    0 -0.00000000000E+00 -0.00000000000E+00 -0.49498237799E+03  0.49498237799E+03  0.00000000000E+00 0. -1.
         25    2    1    2    0    0 -0.19027253667E+03 -0.29042920335E+02 -0.28042461208E+03  0.36236668643E+03  0.12499809176E+03 0.  0.
          2    1    1    2  501    0  0.30344136762E+02  0.29555047809E+02 -0.11510512203E+03  0.12265176968E+03  0.00000000000E+00 0. -1.
          1    1    1    2  502    0  0.15992839990E+03 -0.51212747447E+00  0.62172352134E+02  0.17158891788E+03  0.00000000000E+00 0. -1.
         22    1    3    3    0    0 -0.13489353951E+03  0.38634853184E+01 -0.92236936181E+02  0.16345900378E+03  0.00000000000E+00 0. -1.
         22    1    3    3    0    0 -0.55378997160E+02 -0.32906405653E+02 -0.18818767590E+03  0.19890768265E+03  0.00000000000E+00 0. -1.
</event>
<event>
 7    1  0.5064652E-006  0.1048565E+03  0.7818608E-02  0.1411052E+00
          2   -1    0    0  502    0  0.00000000000E+00  0.00000000000E+00  0.15058942527E+04  0.15058942527E+04  0.00000000000E+00 0. -1.
          1   -1    0    0  501    0 -0.00000000000E+00 -0.00000000000E+00 -0.89673432593E+02  0.89673432593E+02  0.00000000000E+00 0. -1.
         25    2    1    2    0    0 -0.25711926345E+02 -0.72327639441E+02  0.11425464033E+03  0.18593529473E+03  0.12500168161E+03 0.  0.
          2    1    1    2  501    0 -0.19203963635E+02 -0.24260753579E+02 -0.47107212542E+02  0.56360144225E+02  0.00000000000E+00 0. -1.
          1    1    1    2  502    0  0.44915889980E+02  0.96588393021E+02  0.13490733923E+04  0.13532722463E+04  0.00000000000E+00 0. -1.
         22    1    3    3    0    0  0.30333638461E+01 -0.23148259732E+02  0.12568572417E+03  0.12783561509E+03  0.00000000000E+00 0.  1.
         22    1    3    3    0    0 -0.28745290191E+02 -0.49179379710E+02 -0.11431083842E+02  0.58099679643E+02  0.00000000000E+00 0.  1.
</event>
<event>
 7    1  0.5064652E-006  0.1736847E+03  0.7818608E-02  0.1200801E+00
          2   -1    0    0  502    0  0.00000000000E+00  0.00000000000E+00  0.41667479555E+03  0.41667479555E+03  0.00000000000E+00 0. -1.
          1   -1    0    0  501    0 -0.00000000000E+00 -0.00000000000E+00 -0.93382650305E+03  0.93382650305E+03  0.00000000000E+00 0. -1.
         25    2    1    2    0    0  0.12318706918E+03 -0.26165719987E+03 -0.48871620574E+02  0.31882968719E+03  0.12499755951E+03 0.  0.
          2    1    1    2  501    0 -0.43439810689E+02  0.16015283092E+03 -0.72530906855E+03  0.74404918609E+03  0.00000000000E+00 0. -1.
          1    1    1    2  502    0 -0.79747258493E+02  0.10150436895E+03  0.25702898162E+03  0.28762242532E+03  0.00000000000E+00 0. -1.
         22    1    3    3    0    0  0.11599174848E+03 -0.16172316127E+03 -0.79121965952E+02  0.21416991409E+03  0.00000000000E+00 0. -1.
         22    1    3    3    0    0  0.71953207016E+01 -0.99934038598E+02  0.30250345378E+02  0.10465977310E+03  0.00000000000E+00 0. -1.
</event>
<event>
 7    1  0.5064652E-006  0.7872603E+02  0.7818608E-02  0.1382109E+00
          2   -1    0    0  502    0  0.00000000000E+00  0.00000000000E+00  0.20622443366E+04  0.20622443366E+04  0.00000000000E+00 0. -1.
          1   -1    0    0  501    0 -0.00000000000E+00 -0.00000000000E+00 -0.44439305948E+03  0.44439305948E+03  0.00000000000E+00 0. -1.
         25    2    1    2    0    0  0.30855664459E+02  0.13234761890E+02  0.97127314724E+03  0.97985930483E+03  0.12500199905E+03 0.  0.
          2    1    1    2  501    0 -0.78582553154E+02  0.71215491044E+01 -0.43593692311E+03  0.44302024226E+03  0.00000000000E+00 0. -1.
          1    1    1    2  502    0  0.47726888695E+02 -0.20356310995E+02  0.10825150530E+04  0.10837578490E+04  0.00000000000E+00 0. -1.
         22    1    3    3    0    0  0.65213313558E+02  0.13742345546E+02  0.87683621095E+03  0.87936532178E+03  0.00000000000E+00 0.  1.
         22    1    3    3    0    0 -0.34357649099E+02 -0.50758365532E+00  0.94436936293E+02  0.10049398305E+03  0.00000000000E+00 0.  1.
</event>
<event>
 7    1  0.5064652E-006  0.1273214E+03  0.7818608E-02  0.1368414E+00
          2   -1    0    0  502    0  0.00000000000E+00  0.00000000000E+00  0.77859990058E+03  0.77859990058E+03  0.00000000000E+00 0. -1.
          1   -1    0    0  501    0 -0.00000000000E+00 -0.00000000000E+00 -0.40602052718E+03  0.40602052718E+03  0.00000000000E+00 0. -1.
         25    2    1    2    0    0  0.25714101169E+02 -0.15867673670E+03  0.45179153544E+03  0.49556084774E+03  0.12500176220E+03 0.  0.
          2    1    1    2  501    0 -0.10499744644E+02  0.12615750697E+03 -0.37258185342E+03  0.39350120546E+03  0.00000000000E+00 0. -1.
          1    1    1    2  502    0 -0.15214356525E+02  0.32519229728E+02  0.29336969138E+03  0.29555837455E+03  0.00000000000E+00 0. -1.
         22    1    3    3    0    0  0.16194388084E+02 -0.16699333334E+03  0.45279600652E+03  0.48288016641E+03  0.00000000000E+00 0.  1.
         22    1    3    3    0    0  0.95197130853E+01  0.83165966450E+01 -0.10044710832E+01  0.12680681336E+02  0.00000000000E+00 0.  1.
</event>
<event>
 7    1  0.5064652E-006  0.2896908E+03  0.7818608E-02  0.1271271E+00
          2   -1    0    0  502    0  0.00000000000E+00  0.00000000000E+00  0.11659247322E+04  0.11659247322E+04  0.00000000000E+00 0. -1.
          1   -1    0    0  501    0 -0.00000000000E+00 -0.00000000000E+00 -0.11394573871E+04  0.11394573871E+04  0.00000000000E+00 0. -1.
         25    2    1    2    0    0 -0.25327110486E+03 -0.19796572905E+03  0.60880789906E+03  0.69972071447E+03  0.12500135143E+03 0.  0.
          2    1    1    2  501    0  0.23799121551E+03  0.16357002332E+03 -0.10742121895E+04  0.11123519224E+04  0.00000000000E+00 0. -1.
          1    1    1    2  502    0  0.15279889349E+02  0.34395705730E+02  0.49187163551E+03  0.49330948239E+03  0.00000000000E+00 0. -1.
         22    1    3    3    0    0 -0.17956676878E+03 -0.61663325419E+02  0.34339356869E+03  0.39238467499E+03  0.00000000000E+00 0. -1.
         22    1    3    3    0    0 -0.73704336080E+02 -0.13630240363E+03  0.26541433037E+03  0.30733603947E+03  0.00000000000E+00 0. -1.
</event>
<event>
 7    1  0.6344243E-006  0.5799612E+02  0.7818608E-02  0.1494652E+00
          2   -1    0    0  502    0  0.00000000000E+00  0.00000000000E+00  0.48254510665E+03  0.48254510665E+03  0.00000000000E+00 0. -1.
          1   -1    0    0  501    0 -0.00000000000E+00 -0.00000000000E+00 -0.20791640288E+04  0.20791640288E+04  0.00000000000E+00 0. -1.
         25    2    1    2    0    0  0.57425892546E+02  0.42434311834E+02 -0.44601643475E+03  0.46867111434E+03  0.12499419745E+03 0.  0.
          2    1    1    2  501    0 -0.74867997033E+00 -0.30267197895E+02 -0.16198954633E+04  0.16201783778E+04  0.00000000000E+00 0. -1.
          1    1    1    2  502    0 -0.56677212576E+02 -0.12167113939E+02  0.46929297589E+03  0.47285964335E+03  0.00000000000E+00 0. -1.
         22    1    3    3    0    0  0.69192978206E+02  0.14867918999E+02 -0.10672512369E+03  0.12805848381E+03  0.00000000000E+00 0. -1.
         22    1    3    3    0    0 -0.11767085660E+02  0.27566392834E+02 -0.33929131106E+03  0.34061263053E+03  0.00000000000E+00 0. -1.
</event>
<event>
 7    1  0.5111727E-006  0.4967526E+02  0.7818608E-02  0.1462633E+00
          2   -1    0    0  502    0  0.00000000000E+00  0.00000000000E+00  0.13003461931E+04  0.13003461931E+04  0.00000000000E+00 0. -1.
          1   -1    0    0  501    0 -0.00000000000E+00 -0.00000000000E+00 -0.75275693201E+03  0.75275693201E+03  0.00000000000E+00 0. -1.
         25    2    1    2    0    0  0.84908297518E+02 -0.18555039142E+02 -0.10414077563E+03  0.18445516427E+03  0.12499879205E+03 0.  0.
          2    1    1    2  501    0 -0.43483548947E+02 -0.86672362920E+01 -0.60716280819E+03  0.60877961174E+03  0.00000000000E+00 0. -1.
          1    1    1    2  502    0 -0.41424748572E+02  0.27222275434E+02  0.12588928449E+04  0.12598683491E+04  0.00000000000E+00 0. -1.
         22    1    3    3    0    0  0.46328350963E+02  0.17044679846E+02 -0.11988439086E+03  0.12964993014E+03  0.00000000000E+00 0. -1.
         22    1    3    3    0    0  0.38579946556E+02 -0.35599718988E+02  0.15743615228E+02  0.54805234136E+02  0.00000000000E+00 0. -1.
</event>
<event>
 7    1  0.5064652E-006  0.1484553E+03  0.7818608E-02  0.1278472E+00
          2   -1    0    0  502    0  0.00000000000E+00  0.00000000000E+00  0.21990278301E+04  0.21990278301E+04  0.00000000000E+00 0. -1.
          1   -1    0    0  501    0 -0.00000000000E+00 -0.00000000000E+00 -0.14932571900E+04  0.14932571900E+04  0.00000000000E+00 0. -1.
         25    2    1    2    0    0 -0.53797875688E+02  0.12864054262E+03  0.10876849601E+02  0.18757391763E+03  0.12499227209E+03 0.  0.
          2    1    1    2  501    0  0.11423229345E+03 -0.96306087873E+02 -0.14003742127E+04  0.14083223406E+04  0.00000000000E+00 0. -1.
          1    1    1    2  502    0 -0.60434417758E+02 -0.32334454744E+02  0.20952680032E+04  0.20963887619E+04  0.00000000000E+00 0. -1.
         22    1    3    3    0    0  0.31453501638E+02  0.52093135748E+02 -0.27452475379E+02  0.66758190222E+02  0.00000000000E+00 0.  1.
         22    1    3    3    0    0 -0.85251377326E+02  0.76547406870E+02  0.38329324981E+02  0.12081572740E+03  0.00000000000E+00 0.  1.
</event>
<event>
 7    1  0.5064652E-006  0.1434278E+03  0.7818608E-02  0.1413429E+00
          2   -1    0    0  502    0  0.00000000000E+00  0.00000000000E+00  0.15798926039E+04  0.15798926039E+04  0.00000000000E+00 0. -1.
          1   -1    0    0  501    0 -0.00000000000E+00 -0.00000000000E+00 -0.10187410182E+04  0.10187410182E+04  0.00000000000E+00 0. -1.
         25    2    1    2    0    0  0.39264634780E+02  0.16054988189E+03  0.35678311833E+03  0.41259856549E+03  0.12500162640E+03 0.  0.
          2    1    1    2  501    0 -0.35462287355E+02 -0.13867172061E+03 -0.98555992214E+03  0.99589948290E+03  0.00000000000E+00 0. -1.
          1    1    1    2  502    0 -0.38023474247E+01 -0.21878161277E+02  0.11899283895E+04  0.11901355737E+04  0.00000000000E+00 0. -1.
         22    1    3    3    0    0  0.23824062728E+02  0.54354212132E+02  0.25905460182E+02  0.64753835474E+02  0.00000000000E+00 0. -1.
         22    1    3    3    0    0  0.15440572052E+02  0.10619566975E+03  0.33087765815E+03  0.34784473002E+03  0.00000000000E+00 0. -1.
</event>
<event>
 7    1  0.5064652E-006  0.9281735E+02  0.7818608E-02  0.1409437E+00
          2   -1    0    0  502    0  0.00000000000E+00  0.00000000000E+00  0.22049805349E+04  0.22049805349E+04  0.00000000000E+00 0. -1.
          1   -1    0    0  501    0 -0.00000000000E+00 -0.00000000000E+00 -0.93728077687E+01  0.93728077687E+01  0.00000000000E+00 0. -1.
         25    2    1    2    0    0 -0.69419976789E+02  0.48234303584E+02  0.10475781682E+04  0.10583903782E+04  0.12499797193E+03 0.  0.
          2    1    1    2  501    0 -0.26819392282E+02 -0.23102644364E+02  0.33839157870E+03  0.34023796454E+03  0.00000000000E+00 0. -1.
          1    1    1    2  502    0  0.96239369070E+02 -0.25131659221E+02  0.80963798015E+03  0.81572499983E+03  0.00000000000E+00 0. -1.
         22    1    3    3    0    0 -0.60847048104E+02 -0.19651970269E+02  0.76410688898E+03  0.76677760856E+03  0.00000000000E+00 0.  1.
         22    1    3    3    0    0 -0.85729286849E+01  0.67886273854E+02  0.28347127925E+03  0.29161276968E+03  0.00000000000E+00 0.  1.
</event>
<event>
 7    1  0.5064652E-006  0.7144115E+02  0.7818608E-02  0.1506150E+00
          2   -1    0    0  502    0  0.00000000000E+00  0.00000000000E+00  0.34036058670E+03  0.34036058670E+03  0.00000000000E+00 0. -1.
          1   -1    0    0  501    0 -0.00000000000E+00 -0.00000000000E+00 -0.44687236987E+02  0.44687236987E+02  0.00000000000E+00 0. -1.
         25    2    1    2    0    0  0.52154471052E+02  0.33097269794E+02  0.13499547993E+03  0.19407136156E+03  0.12499758261E+03 0.  0.
          2    1    1    2  501    0  0.19626698036E+02 -0.11430060211E+02  0.15250041915E+02  0.27357217158E+02  0.00000000000E+00 0. -1.
          1    1    1    2  502    0 -0.71781169088E+02 -0.21667209583E+02  0.14542782787E+03  0.16361924497E+03  0.00000000000E+00 0. -1.
         22    1    3    3    0    0  0.34254922718E+02  0.64430337401E+01 -0.16958731012E+02  0.38762236413E+02  0.00000000000E+00 0.  1.
         22    1    3    3    0    0  0.17899548333E+02  0.26654236054E+02  0.15195421095E+03  0.15530912515E+03  0.00000000000E+00 0.  1.
</event>
<event>
 7    1  0.5064652E-006  0.1138539E+03  0.7818608E-02  0.1262307E+00
          2   -1    0    0  502    0  0.00000000000E+00  0.00000000000E+00  0.11866647887E+04  0.11866647887E+04  0.00000000000E+00 0. -1.
          1   -1    0    0  501    0 -0.00000000000E+00 -0.00000000000E+00 -0.16533755180E+04  0.16533755180E+04  0.00000000000E+00 0. -1.
         25    2    1    2    0    0  0.16342070445E+03  0.99630459370E+02  0.10904980348E+03  0.25327742190E+03  0.12500015091E+03 0.  0.
          2    1    1    2  501    0 -0.10434949219E+03 -0.52480739729E+01 -0.15764447241E+04  0.15799032651E+04  0.00000000000E+00 0. -1.
          1    1    1    2  502    0 -0.59071212259E+02 -0.94382385397E+02  0.10006841914E+04  0.10068596197E+04  0.00000000000E+00 0. -1.
         22    1    3    3    0    0  0.50457893590E+02  0.10337346775E+03  0.46273986599E+02  0.12398933299E+03  0.00000000000E+00 0. -1.
         22    1    3    3    0    0  0.11296281086E+03 -0.37430083752E+01  0.62775816882E+02  0.12928808892E+03  0.00000000000E+00 0. -1.
</event>
<event>
 7    1  0.5064652E-006  0.7802192E+02  0.7818608E-02  0.1335089E+00
          2   -1    0    0  502    0  0.00000000000E+00  0.00000000000E+00  0.26296768251E+03  0.26296768251E+03  0.00000000000E+00 0. -1.
          1   -1    0    0  501    0 -0.00000000000E+00 -0.00000000000E+00 -0.84713831188E+03  0.84713831188E+03  0.00000000000E+00 0. -1.
         25    2    1    2    0    0 -0.64948130244E+02  0.63238282931E+02  0.50337091954E+02  0.16240565209E+03  0.12499773179E+03 0.  0.
          2    1    1    2  501    0 -0.11785889078E+02 -0.77356030304E+02 -0.77930328068E+03  0.78322184972E+03  0.00000000000E+00 0. -1.
          1    1    1    2  502    0  0.76734019322E+02  0.14117747373E+02  0.14479555936E+03  0.16447849258E+03  0.00000000000E+00 0. -1.
         22    1    3    3    0    0  0.88228624086E+01  0.70368337582E+02  0.52535524206E+02  0.88258297847E+02  0.00000000000E+00 0. -1.
         22    1    3    3    0    0 -0.73770992652E+02 -0.71300546512E+01 -0.21984322516E+01  0.74147354239E+02  0.00000000000E+00 0. -1.
</event>
<event>
 7    1  0.5064652E-006  0.1881019E+03  0.7818608E-02  0.1196275E+00
          2   -1    0    0  502    0  0.00000000000E+00  0.00000000000E+00  0.18363311476E+04  0.18363311476E+04  0.00000000000E+00 0. -1.
          1   -1    0    0  501    0 -0.00000000000E+00 -0.00000000000E+00 -0.17274018335E+03  0.17274018335E+03  0.00000000000E+00 0. -1.
         25    2    1    2    0    0 -0.10095347528E+03  0.15200437028E+03  0.15450669428E+03  0.26980241867E+03  0.12499637509E+03 0.  0.
          2    1    1    2  501    0 -0.13854890894E+02 -0.20197346394E+03 -0.21486472218E+02  0.20358513360E+03  0.00000000000E+00 0. -1.
          1    1    1    2  502    0  0.11480836618E+03  0.49969093654E+02  0.15305707422E+04  0.15356837787E+04  0.00000000000E+00 0. -1.
         22    1    3    3    0    0 -0.12572047531E+03  0.11051546963E+03  0.14294475116E+03  0.22011930588E+03  0.00000000000E+00 0.  1.
         22    1    3    3    0    0  0.24767000023E+02  0.41488900655E+02  0.11561943123E+02  0.49683112790E+02  0.00000000000E+00 0.  1.
</event>
<event>
 7    1  0.5064652E-006  0.2611700E+02  0.7818608E-02  0.1691609E+00
          2   -1    0    0  502    0  0.00000000000E+00  0.00000000000E+00  0.16978471537E+03  0.16978471537E+03  0.00000000000E+00 0. -1.
          1   -1    0    0  501    0 -0.00000000000E+00 -0.00000000000E+00 -0.30959437821E+03  0.30959437821E+03  0.00000000000E+00 0. -1.
         25    2    1    2    0    0 -0.80407223526E+01 -0.39067741665E+02  0.11459909267E+03  0.17420786526E+03  0.12499794647E+03 0.  0.
          2    1    1    2  501    0  0.12882375138E+02  0.15616427433E+02 -0.27368377524E+03  0.27443148001E+03  0.00000000000E+00 0. -1.
          1    1    1    2  502    0 -0.48416527857E+01  0.23451314232E+02  0.19275019721E+02  0.30739748310E+02  0.00000000000E+00 0. -1.
         22    1    3    3    0    0  0.13880091613E+02 -0.25090327350E+02  0.13695209663E+03  0.13992161463E+03  0.00000000000E+00 0. -1.
         22    1    3    3    0    0 -0.21920813966E+02 -0.13977414315E+02 -0.22353003962E+02  0.34286250626E+02  0.00000000000E+00 0. -1.
</event>
<event>
 7    1  0.5064652E-006  0.7037228E+02  0.7818608E-02  0.1459030E+00
          2   -1    0    0  502    0  0.00000000000E+00  0.00000000000E+00  0.21851445642E+04  0.21851445642E+04  0.00000000000E+00 0. -1.
          1   -1    0    0  501    0 -0.00000000000E+00 -0.00000000000E+00 -0.45112470194E+03  0.45112470194E+03  0.00000000000E+00 0. -1.
         25    2    1    2    0    0 -0.32608983416E+02 -0.80647316310E+02 -0.77484576099E+02  0.17087083623E+03  0.12500259083E+03 0.  0.
          2    1    1    2  501    0  0.30410620321E+02  0.10361961365E+02 -0.32557804074E+03  0.32715934449E+03  0.00000000000E+00 0. -1.
          1    1    1    2  502    0  0.21983630949E+01  0.70285354945E+02  0.21370824791E+04  0.21382390855E+04  0.00000000000E+00 0. -1.
         22    1    3    3    0    0 -0.30500962177E+02 -0.58325608075E+02 -0.11188473641E+03  0.12980901160E+03  0.00000000000E+00 0.  1.
         22    1    3    3    0    0 -0.21080212388E+01 -0.22321708235E+02  0.34400160314E+02  0.41061824627E+02  0.00000000000E+00 0.  1.
</event>
<event>
 7    1  0.5064652E-006  0.3753790E+02  0.7818608E-02  0.1554736E+00
          2   -1    0    0  502    0  0.00000000000E+00  0.00000000000E+00  0.16056325731E+03  0.16056325731E+03  0.00000000000E+00 0. -1.
          1   -1    0    0  501    0 -0.00000000000E+00 -0.00000000000E+00 -0.12648588062E+04  0.12648588062E+04  0.00000000000E+00 0. -1.
         25    2    1    2    0    0  0.34728127102E+02  0.57764146434E+02 -0.10692479248E+03  0.17776419227E+03  0.12499782951E+03 0.  0.
          2    1    1    2  501    0 -0.20760480144E+02 -0.23524934016E+02 -0.11195580273E+04  0.11199975877E+04  0.00000000000E+00 0. -1.
          1    1    1    2  502    0 -0.13967646958E+02 -0.34239212418E+02  0.12218727086E+03  0.12766028352E+03  0.00000000000E+00 0. -1.
         22    1    3    3    0    0  0.30083301189E+02  0.75084678929E+02 -0.12736069073E+02  0.81883584898E+02  0.00000000000E+00 0. -1.
         22    1    3    3    0    0  0.46448259132E+01 -0.17320532495E+02 -0.94188723404E+02  0.95880607373E+02  0.00000000000E+00 0. -1.
</event>
<event>
 7    1  0.5064652E-006  0.1510537E+03  0.7818608E-02  0.1205669E+00
          2   -1    0    0  502    0  0.00000000000E+00  0.00000000000E+00  0.21105565881E+04  0.21105565881E+04  0.00000000000E+00 0. -1.
          1   -1    0    0  501    0 -0.00000000000E+00 -0.00000000000E+00 -0.56717795223E+03  0.56717795223E+03  0.00000000000E+00 0. -1.
         25    2    1    2    0    0 -0.22902755995E+03  0.11088423139E+03  0.40021328341E+03  0.49045327250E+03  0.12499921719E+03 0.  0.
          2    1    1    2  501    0  0.14074390377E+03  0.47245177173E+01 -0.50930785726E+03  0.52841807405E+03  0.00000000000E+00 0. -1.
          1    1    1    2  502    0  0.88283656178E+02 -0.11560874911E+03  0.16524732097E+04  0.16588631938E+04  0.00000000000E+00 0. -1.
         22    1    3    3    0    0  0.77547665869E+01 -0.19777204910E+01  0.61650621191E+02  0.62167892649E+02  0.00000000000E+00 0.  1.
         22    1    3    3    0    0 -0.23678232654E+03  0.11286195188E+03  0.33856266222E+03  0.42828537985E+03  0.00000000000E+00 0.  1.
</event>
<event>
 7    1  0.5064652E-006  0.5922119E+02  0.7818608E-02  0.1548291E+00
          2   -1    0    0  502    0  0.00000000000E+00  0.00000000000E+00  0.10673453198E+04  0.10673453198E+04  0.00000000000E+00 0. -1.
          1   -1    0    0  501    0 -0.00000000000E+00 -0.00000000000E+00 -0.12438297832E+03  0.12438297832E+03  0.00000000000E+00 0. -1.
         25    2    1    2    0    0 -0.42782872052E+02 -0.28574311110E+02  0.15779555402E+02  0.13609249720E+03  0.12500123211E+03 0.  0.
          2    1    1    2  501    0 -0.14887166044E+02  0.14420794335E+02 -0.61640134478E+02  0.65031478535E+02  0.00000000000E+00 0. -1.
          1    1    1    2  502    0  0.57670038096E+02  0.14153516775E+02  0.98882292052E+03  0.99060432236E+03  0.00000000000E+00 0. -1.
         22    1    3    3    0    0  0.87998423083E+01 -0.59692830168E+02  0.38649531416E+02  0.71655128754E+02  0.00000000000E+00 0. -1.
         22    1    3    3    0    0 -0.51582714360E+02  0.31118519057E+02 -0.22869976014E+02  0.64437368444E+02  0.00000000000E+00 0. -1.
</event>
<event>
 7    1  0.5064652E-006  0.1526729E+03  0.7818608E-02  0.1216247E+00
          2   -1    0    0  502    0  0.00000000000E+00  0.00000000000E+00  0.54512090156E+03  0.54512090156E+03  0.00000000000E+00 0. -1.
          1   -1    0    0  501    0 -0.00000000000E+00 -0.00000000000E+00 -0.23346670358E+03  0.23346670358E+03  0.00000000000E+00 0. -1.
         25    2    1    2    0    0  0.13215814129E+03  0.16006033156E+03  0.57543275643E+02  0.24903958476E+03  0.12499760860E+03 0.  0.
          2    1    1    2  501    0 -0.85462391568E+01 -0.14545088930E+03 -0.84744465879E+02  0.16855451314E+03  0.00000000000E+00 0. -1.
          1    1    1    2  502    0 -0.12361190213E+03 -0.14609442264E+02  0.33885538822E+03  0.36099350725E+03  0.00000000000E+00 0. -1.
         22    1    3    3    0    0  0.33293927861E+02  0.13264123441E+03  0.51951578857E+02  0.14629131636E+03  0.00000000000E+00 0.  1.
         22    1    3    3    0    0  0.98864213427E+02  0.27419097157E+02  0.55916967862E+01  0.10274826840E+03  0.00000000000E+00 0.  1.
</event>
<event>
 7    1  0.5064652E-006  0.1173044E+03  0.7818608E-02  0.1271598E+00
          2   -1    0    0  502    0  0.00000000000E+00  0.00000000000E+00  0.37379603618E+04  0.37379603618E+04  0.00000000000E+00 0. -1.
          1   -1    0    0  501    0 -0.00000000000E+00 -0.00000000000E+00 -0.22474064294E+02  0.22474064294E+02  0.00000000000E+00 0. -1.
         25    2    1    2    0    0 -0.19277177838E+02  0.31453607053E+02  0.25289332284E+04  0.25322891712E+04  0.12499693700E+03 0.  0.
          2    1    1    2  501    0  0.10762527401E+02 -0.12371578013E+03  0.18805621956E+03  0.22535875391E+03  0.00000000000E+00 0. -1.
          1    1    1    2  502    0  0.85146504370E+01  0.92262173077E+02  0.99849684959E+03  0.10027865009E+04  0.00000000000E+00 0. -1.
         22    1    3    3    0    0 -0.24364245852E+02  0.77965545624E+02  0.18032468341E+04  0.18050959496E+04  0.00000000000E+00 0. -1.
         22    1    3    3    0    0  0.50870680140E+01 -0.46511938572E+02  0.72568639428E+03  0.72719322160E+03  0.00000000000E+00 0. -1.
</event>
<event>
 7    1  0.7879957E-006  0.8898784E+02  0.7818608E-02  0.1328178E+00
          2   -1    0    0  502    0  0.00000000000E+00  0.00000000000E+00  0.82492108195E+03  0.82492108195E+03  0.00000000000E+00 0. -1.
          1   -1    0    0  501    0 -0.00000000000E+00 -0.00000000000E+00 -0.24803633809E+04  0.24803633809E+04  0.00000000000E+00 0. -1.
         25    2    1    2    0    0 -0.96678444327E+02 -0.70874976066E+00 -0.26733328443E+03  0.31054692310E+03  0.12500033024E+03 0.  0.
          2    1    1    2  501    0  0.62452999471E+02  0.64594271215E+02 -0.21888650483E+04  0.21907083322E+04  0.00000000000E+00 0. -1.
          1    1    1    2  502    0  0.34225444855E+02 -0.63885521454E+02  0.80075603380E+03  0.80402920755E+03  0.00000000000E+00 0. -1.
         22    1    3    3    0    0  0.15018018303E+02 -0.36863492562E+02 -0.82123878521E+02  0.91262201272E+02  0.00000000000E+00 0. -1.
         22    1    3    3    0    0 -0.11169646263E+03  0.36154742801E+02 -0.18520940591E+03  0.21928472183E+03  0.00000000000E+00 0. -1.
</event>
<event>
 7    1  0.5064652E-006  0.1297543E+03  0.7818608E-02  0.1424550E+00
          2   -1    0    0  502    0  0.00000000000E+00  0.00000000000E+00  0.17514302463E+03  0.17514302463E+03  0.00000000000E+00 0. -1.
          1   -1    0    0  501    0 -0.00000000000E+00 -0.00000000000E+00 -0.94522116093E+03  0.94522116093E+03  0.00000000000E+00 0. -1.
         25    2    1    2    0    0  0.40838671694E+02 -0.13669960230E+03 -0.25793076243E+02  0.19142858572E+03  0.12500016910E+03 0.  0.
          2    1    1    2  501    0 -0.20297538398E+02  0.12744102784E+03 -0.83017217007E+03  0.84014227224E+03  0.00000000000E+00 0. -1.
          1    1    1    2  502    0 -0.20541133295E+02  0.92585744560E+01  0.85887110015E+02  0.88793327592E+02  0.00000000000E+00 0. -1.
         22    1    3    3    0    0 -0.23885926968E+02  0.54255739371E+01 -0.25361452302E+02  0.35258724063E+02  0.00000000000E+00 0.  1.
         22    1    3    3    0    0  0.64724598662E+02 -0.14212517623E+03 -0.43162394036E+00  0.15616986166E+03  0.00000000000E+00 0.  1.
</event>
<event>
 7    1  0.5064652E-006  0.1198375E+03  0.7818608E-02  0.1317031E+00
          2   -1    0    0  502    0  0.00000000000E+00  0.00000000000E+00  0.11669086505E+04  0.11669086505E+04  0.00000000000E+00 0. -1.
          1   -1    0    0  501    0 -0.00000000000E+00 -0.00000000000E+00 -0.32783611950E+03  0.32783611950E+03  0.00000000000E+00 0. -1.
         25    2    1    2    0    0 -0.13236024912E+03 -0.44915534212E+00 -0.15453802856E+03  0.23880299059E+03  0.12500171501E+03 0.  0.
          2    1    1    2  501    0  0.10493636693E+03 -0.52275487190E+02 -0.10400360379E+03  0.15671986877E+03  0.00000000000E+00 0. -1.
          1    1    1    2  502    0  0.27423882190E+02  0.52724642532E+02  0.10976141634E+04  0.10992219107E+04  0.00000000000E+00 0. -1.
         22    1    3    3    0    0 -0.12273269405E+03 -0.21195558175E+02 -0.17033008373E+03  0.21100924932E+03  0.00000000000E+00 0. -1.
         22    1    3    3    0    0 -0.96275550723E+01  0.20746402833E+02  0.15792055171E+02  0.27793741269E+02  0.00000000000E+00 0. -1.
</event>
<event>
 7    1  0.5064652E-006  0.1227541E+03  0.7818608E-02  0.1387456E+00
          2   -1    0    0  502    0  0.00000000000E+00  0.00000000000E+00  0.15138482781E+04  0.15138482781E+04  0.00000000000E+00 0. -1.
          1   -1    0    0  501    0 -0.00000000000E+00 -0.00000000000E+00 -0.15447361080E+04  0.15447361080E+04  0.00000000000E+00 0. -1.
         25    2    1    2    0    0  0.82487632159E+02 -0.12280483971E+03 -0.12438055048E+03  0.23017657106E+03  0.12500197763E+03 0.  0.
          2    1    1    2  501    0 -0.53772362319E+02  0.10898819967E+03 -0.13645828661E+04  0.13699840485E+04  0.00000000000E+00 0. -1.
          1    1    1    2  502    0 -0.28715269840E+02  0.13816640048E+02  0.14580755867E+04  0.14584237665E+04  0.00000000000E+00 0. -1.
         22    1    3    3    0    0  0.46221426811E+02  0.34594338027E+01 -0.78241840318E+02  0.90940494583E+02  0.00000000000E+00 0. -1.
         22    1    3    3    0    0  0.36266205348E+02 -0.12626427352E+03 -0.46138710163E+02  0.13923607648E+03  0.00000000000E+00 0. -1.
</event>
<event>
 7    1  0.5064652E-006  0.6475399E+02  0.7818608E-02  0.1407891E+00
          2   -1    0    0  502    0  0.00000000000E+00  0.00000000000E+00  0.75440232213E+03  0.75440232213E+03  0.00000000000E+00 0. -1.
          1   -1    0    0  501    0 -0.00000000000E+00 -0.00000000000E+00 -0.41685471345E+03  0.41685471345E+03  0.00000000000E+00 0. -1.
         25    2    1    2    0    0  0.10409592125E+03 -0.33418218564E+02  0.98871250061E+02  0.19326887596E+03  0.12499838468E+03 0.  0.
          2    1    1    2  501    0 -0.52812055966E+02  0.36133541133E+02 -0.36578958408E+03  0.37134453796E+03  0.00000000000E+00 0. -1.
          1    1    1    2  502    0 -0.51283865282E+02 -0.27153225682E+01  0.60446594270E+03  0.60664362166E+03  0.00000000000E+00 0. -1.
         22    1    3    3    0    0  0.28853102392E+02 -0.18083886412E+02  0.11047839683E+03  0.11560711324E+03  0.00000000000E+00 0. -1.
         22    1    3    3    0    0  0.75242818856E+02 -0.15334332152E+02 -0.11607146770E+02  0.77661762716E+02  0.00000000000E+00 0. -1.
</event>
<event>
 7    1  0.5064652E-006  0.1414983E+03  0.7818608E-02  0.1265517E+00
          2   -1    0    0  502    0  0.00000000000E+00  0.00000000000E+00  0.32244906182E+03  0.32244906182E+03  0.00000000000E+00 0. -1.
          1   -1    0    0  501    0 -0.00000000000E+00 -0.00000000000E+00 -0.96713943570E+03  0.96713943570E+03  0.00000000000E+00 0. -1.
         25    2    1    2    0    0  0.37878321834E+02 -0.20332353363E+03 -0.19662849576E+03  0.31155179672E+03  0.12500612025E+03 0.  0.
          2    1    1    2  501    0 -0.53926700828E+02  0.12344468091E+03 -0.70021091596E+03  0.71305119391E+03  0.00000000000E+00 0. -1.
          1    1    1    2  502    0  0.16048378994E+02  0.79878852717E+02  0.25214903784E+03  0.26498550689E+03  0.00000000000E+00 0. -1.
         22    1    3    3    0    0 -0.12984131174E+02 -0.16912281045E+03 -0.99350079498E+02  0.19657454304E+03  0.00000000000E+00 0.  1.
         22    1    3    3    0    0  0.50862453008E+02 -0.34200723179E+02 -0.97278416263E+02  0.11497725367E+03  0.00000000000E+00 0.  1.
</event>
<event>
 7    1  0.5064652E-006  0.1049193E+03  0.7818608E-02  0.1352170E+00
          2   -1    0    0  502    0  0.00000000000E+00  0.00000000000E+00  0.12799082401E+03  0.12799082401E+03  0.00000000000E+00 0. -1.
          1   -1    0    0  501    0 -0.00000000000E+00 -0.00000000000E+00 -0.14426579803E+04  0.14426579803E+04  0.00000000000E+00 0. -1.
         25    2    1    2    0    0  0.51220220684E+02  0.27232897643E+02 -0.37947078104E+03  0.40371805569E+03  0.12500021242E+03 0.  0.
          2    1    1    2  501    0  0.43988585577E+02  0.23637753298E+02 -0.10251812085E+04  0.10263967309E+04  0.00000000000E+00 0. -1.
          1    1    1    2  502    0 -0.95208806261E+02 -0.50870650941E+02  0.89984833233E+02  0.14053401769E+03  0.00000000000E+00 0. -1.
         22    1    3    3    0    0 -0.18135700374E+02  0.39546912198E+02 -0.47739284814E+02  0.64590256285E+02  0.00000000000E+00 0.  1.
         22    1    3    3    0    0  0.69355921058E+02 -0.12314014555E+02 -0.33173149623E+03  0.33912779940E+03  0.00000000000E+00 0.  1.
</event>
<event>
 7    1  0.5064652E-006  0.6304222E+02  0.7818608E-02  0.1386986E+00
          2   -1    0    0  502    0  0.00000000000E+00  0.00000000000E+00  0.27970843599E+04  0.27970843599E+04  0.00000000000E+00 0. -1.
          1   -1    0    0  501    0 -0.00000000000E+00 -0.00000000000E+00 -0.13852398710E+03  0.13852398710E+03  0.00000000000E+00 0. -1.
         25    2    1    2    0    0  0.54538478829E+02  0.79218045846E+02  0.83139965654E+02  0.17828979380E+03  0.12500020889E+03 0.  0.
          2    1    1    2  501    0  0.60129192309E+01 -0.61994114734E+02 -0.79868335316E+02  0.10128364352E+03  0.00000000000E+00 0. -1.
          1    1    1    2  502    0 -0.60551398059E+02 -0.17223931113E+02  0.26552887425E+04  0.26560349097E+04  0.00000000000E+00 0. -1.
         22    1    3    3    0    0  0.91245020684E+02  0.66055891792E+02  0.81905779329E+02  0.13927523587E+03  0.00000000000E+00 0.  1.
         22    1    3    3    0    0 -0.36706541855E+02  0.13162154054E+02  0.12341863244E+01  0.39014557926E+02  0.00000000000E+00 0.  1.
</event>
<event>
 7    1  0.5064652E-006  0.8755127E+02  0.7818608E-02  0.1409629E+00
          2   -1    0    0  502    0  0.00000000000E+00  0.00000000000E+00  0.12371282063E+03  0.12371282063E+03  0.00000000000E+00 0. -1.
          1   -1    0    0  501    0 -0.00000000000E+00 -0.00000000000E+00 -0.14106302909E+04  0.14106302909E+04  0.00000000000E+00 0. -1.
         25    2    1    2    0    0  0.10018267825E+03  0.61746460098E+02 -0.53568172494E+03  0.56252171557E+03  0.12500630264E+03 0.  0.
          2    1    1    2  501    0 -0.18556564814E+02 -0.32553336713E+02 -0.84401410468E+03  0.84484547387E+03  0.00000000000E+00 0. -1.
          1    1    1    2  502    0 -0.81626113436E+02 -0.29193123385E+02  0.92778359293E+02  0.12697592213E+03  0.00000000000E+00 0. -1.
         22    1    3    3    0    0 -0.12259353916E+02 -0.87415690465E+01 -0.55748112620E+01  0.16055693957E+02  0.00000000000E+00 0. -1.
         22    1    3    3    0    0  0.11244203217E+03  0.70488029144E+02 -0.53010691367E+03  0.54646602161E+03  0.00000000000E+00 0. -1.
</event>
<event>
 7    1  0.9083141E-006  0.6914865E+02  0.7818608E-02  0.1476121E+00
          2   -1    0    0  502    0  0.00000000000E+00  0.00000000000E+00  0.12219912721E+04  0.12219912721E+04  0.00000000000E+00 0. -1.
          1   -1    0    0  501    0 -0.00000000000E+00 -0.00000000000E+00 -0.16445203450E+04  0.16445203450E+04  0.00000000000E+00 0. -1.
         25    2    1    2    0    0  0.24770454660E+02  0.84606122962E+02 -0.15510466434E+03  0.21784134684E+03  0.12500249608E+03 0.  0.
          2    1    1    2  501    0 -0.24384312492E+02 -0.15542446606E+02 -0.14569021859E+04  0.14571891235E+04  0.00000000000E+00 0. -1.
          1    1    1    2  502    0 -0.38614216828E+00 -0.69063676355E+02  0.11894777773E+04  0.11914811468E+04  0.00000000000E+00 0. -1.
         22    1    3    3    0    0 -0.26906664186E+02  0.94762744780E+02 -0.11636382296E+03  0.15246142355E+03  0.00000000000E+00 0. -1.
         22    1    3    3    0    0  0.51677118846E+02 -0.10156621818E+02 -0.38740841371E+02  0.65379923288E+02  0.00000000000E+00 0. -1.
</event>
<event>
 7    1  0.5064652E-006  0.1036254E+03  0.7818608E-02  0.1364945E+00
          2   -1    0    0  502    0  0.00000000000E+00  0.00000000000E+00  0.22478363070E+03  0.22478363070E+03  0.00000000000E+00 0. -1.
          1   -1    0    0  501    0 -0.00000000000E+00 -0.00000000000E+00 -0.85674909815E+03  0.85674909815E+03  0.00000000000E+00 0. -1.
         25    2    1    2    0    0  0.18090991676E+02  0.76527329482E+02  0.11567015684E+03  0.18758737540E+03  0.12500288832E+03 0.  0.
          2    1    1    2  501    0  0.19109848085E+02 -0.10255736275E+03 -0.81006312948E+03  0.81675300592E+03  0.00000000000E+00 0. -1.
          1    1    1    2  502    0 -0.37200839761E+02  0.26030033263E+02  0.62427505191E+02  0.77192347516E+02  0.00000000000E+00 0. -1.
         22    1    3    3    0    0  0.24590702868E+02  0.41192965541E+02 -0.16413535047E+02  0.50704705998E+02  0.00000000000E+00 0. -1.
         22    1    3    3    0    0 -0.64997111926E+01  0.35334363941E+02  0.13208369188E+03  0.13688266940E+03  0.00000000000E+00 0. -1.
</event>
<event>
 7    1  0.5064652E-006  0.5211670E+02  0.7818608E-02  0.1462248E+00
          2   -1    0    0  502    0  0.00000000000E+00  0.00000000000E+00  0.44890114618E+03  0.44890114618E+03  0.00000000000E+00 0. -1.
          1   -1    0    0  501    0 -0.00000000000E+00 -0.00000000000E+00 -0.11305182439E+04  0.11305182439E+04  0.00000000000E+00 0. -1.
         25    2    1    2    0    0  0.15424749397E+02  0.69776377128E+01 -0.37319798676E+03  0.39393931507E+03  0.12499934526E+03 0.  0.
          2    1    1    2  501    0 -0.31526671301E+02 -0.46179157690E+02 -0.74487540455E+03  0.74697109309E+03  0.00000000000E+00 0. -1.
          1    1    1    2  502    0  0.16101921904E+02  0.39201519977E+02  0.43645629357E+03  0.43850898195E+03  0.00000000000E+00 0. -1.
         22    1    3    3    0    0  0.28917446766E+01  0.57292868529E+02 -0.29211190569E+03  0.29769145170E+03  0.00000000000E+00 0.  1.
         22    1    3    3    0    0  0.12533004720E+02 -0.50315230817E+02 -0.81086081073E+02  0.96247863370E+02  0.00000000000E+00 0.  1.
</event>
<event>
 7    1  0.5064652E-006  0.1166896E+03  0.7818608E-02  0.1258023E+00
          2   -1    0    0  502    0  0.00000000000E+00  0.00000000000E+00  0.15988832538E+04  0.15988832538E+04  0.00000000000E+00 0. -1.
          1   -1    0    0  501    0 -0.00000000000E+00 -0.00000000000E+00 -0.12793176164E+04  0.12793176164E+04  0.00000000000E+00 0. -1.
         25    2    1    2    0    0  0.10573123661E+02  0.98617640272E+02  0.76989478687E+03  0.78625773133E+03  0.12500402918E+03 0.  0.
          2    1    1    2  501    0 -0.11546974617E+03 -0.16828743705E+02 -0.12630401585E+04  0.12684190596E+04  0.00000000000E+00 0. -1.
          1    1    1    2  502    0  0.10489662250E+03 -0.81788896566E+02  0.81271100901E+03  0.82352407929E+03  0.00000000000E+00 0. -1.
         22    1    3    3    0    0  0.50512099194E+02  0.95595866648E+02  0.66939501876E+03  0.67807059590E+03  0.00000000000E+00 0. -1.
         22    1    3    3    0    0 -0.39938975532E+02  0.30217736240E+01  0.10049976812E+03  0.10818713544E+03  0.00000000000E+00 0. -1.
</event>
<event>
 7    1  0.5064652E-006  0.1065592E+03  0.7818608E-02  0.1270442E+00
          2   -1    0    0  502    0  0.00000000000E+00  0.00000000000E+00  0.15386402395E+03  0.15386402395E+03  0.00000000000E+00 0. -1.
          1   -1    0    0  501    0 -0.00000000000E+00 -0.00000000000E+00 -0.18384096055E+04  0.18384096055E+04  0.00000000000E+00 0. -1.
         25    2    1    2    0    0  0.31444309293E+02  0.11426441727E+03 -0.13346564156E+04  0.13457257251E+04  0.12499951157E+03 0.  0.
          2    1    1    2  501    0  0.69844918527E+02 -0.94803353373E+02 -0.47213813967E+03  0.48660087483E+03  0.00000000000E+00 0. -1.
          1    1    1    2  502    0 -0.10128922782E+03 -0.19461063898E+02  0.12224897370E+03  0.15994702952E+03  0.00000000000E+00 0. -1.
         22    1    3    3    0    0  0.61842629595E+02  0.11747366820E+03 -0.87062646437E+03  0.88069007830E+03  0.00000000000E+00 0. -1.
         22    1    3    3    0    0 -0.30398320302E+02 -0.32092509336E+01 -0.46402995124E+03  0.46503564682E+03  0.00000000000E+00 0. -1.
</event>
<event>
 7    1  0.5064652E-006  0.1780422E+03  0.7818608E-02  0.1378421E+00
          2   -1    0    0  502    0  0.00000000000E+00  0.00000000000E+00  0.85380470808E+03  0.85380470808E+03  0.00000000000E+00 0. -1.
          1   -1    0    0  501    0 -0.00000000000E+00 -0.00000000000E+00 -0.21370179200E+03  0.21370179200E+03  0.00000000000E+00 0. -1.
         25    2    1    2    0    0 -0.18175687037E+03  0.85266748539E+01  0.59321820613E+03  0.63296192171E+03  0.12499876058E+03 0.  0.
          2    1    1    2  501    0  0.17511514920E+03 -0.31217860485E+02 -0.15217370525E+03  0.23408696431E+03  0.00000000000E+00 0. -1.
          1    1    1    2  502    0  0.66417211729E+01  0.22691185631E+02  0.19905841521E+03  0.20045761406E+03  0.00000000000E+00 0. -1.
         22    1    3    3    0    0 -0.79983292278E+02 -0.57876959886E+02  0.24472373528E+03  0.26388780976E+03  0.00000000000E+00 0.  1.
         22    1    3    3    0    0 -0.10177357809E+03  0.66403634740E+02  0.34849447084E+03  0.36907411195E+03  0.00000000000E+00 0.  1.
</event>
<event>
 7    1  0.5064652E-006  0.5565333E+02  0.7818608E-02  0.1432978E+00
          2   -1    0    0  502    0  0.00000000000E+00  0.00000000000E+00  0.40191147372E+02  0.40191147372E+02  0.00000000000E+00 0. -1.
          1   -1    0    0  501    0 -0.00000000000E+00 -0.00000000000E+00 -0.72891911965E+03  0.72891911965E+03  0.00000000000E+00 0. -1.
         25    2    1    2    0    0  0.20858525380E+02  0.53321906111E+01 -0.24286866387E+03  0.27399806643E+03  0.12500496862E+03 0.  0.
          2    1    1    2  501    0 -0.28874366075E+02 -0.53950121006E+02 -0.44141695601E+03  0.44563805226E+03  0.00000000000E+00 0. -1.
          1    1    1    2  502    0  0.80158406949E+01  0.48617930395E+02 -0.44423523972E+01  0.49474148327E+02  0.00000000000E+00 0. -1.
         22    1    3    3    0    0 -0.53074747741E+00 -0.13534166240E+02  0.11662661039E+02  0.17873807966E+02  0.00000000000E+00 0. -1.
         22    1    3    3    0    0  0.21389272857E+02  0.18866356851E+02 -0.25453132491E+03  0.25612425846E+03  0.00000000000E+00 0. -1.
</event>
<event>
 7    1  0.5064652E-006  0.1279335E+03  0.7818608E-02  0.1376213E+00
          2   -1    0    0  502    0  0.00000000000E+00  0.00000000000E+00  0.12919072557E+04  0.12919072557E+04  0.00000000000E+00 0. -1.
          1   -1    0    0  501    0 -0.00000000000E+00 -0.00000000000E+00 -0.79603017625E+03  0.79603017625E+03  0.00000000000E+00 0. -1.
         25    2    1    2    0    0 -0.17968381742E+02  0.98636964512E+02  0.27763822062E+01  0.16026584385E+03  0.12500127558E+03 0.  0.
          2    1    1    2  501    0 -0.23746376192E+02  0.23635349038E+02 -0.71344381721E+03  0.71423007527E+03  0.00000000000E+00 0. -1.
          1    1    1    2  502    0  0.41714757934E+02 -0.12227231355E+03  0.12065445145E+04  0.12134415129E+04  0.00000000000E+00 0. -1.
         22    1    3    3    0    0 -0.40353193362E+02  0.12065730585E+03  0.11305762849E+02  0.12772778063E+03  0.00000000000E+00 0.  1.
         22    1    3    3    0    0  0.22384811620E+02 -0.22020341341E+02 -0.85293806431E+01  0.32538063222E+02  0.00000000000E+00 0.  1.
</event>
<event>
 7    1  0.5064652E-006  0.8523193E+02  0.7818608E-02  0.1475006E+00
          2   -1    0    0  502    0  0.00000000000E+00  0.00000000000E+00  0.17687520544E+04  0.17687520544E+04  0.00000000000E+00 0. -1.
          1   -1    0    0  501    0 -0.00000000000E+00 -0.00000000000E+00 -0.65374970401E+02  0.65374970401E+02  0.00000000000E+00 0. -1.
         25    2    1    2    0    0 -0.70958376985E+02 -0.80233408616E+02  0.40497191552E+03  0.43714921030E+03  0.12499875434E+03 0.  0.
          2    1    1    2  501    0  0.16061249521E+02  0.17355176005E+02 -0.45078195495E+02  0.50903924990E+02  0.00000000000E+00 0. -1.
          1    1    1    2  502    0  0.54897127464E+02  0.62878232612E+02  0.13434833640E+04  0.13460738895E+04  0.00000000000E+00 0. -1.
         22    1    3    3    0    0 -0.70046368216E+02 -0.11155803688E+03  0.30110513325E+03  0.32865786247E+03  0.00000000000E+00 0. -1.
         22    1    3    3    0    0 -0.91200876920E+00  0.31324628264E+02  0.10386678227E+03  0.10849134783E+03  0.00000000000E+00 0. -1.
</event>
<event>
 7    1  0.5064652E-006  0.3699639E+02  0.7818608E-02  0.1563257E+00
          2   -1    0    0  502    0  0.00000000000E+00  0.00000000000E+00  0.25197382311E+03  0.25197382311E+03  0.00000000000E+00 0. -1.
          1   -1    0    0  501    0 -0.00000000000E+00 -0.00000000000E+00 -0.11864023258E+03  0.11864023258E+03  0.00000000000E+00 0. -1.
         25    2    1    2    0    0 -0.76494855921E+01  0.65068727392E+02  0.33347635757E+02  0.14501319337E+03  0.12499723007E+03 0.  0.
          2    1    1    2  501    0  0.35901366113E+01 -0.35184419161E+02 -0.56269705636E+02  0.66461358735E+02  0.00000000000E+00 0. -1.
          1    1    1    2  502    0  0.40593489808E+01 -0.29884308231E+02  0.15625566041E+03  0.15913950359E+03  0.00000000000E+00 0. -1.
         22    1    3    3    0    0  0.40978337338E+02  0.77128426573E+02  0.50759665108E+01  0.87485906023E+02  0.00000000000E+00 0. -1.
         22    1    3    3    0    0 -0.48627822930E+02 -0.12059699181E+02  0.28271669246E+02  0.57527287345E+02  0.00000000000E+00 0. -1.
</event>
<event>
 7    1  0.5064652E-006  0.1154870E+03  0.7818608E-02  0.1290860E+00
          2   -1    0    0  502    0  0.00000000000E+00  0.00000000000E+00  0.11924548014E+04  0.11924548014E+04  0.00000000000E+00 0. -1.
          1   -1    0    0  501    0 -0.00000000000E+00 -0.00000000000E+00 -0.49179996861E+02  0.49179996861E+02  0.00000000000E+00 0. -1.
         25    2    1    2    0    0 -0.45737756052E+02  0.27276233783E+01  0.88441780836E+02  0.15983324743E+03  0.12500134451E+03 0.  0.
          2    1    1    2  501    0 -0.77947183777E+02 -0.82104705511E+01  0.15704580114E+03  0.17551797327E+03  0.00000000000E+00 0. -1.
          1    1    1    2  502    0  0.12368493983E+03  0.54828471728E+01  0.89778722256E+03  0.90628357756E+03  0.00000000000E+00 0. -1.
         22    1    3    3    0    0  0.39123604659E+02  0.21192554138E+02  0.42733626943E+02  0.61692330675E+02  0.00000000000E+00 0. -1.
         22    1    3    3    0    0 -0.84861360711E+02 -0.18464930760E+02  0.45708153893E+02  0.98140916758E+02  0.00000000000E+00 0. -1.
</event>
<event>
 7    1  0.5064652E-006  0.8601521E+02  0.7818608E-02  0.1411222E+00
          2   -1    0    0  502    0  0.00000000000E+00  0.00000000000E+00  0.27915983689E+04  0.27915983689E+04  0.00000000000E+00 0. -1.
          1   -1    0    0  501    0 -0.00000000000E+00 -0.00000000000E+00 -0.10228256498E+03  0.10228256498E+03  0.00000000000E+00 0. -1.
         25    2    1    2    0    0  0.35121983648E+02  0.39364918575E+02  0.22726659440E+03  0.26468528140E+03  0.12500017084E+03 0.  0.
          2    1    1    2  501    0  0.75648220515E+01  0.36901873003E+02 -0.78538550570E+02  0.87104986593E+02  0.00000000000E+00 0. -1.
          1    1    1    2  502    0 -0.42686805700E+02 -0.76266791579E+02  0.25405877601E+04  0.25420906659E+04  0.00000000000E+00 0. -1.
         22    1    3    3    0    0  0.34402249383E+02 -0.56328647799E+01  0.21531914283E+03  0.21812284887E+03  0.00000000000E+00 0.  1.
         22    1    3    3    0    0  0.71973426481E+00  0.44997783355E+02  0.11947451568E+02  0.46562432532E+02  0.00000000000E+00 0.  1.
</event>
<event>
 7    1  0.5064652E-006  0.6355766E+02  0.7818608E-02  0.1473205E+00
          2   -1    0    0  502    0  0.00000000000E+00  0.00000000000E+00  0.14483292979E+04  0.14483292979E+04  0.00000000000E+00 0. -1.
          1   -1    0    0  501    0 -0.00000000000E+00 -0.00000000000E+00 -0.21152615096E+02  0.21152615096E+02  0.00000000000E+00 0. -1.
         25    2    1    2    0    0  0.20482101992E+02 -0.87189324282E+02  0.69476903120E+03  0.71158298078E+03  0.12499934820E+03 0.  0.
          2    1    1    2  501    0 -0.20171780997E+01  0.60907541681E+02  0.62752268427E+02  0.87473680806E+02  0.00000000000E+00 0. -1.
          1    1    1    2  502    0 -0.18464923892E+02  0.26281782600E+02  0.66965538321E+03  0.67042525144E+03  0.00000000000E+00 0. -1.
         22    1    3    3    0    0 -0.41934038978E+02 -0.74934752799E+02  0.31364247044E+03  0.32518499361E+03  0.00000000000E+00 0. -1.
         22    1    3    3    0    0  0.62416140970E+02 -0.12254571482E+02  0.38112656075E+03  0.38639798717E+03  0.00000000000E+00 0. -1.
</event>
<event>
 7    1  0.5064652E-006  0.9318758E+02  0.7818608E-02  0.1401492E+00
          2   -1    0    0  502    0  0.00000000000E+00  0.00000000000E+00  0.11781008050E+04  0.11781008050E+04  0.00000000000E+00 0. -1.
          1   -1    0    0  501    0 -0.00000000000E+00 -0.00000000000E+00 -0.23095294512E+03  0.23095294512E+03  0.00000000000E+00 0. -1.
         25    2    1    2    0    0  0.92851488542E+02  0.90156292458E+02 -0.12405330808E+03  0.21855019332E+03  0.12500163102E+03 0.  0.
          2    1    1    2  501    0 -0.21665862040E+02 -0.30641676018E+02 -0.51639637526E+02  0.63835523426E+02  0.00000000000E+00 0. -1.
          1    1    1    2  502    0 -0.71185626502E+02 -0.59514616440E+02  0.11228408055E+04  0.11266680334E+04  0.00000000000E+00 0. -1.
         22    1    3    3    0    0  0.83423998906E+02  0.11537350921E+03 -0.12786023218E+03  0.19136052152E+03  0.00000000000E+00 0. -1.
         22    1    3    3    0    0  0.94274896362E+01 -0.25217216751E+02  0.38069241027E+01  0.27189671800E+02  0.00000000000E+00 0. -1.
</event>
<event>
 7    1  0.5064652E-006  0.1295866E+03  0.7818608E-02  0.1345250E+00
          2   -1    0    0  502    0  0.00000000000E+00  0.00000000000E+00  0.25106866407E+04  0.25106866407E+04  0.00000000000E+00 0. -1.
          1   -1    0    0  501    0 -0.00000000000E+00 -0.00000000000E+00 -0.16566664637E+03  0.16566664637E+03  0.00000000000E+00 0. -1.
         25    2    1    2    0    0 -0.25007288830E+02 -0.11081270896E+03  0.55952302224E+02  0.17793379297E+03  0.12499981438E+03 0.  0.
          2    1    1    2  501    0 -0.91143580402E+01  0.13680746829E+03 -0.59496931188E+02  0.14946317180E+03  0.00000000000E+00 0. -1.
          1    1    1    2  502    0  0.34121646870E+02 -0.25994759336E+02  0.23485646233E+04  0.23489563223E+04  0.00000000000E+00 0. -1.
         22    1    3    3    0    0  0.41253449059E+02 -0.82303176650E+02  0.10466534154E+02  0.92656399040E+02  0.00000000000E+00 0.  1.
         22    1    3    3    0    0 -0.66260737889E+02 -0.28509532306E+02  0.45485768070E+02  0.85277393926E+02  0.00000000000E+00 0.  1.
</event>
<event>
 7    1  0.5064652E-006  0.1909807E+03  0.7818608E-02  0.1248189E+00
          2   -1    0    0  502    0  0.00000000000E+00  0.00000000000E+00  0.24198034182E+04  0.24198034182E+04  0.00000000000E+00 0. -1.
          1   -1    0    0  501    0 -0.00000000000E+00 -0.00000000000E+00 -0.16711571109E+04  0.16711571109E+04  0.00000000000E+00 0. -1.
         25    2    1    2    0    0  0.25396090174E+03 -0.45400255758E+02 -0.39604903466E+02  0.28939559604E+03  0.12499575910E+03 0.  0.
          2    1    1    2  501    0 -0.18671899129E+03  0.20699623670E+02 -0.15002381443E+04  0.15119546771E+04  0.00000000000E+00 0. -1.
          1    1    1    2  502    0 -0.67241910449E+02  0.24700632088E+02  0.22884893550E+04  0.22896102559E+04  0.00000000000E+00 0. -1.
         22    1    3    3    0    0  0.97111777116E+02  0.18470921300E+02 -0.64768236663E+02  0.11818120269E+03  0.00000000000E+00 0.  1.
         22    1    3    3    0    0  0.15684912462E+03 -0.63871177057E+02  0.25163333197E+02  0.17121439335E+03  0.00000000000E+00 0.  1.
</event>
<event>
 7    1  0.5064652E-006  0.1806332E+03  0.7818608E-02  0.1250393E+00
          2   -1    0    0  502    0  0.00000000000E+00  0.00000000000E+00  0.30198208341E+02  0.30198208341E+02  0.00000000000E+00 0. -1.
          1   -1    0    0  501    0 -0.00000000000E+00 -0.00000000000E+00 -0.28353972632E+04  0.28353972632E+04  0.00000000000E+00 0. -1.
         25    2    1    2    0    0 -0.12596730934E+03 -0.15324113128E+03 -0.95395203827E+03  0.98234403500E+03  0.12499881779E+03 0.  0.
          2    1    1    2  501    0  0.15640462562E+03  0.85694427906E+02 -0.17428707503E+04  0.17519715734E+04  0.00000000000E+00 0. -1.
          1    1    1    2  502    0 -0.30437316275E+02  0.67546703370E+02 -0.10837626624E+03  0.13127986305E+03  0.00000000000E+00 0. -1.
         22    1    3    3    0    0 -0.24340706842E+02 -0.89612384295E+02 -0.63207805601E+03  0.63886267563E+03  0.00000000000E+00 0. -1.
         22    1    3    3    0    0 -0.10162660250E+03 -0.63628746981E+02 -0.32187398226E+03  0.34348135937E+03  0.00000000000E+00 0. -1.
</event>
<event>
 7    1  0.5064652E-006  0.5715095E+02  0.7818608E-02  0.1491307E+00
          2   -1    0    0  502    0  0.00000000000E+00  0.00000000000E+00  0.36856590986E+04  0.36856590986E+04  0.00000000000E+00 0. -1.
          1   -1    0    0  501    0 -0.00000000000E+00 -0.00000000000E+00 -0.26141714384E+03  0.26141714384E+03  0.00000000000E+00 0. -1.
         25    2    1    2    0    0 -0.25003175712E+02 -0.65341799205E+02  0.55824560067E+02  0.15373657537E+03  0.12499537424E+03 0.  0.
          2    1    1    2  501    0 -0.16900570123E+02  0.26517737425E+02 -0.21106845920E+03  0.21339801812E+03  0.00000000000E+00 0. -1.
          1    1    1    2  502    0  0.41903745835E+02  0.38824061780E+02  0.35794858539E+04  0.35799416489E+04  0.00000000000E+00 0. -1.
         22    1    3    3    0    0  0.24228508673E+02 -0.60173530168E+02  0.76316741522E+02  0.10016046826E+03  0.00000000000E+00 0. -1.
         22    1    3    3    0    0 -0.49231684385E+02 -0.51682690379E+01 -0.20492181455E+02  0.53576107110E+02  0.00000000000E+00 0. -1.
</event>
<event>
 7    1  0.5064652E-006  0.6820743E+02  0.7818608E-02  0.1380338E+00
          2   -1    0    0  502    0  0.00000000000E+00  0.00000000000E+00  0.23792780737E+02  0.23792780737E+02  0.00000000000E+00 0. -1.
          1   -1    0    0  501    0 -0.00000000000E+00 -0.00000000000E+00 -0.18375671900E+04  0.18375671900E+04  0.00000000000E+00 0. -1.
         25    2    1    2    0    0  0.76897976570E+01  0.46423712241E+02 -0.73465043896E+03  0.74669277955E+03  0.12499818206E+03 0.  0.
          2    1    1    2  501    0  0.59451735141E+02 -0.34412521267E+02 -0.10257791214E+04  0.10280766198E+04  0.00000000000E+00 0. -1.
          1    1    1    2  502    0 -0.67141532798E+02 -0.12011190974E+02 -0.53344848882E+02  0.86590571295E+02  0.00000000000E+00 0. -1.
         22    1    3    3    0    0  0.14348792418E+02 -0.37827233586E+02 -0.12958859384E+03  0.13575710330E+03  0.00000000000E+00 0.  1.
         22    1    3    3    0    0 -0.66589947606E+01  0.84250945827E+02 -0.60506184513E+03  0.61093567625E+03  0.00000000000E+00 0.  1.
</event>
<event>
 7    1  0.5064652E-006  0.1375706E+03  0.7818608E-02  0.1269994E+00
          2   -1    0    0  502    0  0.00000000000E+00  0.00000000000E+00  0.13559193952E+04  0.13559193952E+04  0.00000000000E+00 0. -1.
          1   -1    0    0  501    0 -0.00000000000E+00 -0.00000000000E+00 -0.38377995847E+02  0.38377995847E+02  0.00000000000E+00 0. -1.
         25    2    1    2    0    0 -0.11747247985E+03 -0.13439063737E+02  0.51829591253E+03  0.54611057673E+03  0.12500286843E+03 0.  0.
          2    1    1    2  501    0 -0.75661946449E+01 -0.79880457850E+02  0.84167782309E+02  0.11628564153E+03  0.00000000000E+00 0. -1.
          1    1    1    2  502    0  0.12503867450E+03  0.93319521586E+02  0.71507770451E+03  0.73190117278E+03  0.00000000000E+00 0. -1.
         22    1    3    3    0    0 -0.10666129615E+03 -0.59058769885E+02  0.41763067224E+03  0.43506315495E+03  0.00000000000E+00 0. -1.
         22    1    3    3    0    0 -0.10811183703E+02  0.45619706149E+02  0.10066524029E+03  0.11104742179E+03  0.00000000000E+00 0. -1.
</event>
<event>
 7    1  0.5064652E-006  0.1984531E+03  0.7818608E-02  0.1219348E+00
          2   -1    0    0  502    0  0.00000000000E+00  0.00000000000E+00  0.42372407136E+04  0.42372407136E+04  0.00000000000E+00 0. -1.
          1   -1    0    0  501    0 -0.00000000000E+00 -0.00000000000E+00 -0.48637197397E+02  0.48637197397E+02  0.00000000000E+00 0. -1.
         25    2    1    2    0    0  0.21959356909E+03  0.14010315094E+03  0.77602490435E+03  0.82806400749E+03  0.12500047936E+03 0.  0.
          2    1    1    2  501    0 -0.13109704992E+03 -0.11257144808E+03  0.31856050956E+03  0.36240800994E+03  0.00000000000E+00 0. -1.
          1    1    1    2  502    0 -0.88496519170E+02 -0.27531702855E+02  0.30940181023E+04  0.30954058935E+04  0.00000000000E+00 0. -1.
         22    1    3    3    0    0  0.98305393628E+02  0.13398528177E+03  0.48655377360E+03  0.51415034839E+03  0.00000000000E+00 0. -1.
         22    1    3    3    0    0  0.12128817547E+03  0.61178691684E+01  0.28947113075E+03  0.31391365910E+03  0.00000000000E+00 0. -1.
</event>
<event>
 7    1  0.5064652E-006  0.4065765E+03  0.7818608E-02  0.1250684E+00
          2   -1    0    0  502    0  0.00000000000E+00  0.00000000000E+00  0.62983364277E+03  0.62983364277E+03  0.00000000000E+00 0. -1.
          1   -1    0    0  501    0 -0.00000000000E+00 -0.00000000000E+00 -0.18420166350E+04  0.18420166350E+04  0.00000000000E+00 0. -1.
         25    2    1    2    0    0 -0.37784061889E+03  0.21654026293E+03 -0.53492757088E+03  0.70101729625E+03  0.12499809920E+03 0.  0.
          2    1    1    2  501    0  0.30663996822E+02 -0.11698955483E+02 -0.11494845715E+04  0.11499530105E+04  0.00000000000E+00 0. -1.
          1    1    1    2  502    0  0.34717662207E+03 -0.20484130745E+03  0.47222915015E+03  0.62087997101E+03  0.00000000000E+00 0. -1.
         22    1    3    3    0    0 -0.26089969786E+03  0.79201858982E+02 -0.31742225360E+03  0.41844769553E+03  0.00000000000E+00 0.  1.
         22    1    3    3    0    0 -0.11694092104E+03  0.13733840395E+03 -0.21750531728E+03  0.28256960073E+03  0.00000000000E+00 0.  1.
</event>
<event>
 7    1  0.5064652E-006  0.1149068E+03  0.7818608E-02  0.1297273E+00
          2   -1    0    0  502    0  0.00000000000E+00  0.00000000000E+00  0.90707051586E+03  0.90707051586E+03  0.00000000000E+00 0. -1.
          1   -1    0    0  501    0 -0.00000000000E+00 -0.00000000000E+00 -0.11145551983E+03  0.11145551983E+03  0.00000000000E+00 0. -1.
         25    2    1    2    0    0 -0.15813124823E+03  0.53883612557E+02  0.14844580653E+03  0.25606706000E+03  0.12500098547E+03 0.  0.
          2    1    1    2  501    0  0.72257195420E+02  0.16918785930E+02 -0.27145849245E+02  0.79020533652E+02  0.00000000000E+00 0. -1.
          1    1    1    2  502    0  0.85874052813E+02 -0.70802398487E+02  0.67431503874E+03  0.68343844204E+03  0.00000000000E+00 0. -1.
         22    1    3    3    0    0 -0.81305178926E+02 -0.25350525088E+02  0.21467112882E+02  0.87829483534E+02  0.00000000000E+00 0. -1.
         22    1    3    3    0    0 -0.76826069307E+02  0.79234137645E+02  0.12697869365E+03  0.16823757646E+03  0.00000000000E+00 0. -1.
</event>
<event>
 7    1  0.5064652E-006  0.7129355E+02  0.7818608E-02  0.1390296E+00
          2   -1    0    0  502    0  0.00000000000E+00  0.00000000000E+00  0.10364938210E+04  0.10364938210E+04  0.00000000000E+00 0. -1.
          1   -1    0    0  501    0 -0.00000000000E+00 -0.00000000000E+00 -0.11137364351E+03  0.11137364351E+03  0.00000000000E+00 0. -1.
         25    2    1    2    0    0 -0.77134643042E+02  0.34058699643E+02  0.10387829433E+03  0.18309679442E+03  0.12499595159E+03 0.  0.
          2    1    1    2  501    0  0.82040163379E+01 -0.52996863611E+02 -0.60092244220E+02  0.80542232724E+02  0.00000000000E+00 0. -1.
          1    1    1    2  502    0  0.68930626705E+02  0.18938163968E+02  0.88133412737E+03  0.88422843735E+03  0.00000000000E+00 0. -1.
         22    1    3    3    0    0  0.25710120726E+02 -0.18652094443E+02  0.75489682453E+01  0.32648091160E+02  0.00000000000E+00 0.  1.
         22    1    3    3    0    0 -0.10284476377E+03  0.52710794086E+02  0.96329326088E+02  0.15044870326E+03  0.00000000000E+00 0.  1.
</event>
<event>
 7    1  0.5064652E-006  0.8806198E+02  0.7818608E-02  0.1314146E+00
          2   -1    0    0  502    0  0.00000000000E+00  0.00000000000E+00  0.65431998818E+03  0.65431998818E+03  0.00000000000E+00 0. -1.
          1   -1    0    0  501    0 -0.00000000000E+00 -0.00000000000E+00 -0.25816568950E+03  0.25816568950E+03  0.00000000000E+00 0. -1.
         25    2    1    2    0    0 -0.21168414977E+02 -0.24286295623E+02  0.42122209738E+02  0.13580304285E+03  0.12502103802E+03 0.  0.
          2    1    1    2  501    0 -0.24241660983E+02  0.93763613654E+02 -0.19695556123E+03  0.21947839637E+03  0.00000000000E+00 0. -1.
          1    1    1    2  502    0  0.45410075960E+02 -0.69477318031E+02  0.55098765017E+03  0.55720423846E+03  0.00000000000E+00 0. -1.
         22    1    3    3    0    0 -0.64221100990E+02 -0.22102427572E+02 -0.94661685222E+01  0.68574597800E+02  0.00000000000E+00 0. -1.
         22    1    3    3    0    0  0.43052686013E+02 -0.21838680516E+01  0.51588378260E+02  0.67228445052E+02  0.00000000000E+00 0. -1.
</event>
<event>
 7    1  0.5064652E-006  0.4457253E+02  0.7818608E-02  0.1477177E+00
          2   -1    0    0  502    0  0.00000000000E+00  0.00000000000E+00  0.14114218066E+03  0.14114218066E+03  0.00000000000E+00 0. -1.
          1   -1    0    0  501    0 -0.00000000000E+00 -0.00000000000E+00 -0.50765317299E+03  0.50765317299E+03  0.00000000000E+00 0. -1.
         25    2    1    2    0    0  0.43833203664E+01 -0.26125524450E+02  0.28524423619E+00  0.12777546487E+03  0.12499892613E+03 0.  0.
          2    1    1    2  501    0  0.42472311935E+02  0.13364851289E+02 -0.43501166091E+03  0.43728441735E+03  0.00000000000E+00 0. -1.
          1    1    1    2  502    0 -0.46855632301E+02  0.12760673161E+02  0.68215424341E+02  0.83735471432E+02  0.00000000000E+00 0. -1.
         22    1    3    3    0    0 -0.19982565206E+02 -0.34921713858E+02  0.54468872763E+02  0.67717701608E+02  0.00000000000E+00 0.  1.
         22    1    3    3    0    0  0.24365885573E+02  0.87961894076E+01 -0.54183628526E+02  0.60057763263E+02  0.00000000000E+00 0.  1.
</event>
<event>
 7    1  0.5064652E-006  0.1194788E+03  0.7818608E-02  0.1303860E+00
          2   -1    0    0  502    0  0.00000000000E+00  0.00000000000E+00  0.29713478271E+04  0.29713478271E+04  0.00000000000E+00 0. -1.
          1   -1    0    0  501    0 -0.00000000000E+00 -0.00000000000E+00 -0.90722035038E+02  0.90722035038E+02  0.00000000000E+00 0. -1.
         25    2    1    2    0    0  0.71124259623E+02 -0.37666661521E+02  0.88778290599E+03  0.90014431100E+03  0.12499541897E+03 0.  0.
          2    1    1    2  501    0  0.63167292224E+02  0.22842909762E+02 -0.68629327589E+02  0.96030671864E+02  0.00000000000E+00 0. -1.
          1    1    1    2  502    0 -0.13429155185E+03  0.14823751759E+02  0.20614722137E+04  0.20658948793E+04  0.00000000000E+00 0. -1.
         22    1    3    3    0    0  0.75848015297E+02 -0.53929480354E+02  0.87213578919E+03  0.87708730755E+03  0.00000000000E+00 0.  1.
         22    1    3    3    0    0 -0.47237556733E+01  0.16262818833E+02  0.15647116797E+02  0.23057003451E+02  0.00000000000E+00 0.  1.
</event>
<event>
 7    1  0.5064652E-006  0.7001167E+02  0.7818608E-02  0.1410920E+00
          2   -1    0    0  502    0  0.00000000000E+00  0.00000000000E+00  0.32726687884E+03  0.32726687884E+03  0.00000000000E+00 0. -1.
          1   -1    0    0  501    0 -0.00000000000E+00 -0.00000000000E+00 -0.13462135240E+04  0.13462135240E+04  0.00000000000E+00 0. -1.
         25    2    1    2    0    0 -0.49256094321E+02 -0.85973392194E+02 -0.15316572731E+03  0.22113884671E+03  0.12500025003E+03 0.  0.
          2    1    1    2  501    0  0.56583410503E+02  0.40167099694E+02 -0.11561801404E+04  0.11582605904E+04  0.00000000000E+00 0. -1.
          1    1    1    2  502    0 -0.73273161818E+01  0.45806292500E+02  0.29039922251E+03  0.29408096577E+03  0.00000000000E+00 0. -1.
         22    1    3    3    0    0 -0.42907023555E+02  0.24116549102E+02 -0.48651477377E+02  0.69206841149E+02  0.00000000000E+00 0.  1.
         22    1    3    3    0    0 -0.63490707659E+01 -0.11008994130E+03 -0.10451424993E+03  0.15193200556E+03  0.00000000000E+00 0.  1.
</event>
<event>
 7    1  0.5064652E-006  0.1578727E+03  0.7818608E-02  0.1211551E+00
          2   -1    0    0  502    0  0.00000000000E+00  0.00000000000E+00  0.28564778144E+04  0.28564778144E+04  0.00000000000E+00 0. -1.
          1   -1    0    0  501    0 -0.00000000000E+00 -0.00000000000E+00 -0.33226402682E+03  0.33226402682E+03  0.00000000000E+00 0. -1.
         25    2    1    2    0    0  0.20522803434E+03 -0.13970393103E+03  0.18725114931E+03  0.33514956416E+03  0.12500601191E+03 0.  0.
          2    1    1    2  501    0 -0.14951691958E+03  0.26110530761E+02 -0.23432882532E+03  0.27919002030E+03  0.00000000000E+00 0. -1.
          1    1    1    2  502    0 -0.55711114751E+02  0.11359340027E+03  0.25712914636E+04  0.25744022568E+04  0.00000000000E+00 0. -1.
         22    1    3    3    0    0  0.20066286913E+02 -0.80725680224E+02  0.47505530282E+02  0.95791788403E+02  0.00000000000E+00 0.  1.
         22    1    3    3    0    0  0.18516174742E+03 -0.58978250808E+02  0.13974561903E+03  0.23935777575E+03  0.00000000000E+00 0.  1.
</event>
<event>
 7    1  0.5064652E-006  0.1672018E+03  0.7818608E-02  0.1295160E+00
          2   -1    0    0  502    0  0.00000000000E+00  0.00000000000E+00  0.15592838411E+04  0.15592838411E+04  0.00000000000E+00 0. -1.
          1   -1    0    0  501    0 -0.00000000000E+00 -0.00000000000E+00 -0.51542645042E+03  0.51542645042E+03  0.00000000000E+00 0. -1.
         25    2    1    2    0    0 -0.92286419417E+02 -0.15793438860E+03 -0.78267154151E+02  0.23496696485E+03  0.12499469124E+03 0.  0.
          2    1    1    2  501    0  0.11940603128E+03  0.11355471553E+03 -0.33940395914E+03  0.37728970461E+03  0.00000000000E+00 0. -1.
          1    1    1    2  502    0 -0.27119611866E+02  0.44379673068E+02  0.14615285040E+04  0.14624536221E+04  0.00000000000E+00 0. -1.
         22    1    3    3    0    0 -0.48179394272E+02 -0.10346417530E+03  0.18357483470E+02  0.11559881834E+03  0.00000000000E+00 0.  1.
         22    1    3    3    0    0 -0.44107025145E+02 -0.54470213302E+02 -0.96624637620E+02  0.11936814650E+03  0.00000000000E+00 0.  1.
</event>
<event>
 7    1  0.5064652E-006  0.1043566E+03  0.7818608E-02  0.1329387E+00
          2   -1    0    0  502    0  0.00000000000E+00  0.00000000000E+00  0.39638316576E+03  0.39638316576E+03  0.00000000000E+00 0. -1.
          1   -1    0    0  501    0 -0.00000000000E+00 -0.00000000000E+00 -0.65777298202E+03  0.65777298202E+03  0.00000000000E+00 0. -1.
         25    2    1    2    0    0  0.90516285959E+02  0.77416220932E+02  0.16126822275E+02  0.17341372772E+03  0.12500310908E+03 0.  0.
          2    1    1    2  501    0 -0.10293572143E+03 -0.17543442691E+02 -0.57124836712E+03  0.58071355423E+03  0.00000000000E+00 0. -1.
          1    1    1    2  502    0  0.12419435472E+02 -0.59872778241E+02  0.29373172858E+03  0.30002886582E+03  0.00000000000E+00 0. -1.
         22    1    3    3    0    0  0.17367822317E+02  0.19193427920E+02 -0.51762226321E+02  0.57873629582E+02  0.00000000000E+00 0. -1.
         22    1    3    3    0    0  0.73148463642E+02  0.58222793013E+02  0.67889048596E+02  0.11554009814E+03  0.00000000000E+00 0. -1.
</event>
<event>
 7    1  0.5064652E-006  0.6985215E+02  0.7818608E-02  0.1409302E+00
          2   -1    0    0  502    0  0.00000000000E+00  0.00000000000E+00  0.22586351869E+03  0.22586351869E+03  0.00000000000E+00 0. -1.
          1   -1    0    0  501    0 -0.00000000000E+00 -0.00000000000E+00 -0.33087370241E+03  0.33087370241E+03  0.00000000000E+00 0. -1.
         25    2    1    2    0    0 -0.85890882067E+02  0.40445313468E+02  0.37145544813E+02  0.16130013571E+03  0.12499950111E+03 0.  0.
          2    1    1    2  501    0  0.41285500706E+02 -0.55524058877E+02 -0.25972838908E+03  0.26878662500E+03  0.00000000000E+00 0. -1.
          1    1    1    2  502    0  0.44605381361E+02  0.15078745409E+02  0.11757266055E+03  0.12665046039E+03  0.00000000000E+00 0. -1.
         22    1    3    3    0    0 -0.22431798508E+02  0.79318448642E+02  0.16417457871E+02  0.84048407494E+02  0.00000000000E+00 0. -1.
         22    1    3    3    0    0 -0.63459083559E+02 -0.38873135174E+02  0.20728086942E+02  0.77251728218E+02  0.00000000000E+00 0. -1.
</event>
<event>
 7    1  0.5064652E-006  0.3175918E+03  0.7818608E-02  0.1250626E+00
          2   -1    0    0  502    0  0.00000000000E+00  0.00000000000E+00  0.19741517088E+04  0.19741517088E+04  0.00000000000E+00 0. -1.
          1   -1    0    0  501    0 -0.00000000000E+00 -0.00000000000E+00 -0.11999706695E+03  0.11999706695E+03  0.00000000000E+00 0. -1.
         25    2    1    2    0    0  0.28044687900E+03 -0.15358378304E+03  0.51953073103E+03  0.62271683662E+03  0.12500259106E+03 0.  0.
          2    1    1    2  501    0 -0.25583355292E+03  0.18766514323E+03  0.30226002128E+03  0.43821242936E+03  0.00000000000E+00 0. -1.
          1    1    1    2  502    0 -0.24613326082E+02 -0.34081360198E+02  0.10323638895E+04  0.10332195097E+04  0.00000000000E+00 0. -1.
         22    1    3    3    0    0  0.15014377079E+02 -0.59995480712E+02  0.96153460283E+02  0.11432575016E+03  0.00000000000E+00 0. -1.
         22    1    3    3    0    0  0.26543250192E+03 -0.93588302325E+02  0.42337727074E+03  0.50839108646E+03  0.00000000000E+00 0. -1.
</event>
<event>
 7    1  0.5064652E-006  0.9899790E+02  0.7818608E-02  0.1291196E+00
          2   -1    0    0  502    0  0.00000000000E+00  0.00000000000E+00  0.67457274518E+03  0.67457274518E+03  0.00000000000E+00 0. -1.
          1   -1    0    0  501    0 -0.00000000000E+00 -0.00000000000E+00 -0.45890344760E+03  0.45890344760E+03  0.00000000000E+00 0. -1.
         25    2    1    2    0    0 -0.97047437229E+02  0.14877271927E+03 -0.86081787989E+02  0.23364321678E+03  0.12501020539E+03 0.  0.
          2    1    1    2  501    0  0.73047169125E+02 -0.54514741333E+02 -0.28801847403E+03  0.30209665229E+03  0.00000000000E+00 0. -1.
          1    1    1    2  502    0  0.24000268104E+02 -0.94257977934E+02  0.58976955959E+03  0.59773632372E+03  0.00000000000E+00 0. -1.
         22    1    3    3    0    0 -0.98322373523E+02  0.79485111352E+02 -0.43780469050E+01  0.12650825806E+03  0.00000000000E+00 0.  1.
         22    1    3    3    0    0  0.12749362942E+01  0.69287607915E+02 -0.81703741084E+02  0.10713495872E+03  0.00000000000E+00 0.  1.
</event>
<event>
 7    1  0.5064652E-006  0.1361973E+03  0.7818608E-02  0.1288515E+00
          2   -1    0    0  502    0  0.00000000000E+00  0.00000000000E+00  0.12503767491E+04  0.12503767491E+04  0.00000000000E+00 0. -1.
          1   -1    0    0  501    0 -0.00000000000E+00 -0.00000000000E+00 -0.92166583935E+03  0.92166583935E+03  0.00000000000E+00 0. -1.
         25    2    1    2    0    0 -0.75251367329E+02  0.91600902664E+02  0.24679374813E+03  0.30097458381E+03  0.12500020931E+03 0.  0.
          2    1    1    2  501    0  0.12788844876E+03 -0.48650639715E+02 -0.88814828019E+03  0.89862656742E+03  0.00000000000E+00 0. -1.
          1    1    1    2  502    0 -0.52637081430E+02 -0.42950262949E+02  0.97006544178E+03  0.97244143719E+03  0.00000000000E+00 0. -1.
         22    1    3    3    0    0 -0.81933895095E+02  0.10446342438E+03  0.25259698399E+03  0.28536118608E+03  0.00000000000E+00 0.  1.
         22    1    3    3    0    0  0.66825277661E+01 -0.12862521716E+02 -0.58032358592E+01  0.15613397730E+02  0.00000000000E+00 0.  1.
</event>
<event>
 7    1  0.5064652E-006  0.8263038E+02  0.7818608E-02  0.1416500E+00
          2   -1    0    0  502    0  0.00000000000E+00  0.00000000000E+00  0.12346983333E+04  0.12346983333E+04  0.00000000000E+00 0. -1.
          1   -1    0    0  501    0 -0.00000000000E+00 -0.00000000000E+00 -0.41525325600E+03  0.41525325600E+03  0.00000000000E+00 0. -1.
         25    2    1    2    0    0  0.11619918552E+03  0.26636056425E+02  0.11172527240E+03  0.20573620173E+03  0.12503246775E+03 0.  0.
          2    1    1    2  501    0 -0.79333010077E+02 -0.19049721134E+02 -0.36339406407E+03  0.37244041694E+03  0.00000000000E+00 0. -1.
          1    1    1    2  502    0 -0.36866175447E+02 -0.75863352913E+01  0.10711138690E+04  0.10717749706E+04  0.00000000000E+00 0. -1.
         22    1    3    3    0    0 -0.13350908299E+02  0.38895170139E+02  0.15720101779E+02  0.44025022572E+02  0.00000000000E+00 0.  1.
         22    1    3    3    0    0  0.12955009382E+03 -0.12259113714E+02  0.96005170619E+02  0.16171117916E+03  0.00000000000E+00 0.  1.
</event>
<event>
 7    1  0.5064652E-006  0.9150651E+02  0.7818608E-02  0.1338535E+00
          2   -1    0    0  502    0  0.00000000000E+00  0.00000000000E+00  0.74365485855E+03  0.74365485855E+03  0.00000000000E+00 0. -1.
          1   -1    0    0  501    0 -0.00000000000E+00 -0.00000000000E+00 -0.25639504464E+03  0.25639504464E+03  0.00000000000E+00 0. -1.
         25    2    1    2    0    0  0.24780255498E+02 -0.15035615761E+03  0.49112240699E+02  0.20311988904E+03  0.12499856776E+03 0.  0.
          2    1    1    2  501    0 -0.18738314128E+02  0.61585988624E+02 -0.17027437683E+03  0.18203659472E+03  0.00000000000E+00 0. -1.
          1    1    1    2  502    0 -0.60419413694E+01  0.88770168990E+02  0.60842195005E+03  0.61489341943E+03  0.00000000000E+00 0. -1.
         22    1    3    3    0    0  0.48285608204E+02 -0.52743069839E+01  0.23394791164E+02  0.53913212921E+02  0.00000000000E+00 0.  1.
         22    1    3    3    0    0 -0.23505352707E+02 -0.14508185063E+03  0.25717449535E+02  0.14920667612E+03  0.00000000000E+00 0.  1.
</event>
<event>
 7    1  0.5064652E-006  0.2901619E+02  0.7818608E-02  0.1634082E+00
          2   -1    0    0  502    0  0.00000000000E+00  0.00000000000E+00  0.82458584177E+03  0.82458584177E+03  0.00000000000E+00 0. -1.
          1   -1    0    0  501    0 -0.00000000000E+00 -0.00000000000E+00 -0.26567208430E+03  0.26567208430E+03  0.00000000000E+00 0. -1.
         25    2    1    2    0    0 -0.47390430469E+02  0.14317533182E+02 -0.54279985776E+02  0.14498897352E+03  0.12499856372E+03 0.  0.
          2    1    1    2  501    0  0.28466161249E+02  0.21527237262E+01 -0.16460679415E+03  0.16706391961E+03  0.00000000000E+00 0. -1.
          1    1    1    2  502    0  0.18924269220E+02 -0.16470256908E+02  0.77780053740E+03  0.77820503294E+03  0.00000000000E+00 0. -1.
         22    1    3    3    0    0  0.37498077131E+02  0.30706920956E+01  0.87924095809E+01  0.38637305868E+02  0.00000000000E+00 0. -1.
         22    1    3    3    0    0 -0.84888507600E+02  0.11246841086E+02 -0.63072395357E+02  0.10635166766E+03  0.00000000000E+00 0. -1.
</event>
<event>
 7    1  0.5064652E-006  0.8136900E+02  0.7818608E-02  0.1462338E+00
          2   -1    0    0  502    0  0.00000000000E+00  0.00000000000E+00  0.14567313409E+04  0.14567313409E+04  0.00000000000E+00 0. -1.
          1   -1    0    0  501    0 -0.00000000000E+00 -0.00000000000E+00 -0.35103053786E+03  0.35103053786E+03  0.00000000000E+00 0. -1.
         25    2    1    2    0    0 -0.19331761180E+02 -0.62142134820E+02 -0.58411478241E+02  0.15255018365E+03  0.12499718330E+03 0.  0.
          2    1    1    2  501    0  0.18919394076E+02 -0.19439738734E+02 -0.24361588780E+03  0.24512149580E+03  0.00000000000E+00 0. -1.
          1    1    1    2  502    0  0.41236710337E+00  0.81581873554E+02  0.14077281691E+04  0.14100901993E+04  0.00000000000E+00 0. -1.
         22    1    3    3    0    0  0.17558088939E+02 -0.11425998168E+00 -0.76220366083E+02  0.78216646236E+02  0.00000000000E+00 0.  1.
         22    1    3    3    0    0 -0.36889850118E+02 -0.62027874838E+02  0.17808887842E+02  0.74333537417E+02  0.00000000000E+00 0.  1.
</event>
<event>
 7    1  0.5064652E-006  0.9674107E+02  0.7818608E-02  0.1405742E+00
          2   -1    0    0  502    0  0.00000000000E+00  0.00000000000E+00  0.96379226960E+02  0.96379226960E+02  0.00000000000E+00 0. -1.
          1   -1    0    0  501    0 -0.00000000000E+00 -0.00000000000E+00 -0.28345256699E+03  0.28345256699E+03  0.00000000000E+00 0. -1.
         25    2    1    2    0    0  0.35238516738E+02  0.87825092975E+02 -0.15741672256E+02  0.15756834504E+03  0.12499993238E+03 0.  0.
          2    1    1    2  501    0  0.33327194348E+02 -0.10556356290E+02 -0.66245475926E+02  0.74903949308E+02  0.00000000000E+00 0. -1.
          1    1    1    2  502    0 -0.68565711087E+02 -0.77268736685E+02 -0.10508619185E+03  0.14735949960E+03  0.00000000000E+00 0. -1.
         22    1    3    3    0    0  0.41073339128E+02 -0.84841464676E+01  0.29225255890E+02  0.51118641514E+02  0.00000000000E+00 0. -1.
         22    1    3    3    0    0 -0.58348223900E+01  0.96309239442E+02 -0.44966928146E+02  0.10644970353E+03  0.00000000000E+00 0. -1.
</event>
<event>
 7    1  0.5064652E-006  0.1428732E+03  0.7818608E-02  0.1400382E+00
          2   -1    0    0  502    0  0.00000000000E+00  0.00000000000E+00  0.96997237513E+03  0.96997237513E+03  0.00000000000E+00 0. -1.
          1   -1    0    0  501    0 -0.00000000000E+00 -0.00000000000E+00 -0.29878321905E+03  0.29878321905E+03  0.00000000000E+00 0. -1.
         25    2    1    2    0    0 -0.68261393777E+02 -0.13949138681E+03  0.47437250489E+03  0.51455628875E+03  0.12498574329E+03 0.  0.
          2    1    1    2  501    0  0.22442873033E+02  0.10298391363E+02 -0.26823344184E+03  0.26936762748E+03  0.00000000000E+00 0. -1.
          1    1    1    2  502    0  0.45818520744E+02  0.12919299544E+03  0.46505009303E+03  0.48483167795E+03  0.00000000000E+00 0. -1.
         22    1    3    3    0    0  0.19126759744E+01 -0.71066137441E+02  0.34500229968E+03  0.35225082115E+03  0.00000000000E+00 0. -1.
         22    1    3    3    0    0 -0.70174069751E+02 -0.68425249366E+02  0.12937020521E+03  0.16230546760E+03  0.00000000000E+00 0. -1.
</event>
<event>
 7    1  0.5064652E-006  0.1634989E+03  0.7818608E-02  0.1346327E+00
          2   -1    0    0  502    0  0.00000000000E+00  0.00000000000E+00  0.27304141966E+04  0.27304141966E+04  0.00000000000E+00 0. -1.
          1   -1    0    0  501    0 -0.00000000000E+00 -0.00000000000E+00 -0.34427336192E+03  0.34427336192E+03  0.00000000000E+00 0. -1.
         25    2    1    2    0    0  0.80939900332E+02 -0.11111343107E+03  0.12678816746E+03  0.22493301112E+03  0.12498863170E+03 0.  0.
          2    1    1    2  501    0  0.32568868031E+02 -0.86007306959E+01 -0.29156676559E+03  0.29350618824E+03  0.00000000000E+00 0. -1.
          1    1    1    2  502    0 -0.11350876836E+03  0.11971416176E+03  0.25509194329E+04  0.25562483592E+04  0.00000000000E+00 0. -1.
         22    1    3    3    0    0 -0.42908498096E+01 -0.99658456486E+02  0.65571162124E+02  0.11937251209E+03  0.00000000000E+00 0.  1.
         22    1    3    3    0    0  0.85230750141E+02 -0.11454974579E+02  0.61217005332E+02  0.10556049902E+03  0.00000000000E+00 0.  1.
</event>
<event>
 7    1  0.9650568E-006  0.1082312E+03  0.7818608E-02  0.1269730E+00
          2   -1    0    0  502    0  0.00000000000E+00  0.00000000000E+00  0.11206882521E+04  0.11206882521E+04  0.00000000000E+00 0. -1.
          1   -1    0    0  501    0 -0.00000000000E+00 -0.00000000000E+00 -0.22542391348E+04  0.22542391348E+04  0.00000000000E+00 0. -1.
         25    2    1    2    0    0 -0.81714421517E+01 -0.89519672156E+02 -0.27185534935E+03  0.31242703206E+03  0.12499910090E+03 0.  0.
          2    1    1    2  501    0  0.98222694901E+02  0.28414821319E+02 -0.19580701005E+04  0.19607380290E+04  0.00000000000E+00 0. -1.
          1    1    1    2  502    0 -0.90051252749E+02  0.61104850837E+02  0.10963745672E+04  0.11017623258E+04  0.00000000000E+00 0. -1.
         22    1    3    3    0    0  0.52787829292E+02 -0.10114371242E+02 -0.10068894456E+03  0.11413640516E+03  0.00000000000E+00 0. -1.
         22    1    3    3    0    0 -0.60959271444E+02 -0.79405300914E+02 -0.17116640479E+03  0.19829062690E+03  0.00000000000E+00 0. -1.
</event>
<event>
 7    1  0.5064652E-006  0.5673214E+02  0.7818608E-02  0.1430537E+00
          2   -1    0    0  502    0  0.00000000000E+00  0.00000000000E+00  0.15250972324E+04  0.15250972324E+04  0.00000000000E+00 0. -1.
          1   -1    0    0  501    0 -0.00000000000E+00 -0.00000000000E+00 -0.26625554289E+03  0.26625554289E+03  0.00000000000E+00 0. -1.
         25    2    1    2    0    0 -0.34674538096E+02  0.42016856679E+02  0.38798818759E+03  0.41125192795E+03  0.12500229874E+03 0.  0.
          2    1    1    2  501    0 -0.12684972149E+02 -0.55487056065E+02 -0.25089596958E+03  0.25727127601E+03  0.00000000000E+00 0. -1.
          1    1    1    2  502    0  0.47359510245E+02  0.13470199386E+02  0.11217494715E+04  0.11228295713E+04  0.00000000000E+00 0. -1.
         22    1    3    3    0    0 -0.49754894430E+02  0.33198015814E+02  0.38917250270E+03  0.39374216771E+03  0.00000000000E+00 0.  1.
         22    1    3    3    0    0  0.15080356334E+02  0.88188408652E+01 -0.11843151056E+01  0.17509760239E+02  0.00000000000E+00 0.  1.
</event>
<event>
 7    1  0.5064652E-006  0.1754211E+03  0.7818608E-02  0.1220633E+00
          2   -1    0    0  502    0  0.00000000000E+00  0.00000000000E+00  0.32173709654E+04  0.32173709654E+04  0.00000000000E+00 0. -1.
          1   -1    0    0  501    0 -0.00000000000E+00 -0.00000000000E+00 -0.13492037756E+03  0.13492037756E+03  0.00000000000E+00 0. -1.
         25    2    1    2    0    0  0.88571734652E+02  0.11772187482E+03  0.15516211543E+03  0.24779956091E+03  0.12500379327E+03 0.  0.
          2    1    1    2  501    0 -0.23259087932E+02 -0.19793940694E+03  0.25575509314E+02  0.20093556347E+03  0.00000000000E+00 0. -1.
          1    1    1    2  502    0 -0.65312646720E+02  0.80217532124E+02  0.29017129631E+04  0.29035562186E+04  0.00000000000E+00 0. -1.
         22    1    3    3    0    0  0.37488607641E+02  0.89957255112E+01 -0.13396800269E+02  0.40814127919E+02  0.00000000000E+00 0.  1.
         22    1    3    3    0    0  0.51083127011E+02  0.10872614931E+03  0.16855891570E+03  0.20698543299E+03  0.00000000000E+00 0.  1.
</event>
<event>
 7    1  0.5064652E-006  0.6951194E+02  0.7818608E-02  0.1443883E+00
          2   -1    0    0  502    0  0.00000000000E+00  0.00000000000E+00  0.16250386381E+03  0.16250386381E+03  0.00000000000E+00 0. -1.
          1   -1    0    0  501    0 -0.00000000000E+00 -0.00000000000E+00 -0.10075273328E+04  0.10075273328E+04  0.00000000000E+00 0. -1.
         25    2    1    2    0    0  0.34136617901E+02  0.62329324678E+02 -0.34880115442E+03  0.37727685898E+03  0.12500131839E+03 0.  0.
          2    1    1    2  501    0  0.25361470881E+02 -0.26049846581E+02 -0.63575182710E+03  0.63679053415E+03  0.00000000000E+00 0. -1.
          1    1    1    2  502    0 -0.59498088782E+02 -0.36279478097E+02  0.13952951259E+03  0.15596380344E+03  0.00000000000E+00 0. -1.
         22    1    3    3    0    0 -0.36243836651E+02  0.39638233674E+02 -0.66659501843E+02  0.85605458062E+02  0.00000000000E+00 0. -1.
         22    1    3    3    0    0  0.70380454552E+02  0.22691091004E+02 -0.28214165258E+03  0.29167140092E+03  0.00000000000E+00 0. -1.
</event>
<event>
 7    1  0.5064652E-006  0.6769812E+02  0.7818608E-02  0.1391465E+00
          2   -1    0    0  502    0  0.00000000000E+00  0.00000000000E+00  0.34719611280E+03  0.34719611280E+03  0.00000000000E+00 0. -1.
          1   -1    0    0  501    0 -0.00000000000E+00 -0.00000000000E+00 -0.25090716146E+04  0.25090716146E+04  0.00000000000E+00 0. -1.
         25    2    1    2    0    0 -0.27385243512E+02  0.32509267267E+02  0.10461299791E+02  0.13244365130E+03  0.12500031182E+03 0.  0.
          2    1    1    2  501    0  0.67693234490E+02  0.62919176670E+01 -0.24447649975E+04  0.24457100923E+04  0.00000000000E+00 0. -1.
          1    1    1    2  502    0 -0.40307990979E+02 -0.38801184934E+02  0.27242819591E+03  0.27811398386E+03  0.00000000000E+00 0. -1.
         22    1    3    3    0    0  0.48300410804E+02  0.62889673637E+01 -0.10108041269E+02  0.49745887193E+02  0.00000000000E+00 0. -1.
         22    1    3    3    0    0 -0.75685654316E+02  0.26220299903E+02  0.20569341060E+02  0.82697764104E+02  0.00000000000E+00 0. -1.
</event>
<event>
 7    1  0.5064652E-006  0.1804153E+03  0.7818608E-02  0.1390713E+00
          2   -1    0    0  502    0  0.00000000000E+00  0.00000000000E+00  0.19847588427E+04  0.19847588427E+04  0.00000000000E+00 0. -1.
          1   -1    0    0  501    0 -0.00000000000E+00 -0.00000000000E+00 -0.42417157498E+03  0.42417157498E+03  0.00000000000E+00 0. -1.
         25    2    1    2    0    0 -0.95945837427E+02 -0.14357051424E+03  0.70808691354E+03  0.73948067322E+03  0.12500597049E+03 0.  0.
          2    1    1    2  501    0  0.95189326499E+01 -0.18854434365E+02 -0.40148425902E+03  0.40203943839E+03  0.00000000000E+00 0. -1.
          1    1    1    2  502    0  0.86426904777E+02  0.16242494861E+03  0.12539846132E+04  0.12674103060E+04  0.00000000000E+00 0. -1.
         22    1    3    3    0    0 -0.39410212876E+02 -0.50655816461E+02  0.82578022635E+02  0.10458635878E+03  0.00000000000E+00 0. -1.
         22    1    3    3    0    0 -0.56535624551E+02 -0.92914697780E+02  0.62550889091E+03  0.63489431444E+03  0.00000000000E+00 0. -1.
</event>
<event>
 7    1  0.5064652E-006  0.9220055E+02  0.7818608E-02  0.1346015E+00
          2   -1    0    0  502    0  0.00000000000E+00  0.00000000000E+00  0.39086077787E+03  0.39086077787E+03  0.00000000000E+00 0. -1.
          1   -1    0    0  501    0 -0.00000000000E+00 -0.00000000000E+00 -0.15710329432E+04  0.15710329432E+04  0.00000000000E+00 0. -1.
         25    2    1    2    0    0 -0.48036071811E+02  0.12428954308E+03 -0.16426076662E+03  0.24568502373E+03  0.12499670683E+03 0.  0.
          2    1    1    2  501    0 -0.14771203368E+02 -0.58044308054E+02 -0.13594396868E+04  0.13607584621E+04  0.00000000000E+00 0. -1.
          1    1    1    2  502    0  0.62807275179E+02 -0.66245235030E+02  0.34352828811E+03  0.35545023521E+03  0.00000000000E+00 0. -1.
         22    1    3    3    0    0 -0.16393511062E+02 -0.22641131882E+02 -0.84611262531E+01  0.29205456944E+02  0.00000000000E+00 0. -1.
         22    1    3    3    0    0 -0.31642560749E+02  0.14693067497E+03 -0.15579964036E+03  0.21647956678E+03  0.00000000000E+00 0. -1.
</event>
<event>
 7    1  0.5064652E-006  0.7843574E+02  0.7818608E-02  0.1423019E+00
          2   -1    0    0  502    0  0.00000000000E+00  0.00000000000E+00  0.73276194428E+03  0.73276194428E+03  0.00000000000E+00 0. -1.
          1   -1    0    0  501    0 -0.00000000000E+00 -0.00000000000E+00 -0.17963886861E+03  0.17963886861E+03  0.00000000000E+00 0. -1.
         25    2    1    2    0    0 -0.57527870515E+02 -0.30190658067E+02  0.13459806055E+03  0.19484227222E+03  0.12500376562E+03 0.  0.
          2    1    1    2  501    0  0.79774936289E+02 -0.26053094204E+00 -0.13819211163E+03  0.15956556036E+03  0.00000000000E+00 0. -1.
          1    1    1    2  502    0 -0.22247065773E+02  0.30451189009E+02  0.55671712675E+03  0.55799298030E+03  0.00000000000E+00 0. -1.
         22    1    3    3    0    0  0.26156397524E+02 -0.17289002444E+02  0.97466472951E+02  0.10238544861E+03  0.00000000000E+00 0.  1.
         22    1    3    3    0    0 -0.83684268039E+02 -0.12901655624E+02  0.37131587603E+02  0.92456823615E+02  0.00000000000E+00 0.  1.
</event>
<event>
 7    1  0.5064652E-006  0.6169753E+02  0.7818608E-02  0.1426556E+00
          2   -1    0    0  502    0  0.00000000000E+00  0.00000000000E+00  0.85912498959E+03  0.85912498959E+03  0.00000000000E+00 0. -1.
          1   -1    0    0  501    0 -0.00000000000E+00 -0.00000000000E+00 -0.45119114113E+03  0.45119114113E+03  0.00000000000E+00 0. -1.
         25    2    1    2    0    0  0.20975352056E+01 -0.17485625246E+02  0.91394876498E+02  0.15584710429E+03  0.12500059889E+03 0.  0.
          2    1    1    2  501    0 -0.95385495720E+01 -0.45680275597E+02 -0.41628385476E+03  0.41889129764E+03  0.00000000000E+00 0. -1.
          1    1    1    2  502    0  0.74410143664E+01  0.63165900844E+02  0.73282282672E+03  0.73557772879E+03  0.00000000000E+00 0. -1.
         22    1    3    3    0    0 -0.37259318528E+02  0.41102518412E+02  0.36127067744E+02  0.66203012475E+02  0.00000000000E+00 0. -1.
         22    1    3    3    0    0  0.39356853733E+02 -0.58588143658E+02  0.55267808754E+02  0.89644091816E+02  0.00000000000E+00 0. -1.
</event>
<event>
 7    1  0.5064652E-006  0.1876404E+03  0.7818608E-02  0.1254603E+00
          2   -1    0    0  502    0  0.00000000000E+00  0.00000000000E+00  0.14299276632E+04  0.14299276632E+04  0.00000000000E+00 0. -1.
          1   -1    0    0  501    0 -0.00000000000E+00 -0.00000000000E+00 -0.52495182409E+02  0.52495182409E+02  0.00000000000E+00 0. -1.
         25    2    1    2    0    0 -0.31436620814E+02  0.16810747994E+03  0.49168557576E+03  0.53537687132E+03  0.12500121196E+03 0.  0.
          2    1    1    2  501    0  0.99181785992E+02 -0.17751248843E+03  0.33365994843E+03  0.39073862287E+03  0.00000000000E+00 0. -1.
          1    1    1    2  502    0 -0.67745165178E+02  0.94050084908E+01  0.55208695663E+03  0.55630735144E+03  0.00000000000E+00 0. -1.
         22    1    3    3    0    0  0.20473861970E+02  0.52580446071E+02  0.30244741472E+03  0.30766592435E+03  0.00000000000E+00 0. -1.
         22    1    3    3    0    0 -0.51910482784E+02  0.11552703387E+03  0.18923816104E+03  0.22771094697E+03  0.00000000000E+00 0. -1.
</event>
<event>
 7    1  0.5064652E-006  0.8400398E+02  0.7818608E-02  0.1320761E+00
          2   -1    0    0  502    0  0.00000000000E+00  0.00000000000E+00  0.91128497600E+03  0.91128497600E+03  0.00000000000E+00 0. -1.
          1   -1    0    0  501    0 -0.00000000000E+00 -0.00000000000E+00 -0.33102031092E+04  0.33102031092E+04  0.00000000000E+00 0. -1.
         25    2    1    2    0    0  0.10923502308E+02 -0.17169255663E+02  0.86170294659E+02  0.15318073307E+03  0.12499964424E+03 0.  0.
          2    1    1    2  501    0 -0.68351250275E+02 -0.48834155988E+02 -0.32737400954E+04  0.32748176866E+04  0.00000000000E+00 0. -1.
          1    1    1    2  502    0  0.57427747967E+02  0.66003411651E+02  0.78865166754E+03  0.79348966553E+03  0.00000000000E+00 0. -1.
         22    1    3    3    0    0  0.38901728005E+01  0.11699723983E+02 -0.30441126983E+02  0.32843251935E+02  0.00000000000E+00 0. -1.
         22    1    3    3    0    0  0.70333295079E+01 -0.28868979646E+02  0.11661142164E+03  0.12033748114E+03  0.00000000000E+00 0. -1.
</event>
<event>
 7    1  0.5064652E-006  0.6235361E+02  0.7818608E-02  0.1508411E+00
          2   -1    0    0  502    0  0.00000000000E+00  0.00000000000E+00  0.18141028464E+04  0.18141028464E+04  0.00000000000E+00 0. -1.
          1   -1    0    0  501    0 -0.00000000000E+00 -0.00000000000E+00 -0.45752340424E+03  0.45752340424E+03  0.00000000000E+00 0. -1.
         25    2    1    2    0    0 -0.21991485416E+02  0.76622912083E+02  0.10349548519E+03  0.18080671294E+03  0.12500022362E+03 0.  0.
          2    1    1    2  501    0 -0.10229806652E+02 -0.23494966339E+02 -0.41789789885E+03  0.41868283491E+03  0.00000000000E+00 0. -1.
          1    1    1    2  502    0  0.32221292068E+02 -0.53127945744E+02  0.16709818558E+04  0.16721367028E+04  0.00000000000E+00 0. -1.
         22    1    3    3    0    0  0.95904710862E+01  0.10337279326E+03  0.56540487371E+02  0.11821479702E+03  0.00000000000E+00 0.  1.
         22    1    3    3    0    0 -0.31581956502E+02 -0.26749881176E+02  0.46954997817E+02  0.62591915927E+02  0.00000000000E+00 0.  1.
</event>
<event>
 7    1  0.5064652E-006  0.9297466E+02  0.7818608E-02  0.1381458E+00
          2   -1    0    0  502    0  0.00000000000E+00  0.00000000000E+00  0.35745334794E+02  0.35745334794E+02  0.00000000000E+00 0. -1.
          1   -1    0    0  501    0 -0.00000000000E+00 -0.00000000000E+00 -0.14258732125E+04  0.14258732125E+04  0.00000000000E+00 0. -1.
         25    2    1    2    0    0  0.78770683664E+02  0.18246637140E+02 -0.29859594322E+03  0.33365048626E+03  0.12500139719E+03 0.  0.
          2    1    1    2  501    0 -0.92427967728E+02  0.23757053632E+02 -0.10773650389E+04  0.10815834474E+04  0.00000000000E+00 0. -1.
          1    1    1    2  502    0  0.13657284065E+02 -0.42003690772E+02 -0.14166895616E+02  0.46384613590E+02  0.00000000000E+00 0. -1.
         22    1    3    3    0    0 -0.30213425209E+02 -0.15815571560E+02 -0.56827043510E+02  0.66274401096E+02  0.00000000000E+00 0. -1.
         22    1    3    3    0    0  0.10898410887E+03  0.34062208700E+02 -0.24176889971E+03  0.26737608516E+03  0.00000000000E+00 0. -1.
</event>
<event>
 7    1  0.5064652E-006  0.6355598E+02  0.7818608E-02  0.1526873E+00
          2   -1    0    0  502    0  0.00000000000E+00  0.00000000000E+00  0.40850664776E+02  0.40850664776E+02  0.00000000000E+00 0. -1.
          1   -1    0    0  501    0 -0.00000000000E+00 -0.00000000000E+00 -0.14847609352E+04  0.14847609352E+04  0.00000000000E+00 0. -1.
         25    2    1    2    0    0 -0.72408857911E+02 -0.29896810711E+02 -0.47483257230E+03  0.49722018106E+03  0.12500029897E+03 0.  0.
          2    1    1    2  501    0  0.21285113025E+02 -0.63498499857E+01 -0.96535607233E+03  0.96561157979E+03  0.00000000000E+00 0. -1.
          1    1    1    2  502    0  0.51123744887E+02  0.36246660696E+02 -0.37216257960E+01  0.62779839132E+02  0.00000000000E+00 0. -1.
         22    1    3    3    0    0 -0.77835508017E+01  0.21747995730E+02 -0.10148750097E+02  0.25230063612E+02  0.00000000000E+00 0. -1.
         22    1    3    3    0    0 -0.64625307110E+02 -0.51644806441E+02 -0.46468382220E+03  0.47199011745E+03  0.00000000000E+00 0. -1.
</event>
<event>
 7    1  0.5064652E-006  0.5569084E+02  0.7818608E-02  0.1470819E+00
          2   -1    0    0  502    0  0.00000000000E+00  0.00000000000E+00  0.20533388221E+04  0.20533388221E+04  0.00000000000E+00 0. -1.
          1   -1    0    0  501    0 -0.00000000000E+00 -0.00000000000E+00 -0.35803620042E+02  0.35803620042E+02  0.00000000000E+00 0. -1.
         25    2    1    2    0    0  0.23434952294E+02  0.10528483770E+02  0.27908315555E+03  0.30687544411E+03  0.12500033810E+03 0.  0.
          2    1    1    2  501    0  0.32953735074E+02 -0.17446489705E+02 -0.52366654558E+01  0.37653038702E+02  0.00000000000E+00 0. -1.
          1    1    1    2  502    0 -0.56388687368E+02  0.69180059351E+01  0.17436887120E+04  0.17446139594E+04  0.00000000000E+00 0. -1.
         22    1    3    3    0    0  0.28675903541E+01 -0.47934665000E+02  0.49062530428E+02  0.68651926959E+02  0.00000000000E+00 0.  1.
         22    1    3    3    0    0  0.20567361940E+02  0.58463148771E+02  0.23002062513E+03  0.23822351715E+03  0.00000000000E+00 0.  1.
</event>
<event>
 7    1  0.5064652E-006  0.4082581E+02  0.7818608E-02  0.1521882E+00
          2   -1    0    0  502    0  0.00000000000E+00  0.00000000000E+00  0.24049041024E+04  0.24049041024E+04  0.00000000000E+00 0. -1.
          1   -1    0    0  501    0 -0.00000000000E+00 -0.00000000000E+00 -0.16508845022E+02  0.16508845022E+02  0.00000000000E+00 0. -1.
         25    2    1    2    0    0 -0.88138088625E+01 -0.11639548730E+02  0.10950063144E+04  0.11022144403E+04  0.12499872587E+03 0.  0.
          2    1    1    2  501    0 -0.13391424794E+02  0.39651267201E+02  0.21952249065E+02  0.47259438080E+02  0.00000000000E+00 0. -1.
          1    1    1    2  502    0  0.22205233656E+02 -0.28011718471E+02  0.12714366939E+04  0.12719390690E+04  0.00000000000E+00 0. -1.
         22    1    3    3    0    0 -0.93469020381E+00 -0.67094154303E+02  0.70854949500E+03  0.71171966817E+03  0.00000000000E+00 0.  1.
         22    1    3    3    0    0 -0.78791186587E+01  0.55454605573E+02  0.38645681940E+03  0.39049477212E+03  0.00000000000E+00 0.  1.
</event>
<event>
 7    1  0.5064652E-006  0.3911981E+02  0.7818608E-02  0.1520129E+00
          2   -1    0    0  502    0  0.00000000000E+00  0.00000000000E+00  0.12220041970E+04  0.12220041970E+04  0.00000000000E+00 0. -1.
          1   -1    0    0  501    0 -0.00000000000E+00 -0.00000000000E+00 -0.16819430929E+03  0.16819430929E+03  0.00000000000E+00 0. -1.
         25    2    1    2    0    0 -0.62626716532E+02 -0.20323280029E+02 -0.67517887223E+02  0.15658427232E+03  0.12499931163E+03 0.  0.
          2    1    1    2  501    0  0.36682262068E+02 -0.88866372571E+01 -0.49436942065E+02  0.62197844922E+02  0.00000000000E+00 0. -1.
          1    1    1    2  502    0  0.25944454464E+02  0.29209917286E+02  0.11707647170E+04  0.11714163891E+04  0.00000000000E+00 0. -1.
         22    1    3    3    0    0 -0.52887442284E+02  0.23948025237E+02 -0.89126135690E+02  0.10636755862E+03  0.00000000000E+00 0. -1.
         22    1    3    3    0    0 -0.97392742478E+01 -0.44271305266E+02  0.21608248467E+02  0.50216713698E+02  0.00000000000E+00 0. -1.
</event>
<event>
 7    1  0.5064652E-006  0.5397899E+02  0.7818608E-02  0.1564176E+00
          2   -1    0    0  502    0  0.00000000000E+00  0.00000000000E+00  0.53739419966E+03  0.53739419966E+03  0.00000000000E+00 0. -1.
          1   -1    0    0  501    0 -0.00000000000E+00 -0.00000000000E+00 -0.12123698999E+04  0.12123698999E+04  0.00000000000E+00 0. -1.
         25    2    1    2    0    0  0.55281888580E+02  0.47922922808E+02 -0.40401582089E+03  0.42919401785E+03  0.12500411070E+03 0.  0.
          2    1    1    2  501    0 -0.18856689972E+02 -0.81708592536E+01 -0.79424690535E+03  0.79451273392E+03  0.00000000000E+00 0. -1.
          1    1    1    2  502    0 -0.36425198608E+02 -0.39752063554E+02  0.52328702597E+03  0.52605734782E+03  0.00000000000E+00 0. -1.
         22    1    3    3    0    0  0.76507510900E+02 -0.69431361704E+01 -0.30015018482E+03  0.30982533759E+03  0.00000000000E+00 0.  1.
         22    1    3    3    0    0 -0.21225622320E+02  0.54866058978E+02 -0.10386563607E+03  0.11936868026E+03  0.00000000000E+00 0.  1.
</event>
<event>
 7    1  0.5064652E-006  0.8327437E+02  0.7818608E-02  0.1353617E+00
          2   -1    0    0  502    0  0.00000000000E+00  0.00000000000E+00  0.23210905897E+03  0.23210905897E+03  0.00000000000E+00 0. -1.
          1   -1    0    0  501    0 -0.00000000000E+00 -0.00000000000E+00 -0.68762885884E+03  0.68762885884E+03  0.00000000000E+00 0. -1.
         25    2    1    2    0    0 -0.10552773084E+03 -0.38817355970E+02  0.14328015249E+02  0.16873727360E+03  0.12499634547E+03 0.  0.
          2    1    1    2  501    0  0.56545422023E+02 -0.25789498413E+02 -0.59698546593E+03  0.60021173724E+03  0.00000000000E+00 0. -1.
          1    1    1    2  502    0  0.48982308817E+02  0.64606854383E+02  0.12713765082E+03  0.15078890697E+03  0.00000000000E+00 0. -1.
         22    1    3    3    0    0 -0.53821551676E+02  0.61950195705E+01 -0.50734810698E+02  0.74223707189E+02  0.00000000000E+00 0. -1.
         22    1    3    3    0    0 -0.51706179165E+02 -0.45012375540E+02  0.65062825947E+02  0.94513566411E+02  0.00000000000E+00 0. -1.
</event>
<event>
 7    1  0.5064652E-006  0.1604084E+03  0.7818608E-02  0.1213959E+00
          2   -1    0    0  502    0  0.00000000000E+00  0.00000000000E+00  0.12452599026E+04  0.12452599026E+04  0.00000000000E+00 0. -1.
          1   -1    0    0  501    0 -0.00000000000E+00 -0.00000000000E+00 -0.11599003299E+04  0.11599003299E+04  0.00000000000E+00 0. -1.
         25    2    1    2    0    0 -0.12464143336E+02 -0.18721041687E+03  0.18225942682E+03  0.28990813536E+03  0.12500053292E+03 0.  0.
          2    1    1    2  501    0  0.10752665446E+03  0.56299588606E+02 -0.10962208460E+04  0.11029196563E+04  0.00000000000E+00 0. -1.
          1    1    1    2  502    0 -0.95062511123E+02  0.13091082826E+03  0.99932099187E+03  0.10123324408E+04  0.00000000000E+00 0. -1.
         22    1    3    3    0    0 -0.19954125638E+01 -0.15985252927E+03  0.19970803318E+03  0.25581264883E+03  0.00000000000E+00 0.  1.
         22    1    3    3    0    0 -0.10468730772E+02 -0.27357887597E+02 -0.17448606359E+02  0.34095486529E+02  0.00000000000E+00 0.  1.
</event>
<event>
 7    1  0.5064652E-006  0.8339960E+02  0.7818608E-02  0.1348050E+00
          2   -1    0    0  502    0  0.00000000000E+00  0.00000000000E+00  0.29421733795E+04  0.29421733795E+04  0.00000000000E+00 0. -1.
          1   -1    0    0  501    0 -0.00000000000E+00 -0.00000000000E+00 -0.26371315754E+03  0.26371315754E+03  0.00000000000E+00 0. -1.
         25    2    1    2    0    0 -0.33080863204E+01 -0.34207101957E+02  0.51776073914E+02  0.13959651814E+03  0.12500142715E+03 0.  0.
          2    1    1    2  501    0 -0.62369412471E+02 -0.18551100071E+02 -0.21434907259E+03  0.22400806201E+03  0.00000000000E+00 0. -1.
          1    1    1    2  502    0  0.65677498792E+02  0.52758202029E+02  0.28410332207E+04  0.28422819569E+04  0.00000000000E+00 0. -1.
         22    1    3    3    0    0 -0.13177415431E+02 -0.53690825592E+02 -0.24342747795E+02  0.60406277823E+02  0.00000000000E+00 0.  1.
         22    1    3    3    0    0  0.98693291108E+01  0.19483723634E+02  0.76118821709E+02  0.79190240321E+02  0.00000000000E+00 0.  1.
</event>
<event>
 7    1  0.5064652E-006  0.1033187E+03  0.7818608E-02  0.1296738E+00
          2   -1    0    0  502    0  0.00000000000E+00  0.00000000000E+00  0.14455745595E+04  0.14455745595E+04  0.00000000000E+00 0. -1.
          1   -1    0    0  501    0 -0.00000000000E+00 -0.00000000000E+00 -0.59973925248E+03  0.59973925248E+03  0.00000000000E+00 0. -1.
         25    2    1    2    0    0  0.16059815336E+03 -0.89785156712E+02  0.53942958892E+03  0.58349188976E+03  0.12500145114E+03 0.  0.
          2    1    1    2  501    0 -0.83040794042E+02  0.60379256731E+02 -0.57117533029E+03  0.58032980800E+03  0.00000000000E+00 0. -1.
          1    1    1    2  502    0 -0.77557359321E+02  0.29405899981E+02  0.87758104838E+03  0.88149211421E+03  0.00000000000E+00 0. -1.
         22    1    3    3    0    0  0.15565910518E+03 -0.27188961117E+02  0.41620344711E+03  0.44519019083E+03  0.00000000000E+00 0. -1.
         22    1    3    3    0    0  0.49390481809E+01 -0.62596195595E+02  0.12322614182E+03  0.13830169893E+03  0.00000000000E+00 0. -1.
</event>
<event>
 7    1  0.5064652E-006  0.2837861E+02  0.7818608E-02  0.1662056E+00
          2   -1    0    0  502    0  0.00000000000E+00  0.00000000000E+00  0.18182864141E+02  0.18182864141E+02  0.00000000000E+00 0. -1.
          1   -1    0    0  501    0 -0.00000000000E+00 -0.00000000000E+00 -0.54728706208E+03  0.54728706208E+03  0.00000000000E+00 0. -1.
         25    2    1    2    0    0  0.60633727349E+01 -0.65042051966E+01 -0.41813416006E+03  0.43650959368E+03  0.12500152155E+03 0.  0.
          2    1    1    2  501    0  0.37502483479E+01 -0.21571255432E+02 -0.89859669119E+02  0.92488613124E+02  0.00000000000E+00 0. -1.
          1    1    1    2  502    0 -0.98136210828E+01  0.28075460628E+02 -0.21110368766E+02  0.36471719423E+02  0.00000000000E+00 0. -1.
         22    1    3    3    0    0  0.46282487621E+02  0.39968827936E+02 -0.16345881655E+03  0.17452323792E+03  0.00000000000E+00 0.  1.
         22    1    3    3    0    0 -0.40219114886E+02 -0.46473033133E+02 -0.25467534351E+03  0.26198635576E+03  0.00000000000E+00 0.  1.
</event>
<event>
 7    1  0.5064652E-006  0.1362425E+03  0.7818608E-02  0.1354009E+00
          2   -1    0    0  502    0  0.00000000000E+00  0.00000000000E+00  0.63752350779E+03  0.63752350779E+03  0.00000000000E+00 0. -1.
          1   -1    0    0  501    0 -0.00000000000E+00 -0.00000000000E+00 -0.10884023771E+04  0.10884023771E+04  0.00000000000E+00 0. -1.
         25    2    1    2    0    0 -0.12053167944E+03 -0.74144209374E+02  0.65182706882E+02  0.19974994187E+03  0.12500401781E+03 0.  0.
          2    1    1    2  501    0  0.27884356793E+02 -0.25610217776E+02 -0.10115837523E+04  0.10122920075E+04  0.00000000000E+00 0. -1.
          1    1    1    2  502    0  0.92647322652E+02  0.99754427150E+02  0.49552217611E+03  0.51388393548E+03  0.00000000000E+00 0. -1.
         22    1    3    3    0    0 -0.12061269276E+03 -0.31041092704E+02  0.36173410485E+01  0.12459557074E+03  0.00000000000E+00 0. -1.
         22    1    3    3    0    0  0.81013318067E-01 -0.43103116671E+02  0.61565365833E+02  0.75154371131E+02  0.00000000000E+00 0. -1.
</event>
<event>
 7    1  0.5064652E-006  0.1776972E+03  0.7818608E-02  0.1336067E+00
          2   -1    0    0  502    0  0.00000000000E+00  0.00000000000E+00  0.37106932828E+04  0.37106932828E+04  0.00000000000E+00 0. -1.
          1   -1    0    0  501    0 -0.00000000000E+00 -0.00000000000E+00 -0.15617008573E+02  0.15617008573E+02  0.00000000000E+00 0. -1.
         25    2    1    2    0    0 -0.15636633152E+03 -0.48071459892E+02  0.14864612996E+04  0.15006508976E+04  0.12499850473E+03 0.  0.
          2    1    1    2  501    0  0.17135798771E+03  0.78441831174E+02  0.10651996695E+04  0.10817425834E+04  0.00000000000E+00 0. -1.
          1    1    1    2  502    0 -0.14991656186E+02 -0.30370371283E+02  0.11434153051E+04  0.11439168104E+04  0.00000000000E+00 0. -1.
         22    1    3    3    0    0 -0.45905252116E+02  0.30734887951E+02  0.73222188414E+03  0.73430294370E+03  0.00000000000E+00 0. -1.
         22    1    3    3    0    0 -0.11046107940E+03 -0.78806347842E+02  0.75423941548E+03  0.76634795386E+03  0.00000000000E+00 0. -1.
</event>
<event>
 7    1  0.5064652E-006  0.1174023E+03  0.7818608E-02  0.1268701E+00
          2   -1    0    0  502    0  0.00000000000E+00  0.00000000000E+00  0.14346480466E+04  0.14346480466E+04  0.00000000000E+00 0. -1.
          1   -1    0    0  501    0 -0.00000000000E+00 -0.00000000000E+00 -0.30065712710E+03  0.30065712710E+03  0.00000000000E+00 0. -1.
         25    2    1    2    0    0 -0.73271263231E+02  0.14043446875E+03  0.41620593821E+03  0.46253979569E+03  0.12500064625E+03 0.  0.
          2    1    1    2  501    0  0.10548682374E+03 -0.50844294787E+02 -0.26272686843E+03  0.28764217301E+03  0.00000000000E+00 0. -1.
          1    1    1    2  502    0 -0.32215560509E+02 -0.89590173963E+02  0.98051184975E+03  0.98512320504E+03  0.00000000000E+00 0. -1.
         22    1    3    3    0    0  0.21566292680E+02  0.12510388096E+02  0.11162501875E+02  0.27316958805E+02  0.00000000000E+00 0.  1.
         22    1    3    3    0    0 -0.94837555911E+02  0.12792408065E+03  0.40504343634E+03  0.43522283688E+03  0.00000000000E+00 0.  1.
</event>
<event>
 7    1  0.5064652E-006  0.6894366E+02  0.7818608E-02  0.1384886E+00
          2   -1    0    0  502    0  0.00000000000E+00  0.00000000000E+00  0.20371769469E+03  0.20371769469E+03  0.00000000000E+00 0. -1.
          1   -1    0    0  501    0 -0.00000000000E+00 -0.00000000000E+00 -0.54581050827E+03  0.54581050827E+03  0.00000000000E+00 0. -1.
         25    2    1    2    0    0  0.29715268724E+02  0.97749996493E+02  0.79416136731E+02  0.17991456329E+03  0.12499707317E+03 0.  0.
          2    1    1    2  501    0 -0.44680411239E+02 -0.36870466075E+02 -0.48023269883E+03  0.48371398103E+03  0.00000000000E+00 0. -1.
          1    1    1    2  502    0  0.14965142514E+02 -0.60879530418E+02  0.58723748518E+02  0.85899658640E+02  0.00000000000E+00 0. -1.
         22    1    3    3    0    0  0.21249933616E+02 -0.27392388125E+02  0.79992257164E+01  0.35579351005E+02  0.00000000000E+00 0. -1.
         22    1    3    3    0    0  0.84653351081E+01  0.12514238462E+03  0.71416911015E+02  0.14433521228E+03  0.00000000000E+00 0. -1.
</event>
<event>
 7    1  0.5064652E-006  0.1563173E+03  0.7818608E-02  0.1312110E+00
          2   -1    0    0  502    0  0.00000000000E+00  0.00000000000E+00  0.70522508842E+03  0.70522508842E+03  0.00000000000E+00 0. -1.
          1   -1    0    0  501    0 -0.00000000000E+00 -0.00000000000E+00 -0.15859778675E+04  0.15859778675E+04  0.00000000000E+00 0. -1.
         25    2    1    2    0    0  0.13614250385E+03 -0.13767824011E+03  0.48879257272E+02  0.23559270406E+03  0.12499864503E+03 0.  0.
          2    1    1    2  501    0 -0.89787713523E+02  0.12674705286E+03 -0.14875628834E+04  0.14956503538E+04  0.00000000000E+00 0. -1.
          1    1    1    2  502    0 -0.46354790328E+02  0.10931187253E+02  0.55793084698E+03  0.55995989807E+03  0.00000000000E+00 0. -1.
         22    1    3    3    0    0 -0.67814943542E+01 -0.73438618438E+02  0.14265617955E+02  0.75118088364E+02  0.00000000000E+00 0. -1.
         22    1    3    3    0    0  0.14292399821E+03 -0.64239621672E+02  0.34613639317E+02  0.16047461569E+03  0.00000000000E+00 0. -1.
</event>
<event>
 7    1  0.5064652E-006  0.1194378E+03  0.7818608E-02  0.1376198E+00
          2   -1    0    0  502    0  0.00000000000E+00  0.00000000000E+00  0.13688920180E+03  0.13688920180E+03  0.00000000000E+00 0. -1.
          1   -1    0    0  501    0 -0.00000000000E+00 -0.00000000000E+00 -0.97023050403E+03  0.97023050403E+03  0.00000000000E+00 0. -1.
         25    2    1    2    0    0  0.14126135159E+03  0.21716700206E+02 -0.18439997659E+03  0.26467845488E+03  0.12499979435E+03 0.  0.
          2    1    1    2  501    0 -0.31729569136E+02  0.16776468477E+02 -0.71024493398E+03  0.71115123687E+03  0.00000000000E+00 0. -1.
          1    1    1    2  502    0 -0.10953178246E+03 -0.38493168683E+02  0.61303608341E+02  0.13129001409E+03  0.00000000000E+00 0. -1.
         22    1    3    3    0    0  0.14587943238E+03  0.52425452613E+02 -0.17115343348E+03  0.23091715975E+03  0.00000000000E+00 0. -1.
         22    1    3    3    0    0 -0.46180807835E+01 -0.30708752407E+02 -0.13246543108E+02  0.33761295129E+02  0.00000000000E+00 0. -1.
</event>
<event>
 7    1  0.5064652E-006  0.6454730E+02  0.7818608E-02  0.1438551E+00
          2   -1    0    0  502    0  0.00000000000E+00  0.00000000000E+00  0.16598152487E+03  0.16598152487E+03  0.00000000000E+00 0. -1.
          1   -1    0    0  501    0 -0.00000000000E+00 -0.00000000000E+00 -0.57091394150E+03  0.57091394150E+03  0.00000000000E+00 0. -1.
         25    2    1    2    0    0  0.17486435231E+02 -0.49477610925E+02 -0.27052582834E+03  0.30259295122E+03  0.12499784369E+03 0.  0.
          2    1    1    2  501    0  0.19113673791E+02  0.67374806517E+02 -0.27714854213E+03  0.28586012573E+03  0.00000000000E+00 0. -1.
          1    1    1    2  502    0 -0.36600109022E+02 -0.17897195592E+02  0.14274195384E+03  0.14844238942E+03  0.00000000000E+00 0. -1.
         22    1    3    3    0    0  0.62392051183E+02 -0.24634248060E+02 -0.22218806057E+03  0.23209297380E+03  0.00000000000E+00 0. -1.
         22    1    3    3    0    0 -0.44905615952E+02 -0.24843362864E+02 -0.48337767769E+02  0.70499977413E+02  0.00000000000E+00 0. -1.
</event>
<event>
 7    1  0.5064652E-006  0.6481358E+02  0.7818608E-02  0.1498650E+00
          2   -1    0    0  502    0  0.00000000000E+00  0.00000000000E+00  0.32741422637E+03  0.32741422637E+03  0.00000000000E+00 0. -1.
          1   -1    0    0  501    0 -0.00000000000E+00 -0.00000000000E+00 -0.19677162553E+03  0.19677162553E+03  0.00000000000E+00 0. -1.
         25    2    1    2    0    0 -0.28194367504E+02  0.27355148160E+02  0.21718280477E+03  0.25364657200E+03  0.12499994524E+03 0.  0.
          2    1    1    2  501    0  0.44269037537E+02 -0.48239536325E+02 -0.17044770555E+03  0.18259030882E+03  0.00000000000E+00 0. -1.
          1    1    1    2  502    0 -0.16074670033E+02  0.20884388164E+02  0.83907501615E+02  0.87948971074E+02  0.00000000000E+00 0. -1.
         22    1    3    3    0    0  0.14003240478E+01 -0.46788307636E+02  0.11363025678E+03  0.12289402709E+03  0.00000000000E+00 0. -1.
         22    1    3    3    0    0 -0.29594691552E+02  0.74143455797E+02  0.10355254799E+03  0.13075254491E+03  0.00000000000E+00 0. -1.
</event>
<event>
 7    1  0.5064652E-006  0.1173506E+03  0.7818608E-02  0.1431551E+00
          2   -1    0    0  502    0  0.00000000000E+00  0.00000000000E+00  0.37204824564E+02  0.37204824564E+02  0.00000000000E+00 0. -1.
          1   -1    0    0  501    0 -0.00000000000E+00 -0.00000000000E+00 -0.12518661841E+04  0.12518661841E+04  0.00000000000E+00 0. -1.
         25    2    1    2    0    0  0.75581761665E+02  0.11144312496E+03 -0.73524402881E+03  0.75785304893E+03  0.12500115627E+03 0.  0.
          2    1    1    2  501    0 -0.20994528426E+02 -0.10826542044E+02 -0.37663479414E+03  0.37737481685E+03  0.00000000000E+00 0. -1.
          1    1    1    2  502    0 -0.54587233239E+02 -0.10061658292E+03 -0.10278253663E+03  0.15384314293E+03  0.00000000000E+00 0. -1.
         22    1    3    3    0    0  0.67048300308E+02  0.11798666459E+03 -0.73465452815E+03  0.74708339784E+03  0.00000000000E+00 0.  1.
         22    1    3    3    0    0  0.85334613573E+01 -0.65435396315E+01 -0.58950066693E+00  0.10769651094E+02  0.00000000000E+00 0.  1.
</event>
<event>
 7    1  0.5064652E-006  0.1114665E+03  0.7818608E-02  0.1347039E+00
          2   -1    0    0  502    0  0.00000000000E+00  0.00000000000E+00  0.29848600789E+04  0.29848600789E+04  0.00000000000E+00 0. -1.
          1   -1    0    0  501    0 -0.00000000000E+00 -0.00000000000E+00 -0.64238192704E+02  0.64238192704E+02  0.00000000000E+00 0. -1.
         25    2    1    2    0    0 -0.61742103973E+02  0.56517987673E+02  0.70073535195E+03  0.71670150563E+03  0.12499857745E+03 0.  0.
          2    1    1    2  501    0  0.48021103783E+02 -0.10367115296E+03  0.23097529162E+01  0.11427628504E+03  0.00000000000E+00 0. -1.
          1    1    1    2  502    0  0.13721000190E+02  0.47153165286E+02  0.22175767814E+04  0.22181204810E+04  0.00000000000E+00 0. -1.
         22    1    3    3    0    0 -0.40814406192E+02 -0.61814346767E+01  0.61571042255E+02  0.74128396259E+02  0.00000000000E+00 0. -1.
         22    1    3    3    0    0 -0.20927697780E+02  0.62699422350E+02  0.63916430970E+03  0.64257310937E+03  0.00000000000E+00 0. -1.
</event>
<event>
 7    1  0.5064652E-006  0.1163552E+03  0.7818608E-02  0.1320198E+00
          2   -1    0    0  502    0  0.00000000000E+00  0.00000000000E+00  0.34084346136E+03  0.34084346136E+03  0.00000000000E+00 0. -1.
          1   -1    0    0  501    0 -0.00000000000E+00 -0.00000000000E+00 -0.10015959762E+04  0.10015959762E+04  0.00000000000E+00 0. -1.
         25    2    1    2    0    0 -0.15850034187E+03  0.14497321287E+02 -0.11721741750E+03  0.23388247784E+03  0.12501423829E+03 0.  0.
          2    1    1    2  501    0  0.46763240716E+02 -0.36785810469E+02 -0.81342712559E+03  0.81560019935E+03  0.00000000000E+00 0. -1.
          1    1    1    2  502    0  0.11173710116E+03  0.22288489182E+02  0.26989202827E+03  0.29295676037E+03  0.00000000000E+00 0. -1.
         22    1    3    3    0    0  0.90691496591E-01 -0.14415327205E+02  0.18291145379E+02  0.23288964826E+02  0.00000000000E+00 0.  1.
         22    1    3    3    0    0 -0.15859103337E+03  0.28912648492E+02 -0.13550856288E+03  0.21059351301E+03  0.00000000000E+00 0.  1.
</event>
<event>
 7    1  0.5064652E-006  0.9855590E+02  0.7818608E-02  0.1336360E+00
          2   -1    0    0  502    0  0.00000000000E+00  0.00000000000E+00  0.15936085731E+04  0.15936085731E+04  0.00000000000E+00 0. -1.
          1   -1    0    0  501    0 -0.00000000000E+00 -0.00000000000E+00 -0.28438577777E+04  0.28438577777E+04  0.00000000000E+00 0. -1.
         25    2    1    2    0    0  0.12570101780E+03 -0.94683928786E+02 -0.75572409191E+02  0.21471366380E+03  0.12499990458E+03 0.  0.
          2    1    1    2  501    0 -0.83771331685E+02  0.50502412963E+02 -0.26972192292E+04  0.26989923490E+04  0.00000000000E+00 0. -1.
          1    1    1    2  502    0 -0.41929686111E+02  0.44181515823E+02  0.15225424338E+04  0.15237603380E+04  0.00000000000E+00 0. -1.
         22    1    3    3    0    0  0.52420607928E+02 -0.10481195195E+03 -0.77867381787E+02  0.14070108228E+03  0.00000000000E+00 0.  1.
         22    1    3    3    0    0  0.73280409868E+02  0.10128023168E+02  0.22949725959E+01  0.74012581518E+02  0.00000000000E+00 0.  1.
</event>
<event>
 7    1  0.5064652E-006  0.7481507E+02  0.7818608E-02  0.1489422E+00
          2   -1    0    0  502    0  0.00000000000E+00  0.00000000000E+00  0.62331898535E+03  0.62331898535E+03  0.00000000000E+00 0. -1.
          1   -1    0    0  501    0 -0.00000000000E+00 -0.00000000000E+00 -0.25273276705E+03  0.25273276705E+03  0.00000000000E+00 0. -1.
         25    2    1    2    0    0 -0.89171765937E+02 -0.97620690805E+01  0.37434689087E+03  0.40473172320E+03  0.12500108488E+03 0.  0.
          2    1    1    2  501    0  0.74044369620E+02 -0.93043685038E+01 -0.23101321267E+03  0.24276788168E+03  0.00000000000E+00 0. -1.
          1    1    1    2  502    0  0.15127396317E+02  0.19066437584E+02  0.22725254009E+03  0.22855214753E+03  0.00000000000E+00 0. -1.
         22    1    3    3    0    0 -0.40480377678E+01 -0.14955102822E+02 -0.47149731528E+01  0.16194835041E+02  0.00000000000E+00 0.  1.
         22    1    3    3    0    0 -0.85123728169E+02  0.51930337417E+01  0.37906186403E+03  0.38853688815E+03  0.00000000000E+00 0.  1.
</event>
<event>
 7    1  0.5064652E-006  0.7744197E+02  0.7818608E-02  0.1393540E+00
          2   -1    0    0  502    0  0.00000000000E+00  0.00000000000E+00  0.29085563652E+04  0.29085563652E+04  0.00000000000E+00 0. -1.
          1   -1    0    0  501    0 -0.00000000000E+00 -0.00000000000E+00 -0.78329802800E+03  0.78329802800E+03  0.00000000000E+00 0. -1.
         25    2    1    2    0    0  0.90497030091E+02  0.47645740995E+02  0.26506815095E+03  0.31039069583E+03  0.12498572045E+03 0.  0.
          2    1    1    2  501    0 -0.44902343067E+02 -0.62978125954E+02 -0.75844902217E+03  0.76238270180E+03  0.00000000000E+00 0. -1.
          1    1    1    2  502    0 -0.45594687025E+02  0.15332384959E+02  0.26186392084E+04  0.26190809956E+04  0.00000000000E+00 0. -1.
         22    1    3    3    0    0  0.10339099494E+03  0.49432541921E+02  0.27234734914E+03  0.29547648403E+03  0.00000000000E+00 0.  1.
         22    1    3    3    0    0 -0.12893964852E+02 -0.17868009261E+01 -0.72791981837E+01  0.14914211791E+02  0.00000000000E+00 0.  1.
</event>
<event>
 7    1  0.5064652E-006  0.1133438E+03  0.7818608E-02  0.1281368E+00
          2   -1    0    0  502    0  0.00000000000E+00  0.00000000000E+00  0.23726945484E+03  0.23726945484E+03  0.00000000000E+00 0. -1.
          1   -1    0    0  501    0 -0.00000000000E+00 -0.00000000000E+00 -0.28057462277E+03  0.28057462277E+03  0.00000000000E+00 0. -1.
         25    2    1    2    0    0  0.10430551334E+03 -0.21540467479E+02 -0.11793360197E+03  0.20218136026E+03  0.12500134444E+03 0.  0.
          2    1    1    2  501    0 -0.82901042434E+02  0.10620963010E+03 -0.66071990627E+02  0.15006190825E+03  0.00000000000E+00 0. -1.
          1    1    1    2  502    0 -0.21404470906E+02 -0.84669162617E+02  0.14070042467E+03  0.16560080910E+03  0.00000000000E+00 0. -1.
         22    1    3    3    0    0  0.29129273346E+02 -0.48119052354E+02  0.41098517388E+01  0.56399012814E+02  0.00000000000E+00 0.  1.
         22    1    3    3    0    0  0.75176239994E+02  0.26578584874E+02 -0.12204345371E+03  0.14578234745E+03  0.00000000000E+00 0.  1.
</event>
<event>
 7    1  0.5064652E-006  0.8778298E+02  0.7818608E-02  0.1424368E+00
          2   -1    0    0  502    0  0.00000000000E+00  0.00000000000E+00  0.20291238852E+03  0.20291238852E+03  0.00000000000E+00 0. -1.
          1   -1    0    0  501    0 -0.00000000000E+00 -0.00000000000E+00 -0.67811130744E+03  0.67811130744E+03  0.00000000000E+00 0. -1.
         25    2    1    2    0    0  0.19013956977E+02  0.55768024173E+02 -0.43379894595E+02  0.14483432999E+03  0.12499425910E+03 0.  0.
          2    1    1    2  501    0  0.14904522512E+02  0.29834869091E+02 -0.56954396465E+03  0.57051958062E+03  0.00000000000E+00 0. -1.
          1    1    1    2  502    0 -0.33918479488E+02 -0.85602893264E+02  0.13772494033E+03  0.16566978534E+03  0.00000000000E+00 0. -1.
         22    1    3    3    0    0 -0.51277662780E+02  0.33884779721E+02 -0.46208323383E+01  0.61635453178E+02  0.00000000000E+00 0. -1.
         22    1    3    3    0    0  0.70291619757E+02  0.21883244452E+02 -0.38759062257E+02  0.83198876812E+02  0.00000000000E+00 0. -1.
</event>
<event>
 7    1  0.5064652E-006  0.1208195E+03  0.7818608E-02  0.1271206E+00
          2   -1    0    0  502    0  0.00000000000E+00  0.00000000000E+00  0.36295359175E+03  0.36295359175E+03  0.00000000000E+00 0. -1.
          1   -1    0    0  501    0 -0.00000000000E+00 -0.00000000000E+00 -0.59178675578E+03  0.59178675578E+03  0.00000000000E+00 0. -1.
         25    2    1    2    0    0 -0.46215238660E+02  0.81759212745E+02  0.10744761460E+03  0.18971465341E+03  0.12500497063E+03 0.  0.
          2    1    1    2  501    0  0.64908752553E+02  0.62776383266E+02 -0.52154701693E+03  0.52930644368E+03  0.00000000000E+00 0. -1.
          1    1    1    2  502    0 -0.18693513893E+02 -0.14453559601E+03  0.18526623829E+03  0.23571925044E+03  0.00000000000E+00 0. -1.
         22    1    3    3    0    0 -0.45401936595E+02 -0.23478524165E+02  0.35076449257E+02  0.61991404533E+02  0.00000000000E+00 0. -1.
         22    1    3    3    0    0 -0.81330206508E+00  0.10523773691E+03  0.72371165347E+02  0.12772324888E+03  0.00000000000E+00 0. -1.
</event>
<event>
 7    1  0.5064652E-006  0.3175821E+03  0.7818608E-02  0.1104017E+00
          2   -1    0    0  502    0  0.00000000000E+00  0.00000000000E+00  0.67114867285E+03  0.67114867285E+03  0.00000000000E+00 0. -1.
          1   -1    0    0  501    0 -0.00000000000E+00 -0.00000000000E+00 -0.62513892891E+03  0.62513892891E+03  0.00000000000E+00 0. -1.
         25    2    1    2    0    0 -0.10702560444E+03  0.32949161028E+03 -0.15154367401E+03  0.39825882660E+03  0.12500162633E+03 0.  0.
          2    1    1    2  501    0 -0.11349923621E+03 -0.30794323300E+03 -0.24066524221E+03  0.40697772688E+03  0.00000000000E+00 0. -1.
          1    1    1    2  502    0  0.22052484065E+03 -0.21548377275E+02  0.43821866016E+03  0.49105104828E+03  0.00000000000E+00 0. -1.
         22    1    3    3    0    0 -0.12513469850E+03  0.27676872079E+03 -0.93563492287E+02  0.31782659527E+03  0.00000000000E+00 0.  1.
         22    1    3    3    0    0  0.18109094057E+02  0.52722889489E+02 -0.57980181727E+02  0.80432231330E+02  0.00000000000E+00 0.  1.
</event>
<event>
 7    1  0.5064652E-006  0.4441647E+02  0.7818608E-02  0.1491777E+00
          2   -1    0    0  502    0  0.00000000000E+00  0.00000000000E+00  0.97854891364E+02  0.97854891364E+02  0.00000000000E+00 0. -1.
          1   -1    0    0  501    0 -0.00000000000E+00 -0.00000000000E+00 -0.80892319548E+03  0.80892319548E+03  0.00000000000E+00 0. -1.
         25    2    1    2    0    0  0.12182789432E+02 -0.48569576854E+01 -0.29808254653E+03  0.32349705327E+03  0.12500051413E+03 0.  0.
          2    1    1    2  501    0 -0.15554590558E+02  0.45045131406E+02 -0.49214161082E+03  0.49444349955E+03  0.00000000000E+00 0. -1.
          1    1    1    2  502    0  0.33718011264E+01 -0.40188173721E+02  0.79155853232E+02  0.88837534020E+02  0.00000000000E+00 0. -1.
         22    1    3    3    0    0 -0.10410153782E+02  0.57478417248E+02 -0.15977200699E+03  0.17011535489E+03  0.00000000000E+00 0.  1.
         22    1    3    3    0    0  0.22592943214E+02 -0.62335374934E+02 -0.13831053953E+03  0.15338169838E+03  0.00000000000E+00 0.  1.
</event>
<event>
 7    1  0.5064652E-006  0.1228253E+03  0.7818608E-02  0.1261150E+00
          2   -1    0    0  502    0  0.00000000000E+00  0.00000000000E+00  0.21717523032E+04  0.21717523032E+04  0.00000000000E+00 0. -1.
          1   -1    0    0  501    0 -0.00000000000E+00 -0.00000000000E+00 -0.82720841673E+03  0.82720841673E+03  0.00000000000E+00 0. -1.
         25    2    1    2    0    0 -0.11536169504E+03 -0.56127280899E+02 -0.34418450366E+02  0.18239579958E+03  0.12500002253E+03 0.  0.
          2    1    1    2  501    0  0.11788301169E+03 -0.41794591459E+02 -0.71220541421E+03  0.72310424169E+03  0.00000000000E+00 0. -1.
          1    1    1    2  502    0 -0.25213166478E+01  0.97921872358E+02  0.20911677511E+04  0.20934606787E+04  0.00000000000E+00 0. -1.
         22    1    3    3    0    0  0.21760388268E+01 -0.95055250952E+01 -0.53620203968E+02  0.54499691980E+02  0.00000000000E+00 0.  1.
         22    1    3    3    0    0 -0.11753773387E+03 -0.46621755804E+02  0.19201753602E+02  0.12789610760E+03  0.00000000000E+00 0.  1.
</event>
<event>
 7    1  0.5064652E-006  0.1211448E+03  0.7818608E-02  0.1376827E+00
          2   -1    0    0  502    0  0.00000000000E+00  0.00000000000E+00  0.90284873561E+03  0.90284873561E+03  0.00000000000E+00 0. -1.
          1   -1    0    0  501    0 -0.00000000000E+00 -0.00000000000E+00 -0.49387554467E+03  0.49387554467E+03  0.00000000000E+00 0. -1.
         25    2    1    2    0    0 -0.43448216333E+02 -0.10149989276E+03 -0.11089105875E+02  0.16713961468E+03  0.12499082683E+03 0.  0.
          2    1    1    2  501    0  0.14834946385E+02  0.12200834009E+03 -0.39504222447E+03  0.41372027966E+03  0.00000000000E+00 0. -1.
          1    1    1    2  502    0  0.28613269947E+02 -0.20508447322E+02  0.81510452129E+03  0.81586438594E+03  0.00000000000E+00 0. -1.
         22    1    3    3    0    0 -0.22788843870E+02 -0.25551844532E+02  0.54717337092E+02  0.64546224850E+02  0.00000000000E+00 0. -1.
         22    1    3    3    0    0 -0.20659372462E+02 -0.75948048232E+02 -0.65806442967E+02  0.10259338983E+03  0.00000000000E+00 0. -1.
</event>
<event>
 7    1  0.5064652E-006  0.9970344E+02  0.7818608E-02  0.1302091E+00
          2   -1    0    0  502    0  0.00000000000E+00  0.00000000000E+00  0.71500891260E+03  0.71500891260E+03  0.00000000000E+00 0. -1.
          1   -1    0    0  501    0 -0.00000000000E+00 -0.00000000000E+00 -0.79845122295E+02  0.79845122295E+02  0.00000000000E+00 0. -1.
         25    2    1    2    0    0  0.10710920182E+02  0.51457010937E+02  0.10837558431E+03  0.17358065207E+03  0.12498971042E+03 0.  0.
          2    1    1    2  501    0 -0.19790191942E+02 -0.13276224916E+03  0.59409901953E+02  0.14678897421E+03  0.00000000000E+00 0. -1.
          1    1    1    2  502    0  0.90792717599E+01  0.81305238219E+02  0.46737830404E+03  0.47448440863E+03  0.00000000000E+00 0. -1.
         22    1    3    3    0    0  0.30634435434E+02  0.86709319485E+02  0.91451624464E+02  0.12969338587E+03  0.00000000000E+00 0. -1.
         22    1    3    3    0    0 -0.19923515252E+02 -0.35252308548E+02  0.16923959848E+02  0.43887266204E+02  0.00000000000E+00 0. -1.
</event>
<event>
 7    1  0.5064652E-006  0.3910508E+02  0.7818608E-02  0.1620119E+00
          2   -1    0    0  502    0  0.00000000000E+00  0.00000000000E+00  0.77330736262E+02  0.77330736262E+02  0.00000000000E+00 0. -1.
          1   -1    0    0  501    0 -0.00000000000E+00 -0.00000000000E+00 -0.72113623025E+03  0.72113623025E+03  0.00000000000E+00 0. -1.
         25    2    1    2    0    0 -0.47953756597E+02  0.54779372655E+01 -0.33258827245E+03  0.35856532488E+03  0.12499825065E+03 0.  0.
          2    1    1    2  501    0  0.14295211118E+02  0.14256285622E+02 -0.36934329076E+03  0.36989466227E+03  0.00000000000E+00 0. -1.
          1    1    1    2  502    0  0.33658545479E+02 -0.19734222888E+02  0.58126069224E+02  0.70006979368E+02  0.00000000000E+00 0. -1.
         22    1    3    3    0    0 -0.17867267548E+02 -0.59640880551E+02 -0.15435634600E+03  0.16643964501E+03  0.00000000000E+00 0. -1.
         22    1    3    3    0    0 -0.30086489049E+02  0.65118817816E+02 -0.17823192645E+03  0.19212567986E+03  0.00000000000E+00 0. -1.
</event>
<event>
 7    1  0.5064652E-006  0.1028194E+03  0.7818608E-02  0.1311779E+00
          2   -1    0    0  502    0  0.00000000000E+00  0.00000000000E+00  0.15760339362E+04  0.15760339362E+04  0.00000000000E+00 0. -1.
          1   -1    0    0  501    0 -0.00000000000E+00 -0.00000000000E+00 -0.13349427369E+04  0.13349427369E+04  0.00000000000E+00 0. -1.
         25    2    1    2    0    0  0.12443568267E+03  0.91871936078E+02  0.35736433182E+03  0.40897350158E+03  0.12500147031E+03 0.  0.
          2    1    1    2  501    0 -0.72266010567E+02 -0.72014954698E+01 -0.13060547025E+04  0.13080722930E+04  0.00000000000E+00 0. -1.
          1    1    1    2  502    0 -0.52169672101E+02 -0.84670440608E+02  0.11897815700E+04  0.11939308784E+04  0.00000000000E+00 0. -1.
         22    1    3    3    0    0 -0.15912177394E+02  0.46540180777E+02  0.11770106524E+03  0.12756459765E+03  0.00000000000E+00 0. -1.
         22    1    3    3    0    0  0.14034786006E+03  0.45331755302E+02  0.23966326658E+03  0.28140890393E+03  0.00000000000E+00 0. -1.
</event>
<event>
 7    1  0.5064652E-006  0.8785763E+02  0.7818608E-02  0.1320347E+00
          2   -1    0    0  502    0  0.00000000000E+00  0.00000000000E+00  0.14719645116E+03  0.14719645116E+03  0.00000000000E+00 0. -1.
          1   -1    0    0  501    0 -0.00000000000E+00 -0.00000000000E+00 -0.59543339512E+03  0.59543339512E+03  0.00000000000E+00 0. -1.
         25    2    1    2    0    0  0.85735045384E+01  0.85186069632E+02 -0.94588447468E+02  0.17861209846E+03  0.12500054352E+03 0.  0.
          2    1    1    2  501    0  0.66820383996E+02 -0.62644926168E+02 -0.43869245990E+03  0.44815223403E+03  0.00000000000E+00 0. -1.
          1    1    1    2  502    0 -0.75393888534E+02 -0.22541143464E+02  0.85043963408E+02  0.11586551380E+03  0.00000000000E+00 0. -1.
         22    1    3    3    0    0 -0.88119096830E+01  0.11490297064E+03 -0.60473168010E+02  0.13014356097E+03  0.00000000000E+00 0. -1.
         22    1    3    3    0    0  0.17385414221E+02 -0.29716901007E+02 -0.34115279458E+02  0.48468537481E+02  0.00000000000E+00 0. -1.
</event>
<event>
 7    1  0.5064652E-006  0.6035970E+02  0.7818608E-02  0.1549949E+00
          2   -1    0    0  502    0  0.00000000000E+00  0.00000000000E+00  0.81605572792E+03  0.81605572792E+03  0.00000000000E+00 0. -1.
          1   -1    0    0  501    0 -0.00000000000E+00 -0.00000000000E+00 -0.43884486090E+02  0.43884486090E+02  0.00000000000E+00 0. -1.
         25    2    1    2    0    0 -0.68546028800E+02  0.28344643058E+02  0.62421444923E+03  0.64091355237E+03  0.12499810448E+03 0.  0.
          2    1    1    2  501    0  0.58901866904E+02 -0.10686934298E+02 -0.92182454003E+01  0.60569105473E+02  0.00000000000E+00 0. -1.
          1    1    1    2  502    0  0.96441618959E+01 -0.17657708760E+02  0.15717503800E+03  0.15845755617E+03  0.00000000000E+00 0. -1.
         22    1    3    3    0    0  0.16592239955E+02 -0.35315034257E+02  0.16243881715E+03  0.16705934092E+03  0.00000000000E+00 0.  1.
         22    1    3    3    0    0 -0.85138268755E+02  0.63659677315E+02  0.46177563208E+03  0.47385421145E+03  0.00000000000E+00 0.  1.
</event>
<event>
 7    1  0.5064652E-006  0.8943296E+02  0.7818608E-02  0.1444826E+00
          2   -1    0    0  502    0  0.00000000000E+00  0.00000000000E+00  0.21609517338E+03  0.21609517338E+03  0.00000000000E+00 0. -1.
          1   -1    0    0  501    0 -0.00000000000E+00 -0.00000000000E+00 -0.16239740364E+04  0.16239740364E+04  0.00000000000E+00 0. -1.
         25    2    1    2    0    0  0.61522334265E+02  0.76162967336E+01  0.14225977984E+02  0.14025011594E+03  0.12499884392E+03 0.  0.
          2    1    1    2  501    0 -0.88700650226E+02 -0.14598888865E+02 -0.15582355308E+04  0.15608263524E+04  0.00000000000E+00 0. -1.
          1    1    1    2  502    0  0.27178315960E+02  0.69825921314E+01  0.13613068983E+03  0.13899274141E+03  0.00000000000E+00 0. -1.
         22    1    3    3    0    0 -0.24349009092E+02 -0.26797006974E+02  0.29227024585E+02  0.46531417265E+02  0.00000000000E+00 0. -1.
         22    1    3    3    0    0  0.85871343357E+02  0.34413303708E+02 -0.15001046601E+02  0.93718698674E+02  0.00000000000E+00 0. -1.
</event>
<event>
 7    1  0.5064652E-006  0.2974229E+03  0.7818608E-02  0.1203627E+00
          2   -1    0    0  502    0  0.00000000000E+00  0.00000000000E+00  0.11657395402E+04  0.11657395402E+04  0.00000000000E+00 0. -1.
          1   -1    0    0  501    0 -0.00000000000E+00 -0.00000000000E+00 -0.18665084394E+03  0.18665084394E+03  0.00000000000E+00 0. -1.
         25    2    1    2    0    0 -0.57345475330E+02  0.34848463726E+03  0.48544827217E+03  0.61320047633E+03  0.12499901309E+03 0.  0.
          2    1    1    2  501    0  0.54506940270E+02 -0.27542864270E+03  0.44665005840E+02  0.28430073251E+03  0.00000000000E+00 0. -1.
          1    1    1    2  502    0  0.28385350603E+01 -0.73055994557E+02  0.44897541822E+03  0.45488917529E+03  0.00000000000E+00 0. -1.
         22    1    3    3    0    0 -0.61660411692E+02  0.35049897554E+03  0.43275810008E+03  0.56029555719E+03  0.00000000000E+00 0. -1.
         22    1    3    3    0    0  0.43149363621E+01 -0.20143382773E+01  0.52690172085E+02  0.52904919136E+02  0.00000000000E+00 0. -1.
</event>
<event>
 7    1  0.5064652E-006  0.1604411E+03  0.7818608E-02  0.1299936E+00
          2   -1    0    0  502    0  0.00000000000E+00  0.00000000000E+00  0.37489280753E+03  0.37489280753E+03  0.00000000000E+00 0. -1.
          1   -1    0    0  501    0 -0.00000000000E+00 -0.00000000000E+00 -0.40029331352E+03  0.40029331352E+03  0.00000000000E+00 0. -1.
         25    2    1    2    0    0  0.15366576678E+03 -0.13501231711E+02 -0.76565604014E+02  0.21279818731E+03  0.12500130266E+03 0.  0.
          2    1    1    2  501    0 -0.15167603083E+03  0.65321019677E+02 -0.22628219272E+03  0.28013583256E+03  0.00000000000E+00 0. -1.
          1    1    1    2  502    0 -0.19897359519E+01 -0.51819787966E+02  0.27744729075E+03  0.28225210118E+03  0.00000000000E+00 0. -1.
         22    1    3    3    0    0  0.12494745012E+03 -0.28266544375E+02  0.17175258668E+01  0.12811640300E+03  0.00000000000E+00 0.  1.
         22    1    3    3    0    0  0.28718316662E+02  0.14765312665E+02 -0.78283129880E+02  0.84681784309E+02  0.00000000000E+00 0.  1.
</event>
<event>
 7    1  0.5064652E-006  0.2487535E+03  0.7818608E-02  0.1240390E+00
          2   -1    0    0  502    0  0.00000000000E+00  0.00000000000E+00  0.17764630893E+04  0.17764630893E+04  0.00000000000E+00 0. -1.
          1   -1    0    0  501    0 -0.00000000000E+00 -0.00000000000E+00 -0.22967448776E+03  0.22967448776E+03  0.00000000000E+00 0. -1.
         25    2    1    2    0    0  0.17286853544E+03  0.98861384678E+02  0.18026100367E+03  0.29627319811E+03  0.12500669801E+03 0.  0.
          2    1    1    2  501    0  0.46352403061E+02  0.37301108035E+02 -0.15530205788E+03  0.16630889066E+03  0.00000000000E+00 0. -1.
          1    1    1    2  502    0 -0.21922093850E+03 -0.13616249271E+03  0.15218296557E+04  0.15435554882E+04  0.00000000000E+00 0. -1.
         22    1    3    3    0    0  0.76180438566E+02  0.83025854602E+02  0.16085231775E+03  0.19639302401E+03  0.00000000000E+00 0. -1.
         22    1    3    3    0    0  0.96688096875E+02  0.15835530076E+02  0.19408685921E+02  0.99880174106E+02  0.00000000000E+00 0. -1.
</event>
<event>
 7    1  0.5064652E-006  0.2532996E+02  0.7818608E-02  0.1659122E+00
          2   -1    0    0  502    0  0.00000000000E+00  0.00000000000E+00  0.26830503573E+03  0.26830503573E+03  0.00000000000E+00 0. -1.
          1   -1    0    0  501    0 -0.00000000000E+00 -0.00000000000E+00 -0.48831491092E+03  0.48831491092E+03  0.00000000000E+00 0. -1.
         25    2    1    2    0    0 -0.10035483003E+01  0.31666207857E+02  0.17761957324E+02  0.13016877812E+03  0.12499867135E+03 0.  0.
          2    1    1    2  501    0  0.20036279500E+02 -0.14841550340E+02 -0.43091942666E+03  0.43164021637E+03  0.00000000000E+00 0. -1.
          1    1    1    2  502    0 -0.19032731200E+02 -0.16824657517E+02  0.19314759414E+03  0.19481095216E+03  0.00000000000E+00 0. -1.
         22    1    3    3    0    0 -0.13473708278E+02  0.21771599338E+02 -0.52348178438E+02  0.58274137817E+02  0.00000000000E+00 0.  1.
         22    1    3    3    0    0  0.12470159978E+02  0.98946085189E+01  0.70110135762E+02  0.71894640302E+02  0.00000000000E+00 0.  1.
</event>
<event>
 7    1  0.5064652E-006  0.7579504E+02  0.7818608E-02  0.1443951E+00
          2   -1    0    0  502    0  0.00000000000E+00  0.00000000000E+00  0.22357273515E+04  0.22357273515E+04  0.00000000000E+00 0. -1.
          1   -1    0    0  501    0 -0.00000000000E+00 -0.00000000000E+00 -0.76577449264E+03  0.76577449264E+03  0.00000000000E+00 0. -1.
         25    2    1    2    0    0 -0.38695410307E+02  0.22887549152E+02  0.35896348488E+03  0.38275400424E+03  0.12499867840E+03 0.  0.
          2    1    1    2  501    0 -0.31440475332E+02  0.11050579417E+02 -0.75269652990E+03  0.75343392870E+03  0.00000000000E+00 0. -1.
          1    1    1    2  502    0  0.70135885639E+02 -0.33938128569E+02  0.18636859039E+04  0.18653139112E+04  0.00000000000E+00 0. -1.
         22    1    3    3    0    0 -0.40403500308E+02 -0.14695883102E+02  0.31903666308E+02  0.53537423745E+02  0.00000000000E+00 0.  1.
         22    1    3    3    0    0  0.17080900011E+01  0.37583432254E+02  0.32705981857E+03  0.32921658050E+03  0.00000000000E+00 0.  1.
</event>
<event>
 7    1  0.5064652E-006  0.6973427E+02  0.7818608E-02  0.1475232E+00
          2   -1    0    0  502    0  0.00000000000E+00  0.00000000000E+00  0.21611595723E+03  0.21611595723E+03  0.00000000000E+00 0. -1.
          1   -1    0    0  501    0 -0.00000000000E+00 -0.00000000000E+00 -0.85829726471E+02  0.85829726471E+02  0.00000000000E+00 0. -1.
         25    2    1    2    0    0 -0.44552935390E+02  0.25847947391E+02  0.85571813959E+02  0.16000241672E+03  0.12500063031E+03 0.  0.
          2    1    1    2  501    0 -0.28704253401E+02  0.29495358107E+01 -0.23941581490E+02  0.37494442909E+02  0.00000000000E+00 0. -1.
          1    1    1    2  502    0  0.73257188791E+02 -0.28797483202E+02  0.68655998295E+02  0.10444882407E+03  0.00000000000E+00 0. -1.
         22    1    3    3    0    0 -0.16386456779E+02 -0.39902863003E+02  0.76601704063E+02  0.87912317151E+02  0.00000000000E+00 0. -1.
         22    1    3    3    0    0 -0.28166478611E+02  0.65750810394E+02  0.89701098966E+01  0.72090099573E+02  0.00000000000E+00 0. -1.
</event>
<event>
 7    1  0.5064652E-006  0.3856738E+02  0.7818608E-02  0.1536758E+00
          2   -1    0    0  502    0  0.00000000000E+00  0.00000000000E+00  0.14029129020E+04  0.14029129020E+04  0.00000000000E+00 0. -1.
          1   -1    0    0  501    0 -0.00000000000E+00 -0.00000000000E+00 -0.51834327323E+03  0.51834327323E+03  0.00000000000E+00 0. -1.
         25    2    1    2    0    0 -0.44312163406E+02  0.27420774729E+02  0.49455667266E+02  0.14416999919E+03  0.12499463560E+03 0.  0.
          2    1    1    2  501    0  0.11337297108E+02 -0.36856607638E+02 -0.46997115199E+03  0.47155045068E+03  0.00000000000E+00 0. -1.
          1    1    1    2  502    0  0.32974866298E+02  0.94358329095E+01  0.13050851135E+04  0.13055357254E+04  0.00000000000E+00 0. -1.
         22    1    3    3    0    0  0.34052900812E+01  0.70233986046E+02  0.17131980198E+02  0.72373431188E+02  0.00000000000E+00 0. -1.
         22    1    3    3    0    0 -0.47717453487E+02 -0.42813211318E+02  0.32323687069E+02  0.71796567998E+02  0.00000000000E+00 0. -1.
</event>
<event>
 7    1  0.5064652E-006  0.8997340E+02  0.7818608E-02  0.1405908E+00
          2   -1    0    0  502    0  0.00000000000E+00  0.00000000000E+00  0.18256182346E+04  0.18256182346E+04  0.00000000000E+00 0. -1.
          1   -1    0    0  501    0 -0.00000000000E+00 -0.00000000000E+00 -0.32081171488E+02  0.32081171488E+02  0.00000000000E+00 0. -1.
         25    2    1    2    0    0 -0.65280192174E+02  0.34441162449E+02  0.65892618251E+03  0.67472704075E+03  0.12500067347E+03 0.  0.
          2    1    1    2  501    0  0.92461622207E+02 -0.85488950546E+01  0.66525070456E+02  0.11422705541E+03  0.00000000000E+00 0. -1.
          1    1    1    2  502    0 -0.27181430034E+02 -0.25892267395E+02  0.10680858101E+04  0.10687453099E+04  0.00000000000E+00 0. -1.
         22    1    3    3    0    0 -0.95956401044E+02  0.41090808850E+02  0.38122727930E+03  0.39525981829E+03  0.00000000000E+00 0.  1.
         22    1    3    3    0    0  0.30676208870E+02 -0.66496464004E+01  0.27769890321E+03  0.27946722246E+03  0.00000000000E+00 0.  1.
</event>
<event>
 7    1  0.5064652E-006  0.6178136E+02  0.7818608E-02  0.1446699E+00
          2   -1    0    0  502    0  0.00000000000E+00  0.00000000000E+00  0.58157694492E+03  0.58157694492E+03  0.00000000000E+00 0. -1.
          1   -1    0    0  501    0 -0.00000000000E+00 -0.00000000000E+00 -0.12844257223E+03  0.12844257223E+03  0.00000000000E+00 0. -1.
         25    2    1    2    0    0 -0.33629909258E+02 -0.87296027105E+02  0.66287323164E+02  0.16961786715E+03  0.12499857799E+03 0.  0.
          2    1    1    2  501    0  0.29857563024E+02  0.26708891078E+02 -0.69400816242E+02  0.80133090714E+02  0.00000000000E+00 0. -1.
          1    1    1    2  502    0  0.37723462343E+01  0.60587136028E+02  0.45624786577E+03  0.46026855929E+03  0.00000000000E+00 0. -1.
         22    1    3    3    0    0 -0.59824792101E+02 -0.21305037437E+01  0.22767259050E+01  0.59905995334E+02  0.00000000000E+00 0.  1.
         22    1    3    3    0    0  0.26194882843E+02 -0.85165523362E+02  0.64010597259E+02  0.10971187182E+03  0.00000000000E+00 0.  1.
</event>
<event>
 7    1  0.5064652E-006  0.1930971E+03  0.7818608E-02  0.1274774E+00
          2   -1    0    0  502    0  0.00000000000E+00  0.00000000000E+00  0.25332284198E+03  0.25332284198E+03  0.00000000000E+00 0. -1.
          1   -1    0    0  501    0 -0.00000000000E+00 -0.00000000000E+00 -0.71335737471E+03  0.71335737471E+03  0.00000000000E+00 0. -1.
         25    2    1    2    0    0 -0.17532694514E+03 -0.12403148649E+02 -0.16075387666E+03  0.26899705277E+03  0.12499691897E+03 0.  0.
          2    1    1    2  501    0 -0.19170308580E+02  0.51115856792E+02 -0.44704958540E+03  0.45037058447E+03  0.00000000000E+00 0. -1.
          1    1    1    2  502    0  0.19449725372E+03 -0.38712708143E+02  0.14776892933E+03  0.24731257944E+03  0.00000000000E+00 0. -1.
         22    1    3    3    0    0 -0.18285529412E+03  0.18254474194E+02 -0.14240618926E+03  0.23248399333E+03  0.00000000000E+00 0.  1.
         22    1    3    3    0    0  0.75283489845E+01 -0.30657622843E+02 -0.18347687401E+02  0.36513059442E+02  0.00000000000E+00 0.  1.
</event>
<event>
 7    1  0.5064652E-006  0.2011518E+03  0.7818608E-02  0.1353721E+00
          2   -1    0    0  502    0  0.00000000000E+00  0.00000000000E+00  0.24570293940E+03  0.24570293940E+03  0.00000000000E+00 0. -1.
          1   -1    0    0  501    0 -0.00000000000E+00 -0.00000000000E+00 -0.58451847889E+03  0.58451847889E+03  0.00000000000E+00 0. -1.
         25    2    1    2    0    0  0.18747084164E+03  0.36127646543E+02  0.11557039763E+02  0.22849508970E+03  0.12500367010E+03 0.  0.
          2    1    1    2  501    0  0.14268360228E+02  0.21382627263E+02 -0.38778824782E+03  0.38863932894E+03  0.00000000000E+00 0. -1.
          1    1    1    2  502    0 -0.20173920187E+03 -0.57510273806E+02  0.37415668567E+02  0.21308699964E+03  0.00000000000E+00 0. -1.
         22    1    3    3    0    0  0.92399066064E+02 -0.27541633683E+02  0.48933409546E+02  0.10812311300E+03  0.00000000000E+00 0. -1.
         22    1    3    3    0    0  0.95071775574E+02  0.63669280226E+02 -0.37376369782E+02  0.12037197669E+03  0.00000000000E+00 0. -1.
</event>
<event>
 7    1  0.5064652E-006  0.1294417E+03  0.7818608E-02  0.1351017E+00
          2   -1    0    0  502    0  0.00000000000E+00  0.00000000000E+00  0.31928716361E+03  0.31928716361E+03  0.00000000000E+00 0. -1.
          1   -1    0    0  501    0 -0.00000000000E+00 -0.00000000000E+00 -0.12999179273E+04  0.12999179273E+04  0.00000000000E+00 0. -1.
         25    2    1    2    0    0 -0.59352804169E+02  0.77808291990E+02 -0.44437282423E+02  0.16484690159E+03  0.12499177265E+03 0.  0.
          2    1    1    2  501    0  0.99391448139E+02 -0.86039512595E+02 -0.11900212342E+04  0.11972602038E+04  0.00000000000E+00 0. -1.
          1    1    1    2  502    0 -0.40038643970E+02  0.82312206047E+01  0.25382775294E+03  0.25709798553E+03  0.00000000000E+00 0. -1.
         22    1    3    3    0    0  0.15354250033E+02 -0.47618910173E+01 -0.50831316474E+02  0.53312768964E+02  0.00000000000E+00 0. -1.
         22    1    3    3    0    0 -0.74707054202E+02  0.82570183008E+02  0.63940340509E+01  0.11153413263E+03  0.00000000000E+00 0. -1.
</event>
<event>
 7    1  0.5064652E-006  0.8401057E+02  0.7818608E-02  0.1397748E+00
          2   -1    0    0  502    0  0.00000000000E+00  0.00000000000E+00  0.31503843446E+03  0.31503843446E+03  0.00000000000E+00 0. -1.
          1   -1    0    0  501    0 -0.00000000000E+00 -0.00000000000E+00 -0.43701367153E+03  0.43701367153E+03  0.00000000000E+00 0. -1.
         25    2    1    2    0    0 -0.12428544215E+02  0.59314308739E+02 -0.20621092408E+02  0.14044605349E+03  0.12500883392E+03 0.  0.
          2    1    1    2  501    0 -0.42099292490E+02  0.81465705713E+01 -0.34775189176E+03  0.35038563792E+03  0.00000000000E+00 0. -1.
          1    1    1    2  502    0  0.54527836705E+02 -0.67460879311E+02  0.24639774710E+03  0.26122041457E+03  0.00000000000E+00 0. -1.
         22    1    3    3    0    0 -0.38620374440E+02  0.53698017772E+02  0.37795351861E+02  0.76180700029E+02  0.00000000000E+00 0. -1.
         22    1    3    3    0    0  0.26191830225E+02  0.56162909668E+01 -0.58416444269E+02  0.64265353463E+02  0.00000000000E+00 0. -1.
</event>
<event>
 7    1  0.5064652E-006  0.7567971E+02  0.7818608E-02  0.1473171E+00
          2   -1    0    0  502    0  0.00000000000E+00  0.00000000000E+00  0.11894889749E+03  0.11894889749E+03  0.00000000000E+00 0. -1.
          1   -1    0    0  501    0 -0.00000000000E+00 -0.00000000000E+00 -0.20922859815E+04  0.20922859815E+04  0.00000000000E+00 0. -1.
         25    2    1    2    0    0  0.51685516605E+02 -0.23281038982E+02 -0.15821684998E+03  0.20945453382E+03  0.12500092286E+03 0.  0.
          2    1    1    2  501    0  0.24782005309E+02  0.10670480883E+02 -0.18922486246E+04  0.18924409804E+04  0.00000000000E+00 0. -1.
          1    1    1    2  502    0 -0.76467521915E+02  0.12610558099E+02  0.77128390504E+02  0.10933936485E+03  0.00000000000E+00 0. -1.
         22    1    3    3    0    0 -0.65899818025E+00  0.24201771574E+02  0.10609200865E+02  0.26433220934E+02  0.00000000000E+00 0. -1.
         22    1    3    3    0    0  0.52344514786E+02 -0.47482810556E+02 -0.16882605084E+03  0.18302131288E+03  0.00000000000E+00 0. -1.
</event>
<event>
 7    1  0.1150146E-005  0.9382315E+02  0.7818608E-02  0.1297001E+00
          2   -1    0    0  502    0  0.00000000000E+00  0.00000000000E+00  0.94140854928E+03  0.94140854928E+03  0.00000000000E+00 0. -1.
          1   -1    0    0  501    0 -0.00000000000E+00 -0.00000000000E+00 -0.19801833858E+04  0.19801833858E+04  0.00000000000E+00 0. -1.
         25    2    1    2    0    0 -0.11734092891E+03 -0.19032316389E+02 -0.29982982252E+03  0.34591026870E+03  0.12499947542E+03 0.  0.
          2    1    1    2  501    0  0.49942926420E+02  0.80349176928E+02 -0.16536979880E+04  0.16564019203E+04  0.00000000000E+00 0. -1.
          1    1    1    2  502    0  0.67398002492E+02 -0.61316860539E+02  0.91475297399E+03  0.91927974608E+03  0.00000000000E+00 0. -1.
         22    1    3    3    0    0 -0.94931987110E+01  0.27435615006E+02 -0.16314172559E+03  0.16570472662E+03  0.00000000000E+00 0. -1.
         22    1    3    3    0    0 -0.10784773020E+03 -0.46467931395E+02 -0.13668809693E+03  0.18020554209E+03  0.00000000000E+00 0. -1.
</event>
<event>
 7    1  0.5064652E-006  0.1956345E+03  0.7818608E-02  0.1243381E+00
          2   -1    0    0  502    0  0.00000000000E+00  0.00000000000E+00  0.66401280255E+03  0.66401280255E+03  0.00000000000E+00 0. -1.
          1   -1    0    0  501    0 -0.00000000000E+00 -0.00000000000E+00 -0.81222501269E+03  0.81222501269E+03  0.00000000000E+00 0. -1.
         25    2    1    2    0    0  0.24072835891E+03 -0.17078352174E+02 -0.73351390171E+02  0.28150977902E+03  0.12500206539E+03 0.  0.
          2    1    1    2  501    0 -0.51892578601E+02  0.51905132632E+02 -0.61608927599E+03  0.62044579014E+03  0.00000000000E+00 0. -1.
          1    1    1    2  502    0 -0.18883578031E+03 -0.34826780459E+02  0.54122845601E+03  0.57428224608E+03  0.00000000000E+00 0. -1.
         22    1    3    3    0    0  0.12929448390E+03  0.48039909650E+02 -0.64144181328E+02  0.15211631236E+03  0.00000000000E+00 0. -1.
         22    1    3    3    0    0  0.11143387500E+03 -0.65118261824E+02 -0.92072088426E+01  0.12939346667E+03  0.00000000000E+00 0. -1.
</event>
<event>
 7    1  0.5064652E-006  0.1279537E+03  0.7818608E-02  0.1317668E+00
          2   -1    0    0  502    0  0.00000000000E+00  0.00000000000E+00  0.17134869873E+04  0.17134869873E+04  0.00000000000E+00 0. -1.
          1   -1    0    0  501    0 -0.00000000000E+00 -0.00000000000E+00 -0.95069177988E+03  0.95069177988E+03  0.00000000000E+00 0. -1.
         25    2    1    2    0    0 -0.10766303866E+03  0.14055160181E+03  0.46217033469E+03  0.51046314839E+03  0.12500049973E+03 0.  0.
          2    1    1    2  501    0  0.35842982766E+02 -0.42168371400E+02 -0.92269151323E+03  0.92434978203E+03  0.00000000000E+00 0. -1.
          1    1    1    2  502    0  0.71820055894E+02 -0.98383230406E+02  0.12233163859E+04  0.12293658367E+04  0.00000000000E+00 0. -1.
         22    1    3    3    0    0 -0.71317478578E+02  0.49208164235E+02  0.35332300008E+03  0.36379220519E+03  0.00000000000E+00 0. -1.
         22    1    3    3    0    0 -0.36345560082E+02  0.91343437571E+02  0.10884733462E+03  0.14667094320E+03  0.00000000000E+00 0. -1.
</event>
<event>
 7    1  0.5064652E-006  0.1100446E+03  0.7818608E-02  0.1452046E+00
          2   -1    0    0  502    0  0.00000000000E+00  0.00000000000E+00  0.19858548727E+03  0.19858548727E+03  0.00000000000E+00 0. -1.
          1   -1    0    0  501    0 -0.00000000000E+00 -0.00000000000E+00 -0.17393631617E+04  0.17393631617E+04  0.00000000000E+00 0. -1.
         25    2    1    2    0    0 -0.10408215226E+03  0.35365062410E+02 -0.15194631032E+03  0.22537941577E+03  0.12499767107E+03 0.  0.
          2    1    1    2  501    0  0.10921801816E+03 -0.14362627593E+02 -0.15480121845E+04  0.15519267327E+04  0.00000000000E+00 0. -1.
          1    1    1    2  502    0 -0.51358659030E+01 -0.21002434817E+02  0.15918082035E+03  0.16064250046E+03  0.00000000000E+00 0. -1.
         22    1    3    3    0    0  0.19735492757E+02  0.16127586068E+02  0.34916500669E+01  0.25725091389E+02  0.00000000000E+00 0.  1.
         22    1    3    3    0    0 -0.12381764502E+03  0.19237476342E+02 -0.15543796039E+03  0.19965432438E+03  0.00000000000E+00 0.  1.
</event>
<event>
 7    1  0.5064652E-006  0.9995614E+02  0.7818608E-02  0.1363089E+00
          2   -1    0    0  502    0  0.00000000000E+00  0.00000000000E+00  0.11725023382E+04  0.11725023382E+04  0.00000000000E+00 0. -1.
          1   -1    0    0  501    0 -0.00000000000E+00 -0.00000000000E+00 -0.21919704976E+03  0.21919704976E+03  0.00000000000E+00 0. -1.
         25    2    1    2    0    0 -0.26305011061E+00 -0.72118667246E+02  0.23459515874E+02  0.14620801417E+03  0.12500105264E+03 0.  0.
          2    1    1    2  501    0 -0.38907320381E+02  0.99523895226E+02 -0.13913917995E+03  0.17543801383E+03  0.00000000000E+00 0. -1.
          1    1    1    2  502    0  0.39170370491E+02 -0.27405227980E+02  0.10689849525E+04  0.10700533599E+04  0.00000000000E+00 0. -1.
         22    1    3    3    0    0  0.24497625624E+02 -0.80492978131E+02 -0.27847131199E+02  0.88626835133E+02  0.00000000000E+00 0. -1.
         22    1    3    3    0    0 -0.24760675734E+02  0.83743108849E+01  0.51306647072E+02  0.57581179038E+02  0.00000000000E+00 0. -1.
</event>
<event>
 7    1  0.5064652E-006  0.1113732E+03  0.7818608E-02  0.1319968E+00
          2   -1    0    0  502    0  0.00000000000E+00  0.00000000000E+00  0.72672924533E+03  0.72672924533E+03  0.00000000000E+00 0. -1.
          1   -1    0    0  501    0 -0.00000000000E+00 -0.00000000000E+00 -0.61114791104E+03  0.61114791104E+03  0.00000000000E+00 0. -1.
         25    2    1    2    0    0  0.23777753656E+02  0.84364046506E+02 -0.10395826049E+03  0.18470629152E+03  0.12500568105E+03 0.  0.
          2    1    1    2  501    0  0.61361959457E+02 -0.10693644585E+02 -0.46008575863E+03  0.46428283341E+03  0.00000000000E+00 0. -1.
          1    1    1    2  502    0 -0.85139713113E+02 -0.73670401921E+02  0.67962535340E+03  0.68888803144E+03  0.00000000000E+00 0. -1.
         22    1    3    3    0    0  0.19556397368E+01 -0.11404381412E+02 -0.83598162427E+02  0.84395125471E+02  0.00000000000E+00 0. -1.
         22    1    3    3    0    0  0.21822113919E+02  0.95768427919E+02 -0.20360098059E+02  0.10031116605E+03  0.00000000000E+00 0. -1.
</event>
<event>
 7    1  0.5064652E-006  0.2458207E+03  0.7818608E-02  0.1208352E+00
          2   -1    0    0  502    0  0.00000000000E+00  0.00000000000E+00  0.11524248426E+04  0.11524248426E+04  0.00000000000E+00 0. -1.
          1   -1    0    0  501    0 -0.00000000000E+00 -0.00000000000E+00 -0.84005886013E+03  0.84005886013E+03  0.00000000000E+00 0. -1.
         25    2    1    2    0    0  0.74197418499E+02 -0.16402963053E+03 -0.41527052664E+02  0.22307098609E+03  0.12500076851E+03 0.  0.
          2    1    1    2  501    0 -0.99422965932E+02  0.24423461576E+03 -0.68143455562E+03  0.73067675978E+03  0.00000000000E+00 0. -1.
          1    1    1    2  502    0  0.25225547433E+02 -0.80204985228E+02  0.10353275907E+04  0.10387359569E+04  0.00000000000E+00 0. -1.
         22    1    3    3    0    0  0.28699558262E+02 -0.63219146943E+02 -0.80039234351E+02  0.10595567101E+03  0.00000000000E+00 0. -1.
         22    1    3    3    0    0  0.45497860237E+02 -0.10081048358E+03  0.38512181687E+02  0.11711531507E+03  0.00000000000E+00 0. -1.
</event>
<event>
 7    1  0.5064652E-006  0.8678703E+02  0.7818608E-02  0.1342577E+00
          2   -1    0    0  502    0  0.00000000000E+00  0.00000000000E+00  0.56780262108E+03  0.56780262108E+03  0.00000000000E+00 0. -1.
          1   -1    0    0  501    0 -0.00000000000E+00 -0.00000000000E+00 -0.57266821391E+03  0.57266821391E+03  0.00000000000E+00 0. -1.
         25    2    1    2    0    0 -0.13533032548E+03  0.55066104575E+02  0.19048668955E+03  0.27065891870E+03  0.12499799403E+03 0.  0.
          2    1    1    2  501    0  0.69995081179E+02 -0.49876698337E+02 -0.52587570203E+03  0.53285293507E+03  0.00000000000E+00 0. -1.
          1    1    1    2  502    0  0.65335244299E+02 -0.51894062385E+01  0.33052341966E+03  0.33695898122E+03  0.00000000000E+00 0. -1.
         22    1    3    3    0    0 -0.20864835719E+02 -0.14909678151E+02  0.11269648525E+03  0.11557740982E+03  0.00000000000E+00 0. -1.
         22    1    3    3    0    0 -0.11446548976E+03  0.69975782726E+02  0.77790204294E+02  0.15508150888E+03  0.00000000000E+00 0. -1.
</event>
<event>
 7    1  0.5064652E-006  0.5493870E+02  0.7818608E-02  0.1496998E+00
          2   -1    0    0  502    0  0.00000000000E+00  0.00000000000E+00  0.10743850362E+04  0.10743850362E+04  0.00000000000E+00 0. -1.
          1   -1    0    0  501    0 -0.00000000000E+00 -0.00000000000E+00 -0.12682530499E+03  0.12682530499E+03  0.00000000000E+00 0. -1.
         25    2    1    2    0    0  0.51331956823E+02  0.63240067266E+01  0.76044857846E+03  0.77238728692E+03  0.12500047068E+03 0.  0.
          2    1    1    2  501    0 -0.41470437829E+02 -0.36185129844E+02 -0.11372752774E+03  0.12634520728E+03  0.00000000000E+00 0. -1.
          1    1    1    2  502    0 -0.98615189938E+01  0.29861123117E+02  0.30083868054E+03  0.30247784702E+03  0.00000000000E+00 0. -1.
         22    1    3    3    0    0 -0.64444893391E+01  0.43706501597E+02  0.53117433008E+03  0.53300840393E+03  0.00000000000E+00 0. -1.
         22    1    3    3    0    0  0.57776446162E+02 -0.37382494870E+02  0.22927424837E+03  0.23937888299E+03  0.00000000000E+00 0. -1.
</event>
<event>
 7    1  0.5064652E-006  0.8672128E+02  0.7818608E-02  0.1347757E+00
          2   -1    0    0  502    0  0.00000000000E+00  0.00000000000E+00  0.14591095620E+04  0.14591095620E+04  0.00000000000E+00 0. -1.
          1   -1    0    0  501    0 -0.00000000000E+00 -0.00000000000E+00 -0.15816217409E+03  0.15816217409E+03  0.00000000000E+00 0. -1.
         25    2    1    2    0    0 -0.21781770284E+02  0.20895363578E+02  0.45502353290E+03  0.47283918201E+03  0.12497765725E+03 0.  0.
          2    1    1    2  501    0  0.84230766970E+02 -0.26875620481E+02 -0.13507028483E+03  0.16143451590E+03  0.00000000000E+00 0. -1.
          1    1    1    2  502    0 -0.62448996686E+02  0.59802569033E+01  0.98099413984E+03  0.98299803818E+03  0.00000000000E+00 0. -1.
         22    1    3    3    0    0 -0.92796480512E+01 -0.49629278731E+02  0.11901477005E+03  0.12928144749E+03  0.00000000000E+00 0.  1.
         22    1    3    3    0    0 -0.12502122233E+02  0.70524642309E+02  0.33600876285E+03  0.34355773451E+03  0.00000000000E+00 0.  1.
</event>
<event>
 7    1  0.5064652E-006  0.2630819E+03  0.7818608E-02  0.1106547E+00
          2   -1    0    0  502    0  0.00000000000E+00  0.00000000000E+00  0.84476518840E+03  0.84476518840E+03  0.00000000000E+00 0. -1.
          1   -1    0    0  501    0 -0.00000000000E+00 -0.00000000000E+00 -0.14924381584E+04  0.14924381584E+04  0.00000000000E+00 0. -1.
         25    2    1    2    0    0  0.21247425298E+03  0.17187787024E+03 -0.37708988333E+03  0.48219358971E+03  0.12500626941E+03 0.  0.
          2    1    1    2  501    0  0.43277229392E+02 -0.25528331353E+03 -0.10233615884E+04  0.10556095061E+04  0.00000000000E+00 0. -1.
          1    1    1    2  502    0 -0.25575148237E+03  0.83405443299E+02  0.75277850170E+03  0.79940025102E+03  0.00000000000E+00 0. -1.
         22    1    3    3    0    0  0.11762490316E+03  0.17421802279E+02 -0.13792940241E+03  0.18210891546E+03  0.00000000000E+00 0. -1.
         22    1    3    3    0    0  0.94849349813E+02  0.15445606796E+03 -0.23916048092E+03  0.30008467425E+03  0.00000000000E+00 0. -1.
</event>
<event>
 7    1  0.5064652E-006  0.1885700E+03  0.7818608E-02  0.1266667E+00
          2   -1    0    0  502    0  0.00000000000E+00  0.00000000000E+00  0.12333786315E+03  0.12333786315E+03  0.00000000000E+00 0. -1.
          1   -1    0    0  501    0 -0.00000000000E+00 -0.00000000000E+00 -0.11498531129E+04  0.11498531129E+04  0.00000000000E+00 0. -1.
         25    2    1    2    0    0 -0.19004666270E+03  0.77131341766E+02 -0.68747186481E+03  0.72822335980E+03  0.12499887585E+03 0.  0.
          2    1    1    2  501    0  0.17642846314E+03 -0.18228783520E+02 -0.41298201143E+03  0.44945904477E+03  0.00000000000E+00 0. -1.
          1    1    1    2  502    0  0.13618199558E+02 -0.58902558246E+02  0.73938626532E+02  0.95508571451E+02  0.00000000000E+00 0. -1.
         22    1    3    3    0    0 -0.11933709038E+03  0.22775735465E+02 -0.55756328641E+03  0.57064603181E+03  0.00000000000E+00 0. -1.
         22    1    3    3    0    0 -0.70709572325E+02  0.54355606301E+02 -0.12990857840E+03  0.15757732799E+03  0.00000000000E+00 0. -1.
</event>
<event>
 7    1  0.5064652E-006  0.9050277E+02  0.7818608E-02  0.1336149E+00
          2   -1    0    0  502    0  0.00000000000E+00  0.00000000000E+00  0.48280829954E+03  0.48280829954E+03  0.00000000000E+00 0. -1.
          1   -1    0    0  501    0 -0.00000000000E+00 -0.00000000000E+00 -0.95938975411E+02  0.95938975411E+02  0.00000000000E+00 0. -1.
         25    2    1    2    0    0 -0.13433582657E+03  0.17663763031E+02  0.15997884191E+03  0.24408226105E+03  0.12499918990E+03 0.  0.
          2    1    1    2  501    0  0.72600908181E+02 -0.42255805924E+02 -0.13658522354E+02  0.85105817873E+02  0.00000000000E+00 0. -1.
          1    1    1    2  502    0  0.61734918390E+02  0.24592042893E+02  0.24054900457E+03  0.24955919603E+03  0.00000000000E+00 0. -1.
         22    1    3    3    0    0 -0.11605320769E+02  0.27878695917E+02  0.10492148022E+03  0.10918068587E+03  0.00000000000E+00 0.  1.
         22    1    3    3    0    0 -0.12273050580E+03 -0.10214932886E+02  0.55057361689E+02  0.13490157517E+03  0.00000000000E+00 0.  1.
</event>
<event>
 7    1  0.5064652E-006  0.4934173E+02  0.7818608E-02  0.1462942E+00
          2   -1    0    0  502    0  0.00000000000E+00  0.00000000000E+00  0.21603851667E+04  0.21603851667E+04  0.00000000000E+00 0. -1.
          1   -1    0    0  501    0 -0.00000000000E+00 -0.00000000000E+00 -0.67522026293E+02  0.67522026293E+02  0.00000000000E+00 0. -1.
         25    2    1    2    0    0 -0.59454131810E+02 -0.28854138358E+02  0.43879276661E+03  0.46101105845E+03  0.12499899556E+03 0.  0.
          2    1    1    2  501    0  0.18278358290E+02  0.45832420775E+02 -0.45275312582E+02  0.66966880660E+02  0.00000000000E+00 0. -1.
          1    1    1    2  502    0  0.41175773520E+02 -0.16978282417E+02  0.16993456864E+04  0.16999292539E+04  0.00000000000E+00 0. -1.
         22    1    3    3    0    0  0.12862141924E+02 -0.28372847317E+02  0.22361324377E+02  0.38346864118E+02  0.00000000000E+00 0. -1.
         22    1    3    3    0    0 -0.72316273733E+02 -0.48129104046E+00  0.41643144223E+03  0.42266419433E+03  0.00000000000E+00 0. -1.
</event>
<event>
 7    1  0.5064652E-006  0.9408666E+02  0.7818608E-02  0.1479155E+00
          2   -1    0    0  502    0  0.00000000000E+00  0.00000000000E+00  0.81952712198E+03  0.81952712198E+03  0.00000000000E+00 0. -1.
          1   -1    0    0  501    0 -0.00000000000E+00 -0.00000000000E+00 -0.40814811609E+03  0.40814811609E+03  0.00000000000E+00 0. -1.
         25    2    1    2    0    0 -0.97619294852E+02 -0.67909057872E+01 -0.25547575426E+03  0.30077895138E+03  0.12499789379E+03 0.  0.
          2    1    1    2  501    0  0.45236602606E+01  0.20302154871E+02 -0.12639149459E+03  0.12809157232E+03  0.00000000000E+00 0. -1.
          1    1    1    2  502    0  0.93095634592E+02 -0.13511249084E+02  0.79324625474E+03  0.79880471437E+03  0.00000000000E+00 0. -1.
         22    1    3    3    0    0 -0.54629191309E+02 -0.54628361206E+02 -0.69217091766E+02  0.10372855047E+03  0.00000000000E+00 0.  1.
         22    1    3    3    0    0 -0.42990103544E+02  0.47837455418E+02 -0.18625866249E+03  0.19705040091E+03  0.00000000000E+00 0.  1.
</event>
<event>
 7    1  0.5064652E-006  0.7186187E+02  0.7818608E-02  0.1362258E+00
          2   -1    0    0  502    0  0.00000000000E+00  0.00000000000E+00  0.27604853579E+04  0.27604853579E+04  0.00000000000E+00 0. -1.
          1   -1    0    0  501    0 -0.00000000000E+00 -0.00000000000E+00 -0.17130617468E+03  0.17130617468E+03  0.00000000000E+00 0. -1.
         25    2    1    2    0    0  0.58440944839E+02 -0.33636485638E+02  0.55841453044E+03  0.57619292522E+03  0.12499896829E+03 0.  0.
          2    1    1    2  501    0  0.80899299784E+01  0.66468824709E+02 -0.15485940679E+03  0.16871570021E+03  0.00000000000E+00 0. -1.
          1    1    1    2  502    0 -0.66530874818E+02 -0.32832339071E+02  0.21856240596E+04  0.21868829072E+04  0.00000000000E+00 0. -1.
         22    1    3    3    0    0 -0.34909868021E+02 -0.69411334693E+01  0.73638194259E+02  0.81789130529E+02  0.00000000000E+00 0.  1.
         22    1    3    3    0    0  0.93350812860E+02 -0.26695352169E+02  0.48477633618E+03  0.49440379470E+03  0.00000000000E+00 0.  1.
</event>
<event>
 7    1  0.5064652E-006  0.2479304E+03  0.7818608E-02  0.1235101E+00
          2   -1    0    0  502    0  0.00000000000E+00  0.00000000000E+00  0.16442519352E+04  0.16442519352E+04  0.00000000000E+00 0. -1.
          1   -1    0    0  501    0 -0.00000000000E+00 -0.00000000000E+00 -0.46872916551E+03  0.46872916551E+03  0.00000000000E+00 0. -1.
         25    2    1    2    0    0 -0.18663238145E+03  0.14384646403E+03 -0.96493032650E+02  0.28365411586E+03  0.12500120430E+03 0.  0.
          2    1    1    2  501    0  0.16171951477E+03 -0.20171297995E+03 -0.21787857306E+03  0.33810116879E+03  0.00000000000E+00 0. -1.
          1    1    1    2  502    0  0.24912866684E+02  0.57866515927E+02  0.14898943754E+04  0.14912258161E+04  0.00000000000E+00 0. -1.
         22    1    3    3    0    0 -0.10003005375E+03  0.52785464779E+02 -0.10936396750E+03  0.15733020794E+03  0.00000000000E+00 0.  1.
         22    1    3    3    0    0 -0.86602327702E+02  0.91060999248E+02  0.12870934847E+02  0.12632390792E+03  0.00000000000E+00 0.  1.
</event>
<event>
 7    1  0.5064652E-006  0.7760599E+02  0.7818608E-02  0.1383064E+00
          2   -1    0    0  502    0  0.00000000000E+00  0.00000000000E+00  0.75928326658E+03  0.75928326658E+03  0.00000000000E+00 0. -1.
          1   -1    0    0  501    0 -0.00000000000E+00 -0.00000000000E+00 -0.62416636427E+02  0.62416636427E+02  0.00000000000E+00 0. -1.
         25    2    1    2    0    0 -0.11172108798E+03 -0.23250387556E+02  0.43686835916E+03  0.46850455678E+03  0.12498149649E+03 0.  0.
          2    1    1    2  501    0  0.51244962026E+02 -0.10088511413E+02 -0.26447408268E+02  0.58543057655E+02  0.00000000000E+00 0. -1.
          1    1    1    2  502    0  0.60476125959E+02  0.33338898969E+02  0.28644567926E+03  0.29465228858E+03  0.00000000000E+00 0. -1.
         22    1    3    3    0    0  0.21836208267E+02 -0.25085735718E+02  0.12255652876E+03  0.12698904232E+03  0.00000000000E+00 0. -1.
         22    1    3    3    0    0 -0.13355729625E+03  0.18353481618E+01  0.31431183040E+03  0.34151551446E+03  0.00000000000E+00 0. -1.
</event>
<event>
 7    1  0.5064652E-006  0.4174398E+02  0.7818608E-02  0.1521513E+00
          2   -1    0    0  502    0  0.00000000000E+00  0.00000000000E+00  0.12471368988E+04  0.12471368988E+04  0.00000000000E+00 0. -1.
          1   -1    0    0  501    0 -0.00000000000E+00 -0.00000000000E+00 -0.97885075324E+02  0.97885075324E+02  0.00000000000E+00 0. -1.
         25    2    1    2    0    0 -0.32946181094E+02  0.41703079635E+02  0.30881431634E+03  0.33736509837E+03  0.12499731966E+03 0.  0.
          2    1    1    2  501    0  0.41069012125E+02 -0.76123123738E+01 -0.78038045438E+02  0.88512979796E+02  0.00000000000E+00 0. -1.
          1    1    1    2  502    0 -0.81228310314E+01 -0.34090767261E+02  0.91847555262E+03  0.91914389600E+03  0.00000000000E+00 0. -1.
         22    1    3    3    0    0 -0.48715933172E+02  0.34825256082E+02  0.31379215141E+03  0.31945509057E+03  0.00000000000E+00 0. -1.
         22    1    3    3    0    0  0.15769752078E+02  0.68778235529E+01 -0.49778350693E+01  0.17910007800E+02  0.00000000000E+00 0. -1.
</event>
<event>
 7    1  0.5064652E-006  0.1556718E+03  0.7818608E-02  0.1402386E+00
          2   -1    0    0  502    0  0.00000000000E+00  0.00000000000E+00  0.97212771752E+03  0.97212771752E+03  0.00000000000E+00 0. -1.
          1   -1    0    0  501    0 -0.00000000000E+00 -0.00000000000E+00 -0.48543793826E+03  0.48543793826E+03  0.00000000000E+00 0. -1.
         25    2    1    2    0    0 -0.88238250021E+02 -0.13675317992E+03  0.25502536200E+03  0.32733823294E+03  0.12499984998E+03 0.  0.
          2    1    1    2  501    0  0.22154703922E+02 -0.25987523789E+01 -0.44026280773E+03  0.44082754484E+03  0.00000000000E+00 0. -1.
          1    1    1    2  502    0  0.66083546099E+02  0.13935193230E+03  0.67192722499E+03  0.68939987800E+03  0.00000000000E+00 0. -1.
         22    1    3    3    0    0 -0.23569679316E+02  0.19790916741E+02  0.70155386820E+02  0.76609323639E+02  0.00000000000E+00 0.  1.
         22    1    3    3    0    0 -0.64668570704E+02 -0.15654409666E+03  0.18486997518E+03  0.25072890930E+03  0.00000000000E+00 0.  1.
</event>
<event>
 7    1  0.5064652E-006  0.7769518E+02  0.7818608E-02  0.1355388E+00
          2   -1    0    0  502    0  0.00000000000E+00  0.00000000000E+00  0.81361647099E+03  0.81361647099E+03  0.00000000000E+00 0. -1.
          1   -1    0    0  501    0 -0.00000000000E+00 -0.00000000000E+00 -0.10973116666E+04  0.10973116666E+04  0.00000000000E+00 0. -1.
         25    2    1    2    0    0 -0.49011419781E+02  0.79598271070E+02  0.27324993632E+03  0.31468664448E+03  0.12499660991E+03 0.  0.
          2    1    1    2  501    0  0.75268638840E+02 -0.19461511450E+02 -0.10731099175E+04  0.10759224013E+04  0.00000000000E+00 0. -1.
          1    1    1    2  502    0 -0.26257219059E+02 -0.60136759619E+02  0.51616478562E+03  0.52031909183E+03  0.00000000000E+00 0. -1.
         22    1    3    3    0    0  0.26743095390E+02  0.13757735221E+02  0.16235053923E+03  0.16511258589E+03  0.00000000000E+00 0. -1.
         22    1    3    3    0    0 -0.75754515170E+02  0.65840535849E+02  0.11089939709E+03  0.14957405860E+03  0.00000000000E+00 0. -1.
</event>
<event>
 7    1  0.5064652E-006  0.7300748E+02  0.7818608E-02  0.1378034E+00
          2   -1    0    0  502    0  0.00000000000E+00  0.00000000000E+00  0.15352622569E+03  0.15352622569E+03  0.00000000000E+00 0. -1.
          1   -1    0    0  501    0 -0.00000000000E+00 -0.00000000000E+00 -0.29516811467E+03  0.29516811467E+03  0.00000000000E+00 0. -1.
         25    2    1    2    0    0  0.95514362854E+02  0.19833266855E+02 -0.11424584684E+03  0.19543245964E+03  0.12500152309E+03 0.  0.
          2    1    1    2  501    0 -0.29556800477E+02 -0.49719400182E+02 -0.12147440127E+03  0.13454238504E+03  0.00000000000E+00 0. -1.
          1    1    1    2  502    0 -0.65957562377E+02  0.29886133327E+02  0.94078359127E+02  0.11871949569E+03  0.00000000000E+00 0. -1.
         22    1    3    3    0    0  0.20336741710E+02 -0.49368056971E+02 -0.21908332099E+02  0.57712763994E+02  0.00000000000E+00 0. -1.
         22    1    3    3    0    0  0.75177621144E+02  0.69201323826E+02 -0.92337514736E+02  0.13771969564E+03  0.00000000000E+00 0. -1.
</event>
<event>
 7    1  0.5064652E-006  0.1587132E+03  0.7818608E-02  0.1301823E+00
          2   -1    0    0  502    0  0.00000000000E+00  0.00000000000E+00  0.70632703436E+02  0.70632703436E+02  0.00000000000E+00 0. -1.
          1   -1    0    0  501    0 -0.00000000000E+00 -0.00000000000E+00 -0.97791383189E+03  0.97791383189E+03  0.00000000000E+00 0. -1.
         25    2    1    2    0    0 -0.12628690893E+03 -0.27089848339E+02 -0.11292093958E+03  0.21226959414E+03  0.12499999501E+03 0.  0.
          2    1    1    2  501    0  0.14698950349E+03  0.74266984787E+02 -0.75128189223E+03  0.76912026417E+03  0.00000000000E+00 0. -1.
          1    1    1    2  502    0 -0.20702594563E+02 -0.47177136448E+02 -0.43078296639E+02  0.67156677005E+02  0.00000000000E+00 0. -1.
         22    1    3    3    0    0 -0.15121521020E+03 -0.24527304970E+02 -0.10594259472E+03  0.18625644113E+03  0.00000000000E+00 0. -1.
         22    1    3    3    0    0  0.24928301273E+02 -0.25625433691E+01 -0.69783448550E+01  0.26013153015E+02  0.00000000000E+00 0. -1.
</event>
<event>
 7    1  0.5064652E-006  0.9982814E+02  0.7818608E-02  0.1335644E+00
          2   -1    0    0  502    0  0.00000000000E+00  0.00000000000E+00  0.11752418200E+04  0.11752418200E+04  0.00000000000E+00 0. -1.
          1   -1    0    0  501    0 -0.00000000000E+00 -0.00000000000E+00 -0.78610178680E+02  0.78610178680E+02  0.00000000000E+00 0. -1.
         25    2    1    2    0    0 -0.77921385949E+02  0.73784279207E+02  0.11329228587E+03  0.19993944446E+03  0.12499910868E+03 0.  0.
          2    1    1    2  501    0 -0.21009795725E+02 -0.56746114274E+02 -0.47872282831E+01  0.60699675091E+02  0.00000000000E+00 0. -1.
          1    1    1    2  502    0  0.98931181674E+02 -0.17038164933E+02  0.98812658374E+03  0.99321287913E+03  0.00000000000E+00 0. -1.
         22    1    3    3    0    0 -0.97393832228E+02  0.11148277397E+02  0.79139554515E+02  0.12598774438E+03  0.00000000000E+00 0. -1.
         22    1    3    3    0    0  0.19472446278E+02  0.62636001809E+02  0.34152731351E+02  0.73951700085E+02  0.00000000000E+00 0. -1.
</event>
<event>
 7    1  0.5064652E-006  0.1042259E+03  0.7818608E-02  0.1399951E+00
          2   -1    0    0  502    0  0.00000000000E+00  0.00000000000E+00  0.19671201892E+03  0.19671201892E+03  0.00000000000E+00 0. -1.
          1   -1    0    0  501    0 -0.00000000000E+00 -0.00000000000E+00 -0.10356856913E+04  0.10356856913E+04  0.00000000000E+00 0. -1.
         25    2    1    2    0    0 -0.10046563885E+03  0.11505539553E+02 -0.17683060969E+03  0.23899822277E+03  0.12500145573E+03 0.  0.
          2    1    1    2  501    0  0.57243349667E+01  0.33478863065E+02 -0.81077729098E+03  0.81148839662E+03  0.00000000000E+00 0. -1.
          1    1    1    2  502    0  0.94741303881E+02 -0.44984402618E+02  0.14863422831E+03  0.18191109082E+03  0.00000000000E+00 0. -1.
         22    1    3    3    0    0 -0.19728628345E+02 -0.23500765353E+02  0.10171006973E+02  0.32325750284E+02  0.00000000000E+00 0. -1.
         22    1    3    3    0    0 -0.80737010503E+02  0.35006304906E+02 -0.18700161667E+03  0.20667247249E+03  0.00000000000E+00 0. -1.
</event>
<event>
 7    1  0.5064652E-006  0.1237515E+03  0.7818608E-02  0.1360697E+00
          2   -1    0    0  502    0  0.00000000000E+00  0.00000000000E+00  0.27563470988E+03  0.27563470988E+03  0.00000000000E+00 0. -1.
          1   -1    0    0  501    0 -0.00000000000E+00 -0.00000000000E+00 -0.10397762308E+04  0.10397762308E+04  0.00000000000E+00 0. -1.
         25    2    1    2    0    0 -0.53961855536E+02  0.13287865662E+03  0.70865691276E+02  0.20301804197E+03  0.12500303968E+03 0.  0.
          2    1    1    2  501    0 -0.13591680374E+02 -0.36976350849E+02 -0.94841345150E+03  0.94923129915E+03  0.00000000000E+00 0. -1.
          1    1    1    2  502    0  0.67553535910E+02 -0.95902305768E+02  0.11340623928E+03  0.16316159957E+03  0.00000000000E+00 0. -1.
         22    1    3    3    0    0 -0.33052184812E+02  0.15501100388E+03  0.50339277014E+02  0.16629762793E+03  0.00000000000E+00 0.  1.
         22    1    3    3    0    0 -0.20909670724E+02 -0.22132347261E+02  0.20526414263E+02  0.36720414044E+02  0.00000000000E+00 0.  1.
</event>
<event>
 7    1  0.5064652E-006  0.1432433E+03  0.7818608E-02  0.1356987E+00
          2   -1    0    0  502    0  0.00000000000E+00  0.00000000000E+00  0.62929746835E+03  0.62929746835E+03  0.00000000000E+00 0. -1.
          1   -1    0    0  501    0 -0.00000000000E+00 -0.00000000000E+00 -0.13583808037E+04  0.13583808037E+04  0.00000000000E+00 0. -1.
         25    2    1    2    0    0  0.99639366146E+02  0.11629408478E+03 -0.38371405177E+02  0.20136836038E+03  0.12499813754E+03 0.  0.
          2    1    1    2  501    0 -0.33581442242E+02  0.10260593736E+02 -0.12289551547E+04  0.12294566951E+04  0.00000000000E+00 0. -1.
          1    1    1    2  502    0 -0.66057923905E+02 -0.12655467851E+03  0.53824322453E+03  0.55685321649E+03  0.00000000000E+00 0. -1.
         22    1    3    3    0    0  0.94102228285E+02  0.51247533754E+02  0.25385387501E+02  0.11011792308E+03  0.00000000000E+00 0.  1.
         22    1    3    3    0    0  0.55371378610E+01  0.65046551023E+02 -0.63756792678E+02  0.91250437305E+02  0.00000000000E+00 0.  1.
</event>
<event>
 7    1  0.5064652E-006  0.6669727E+03  0.7818608E-02  0.1178008E+00
          2   -1    0    0  502    0  0.00000000000E+00  0.00000000000E+00  0.81444519673E+03  0.81444519673E+03  0.00000000000E+00 0. -1.
          1   -1    0    0  501    0 -0.00000000000E+00 -0.00000000000E+00 -0.94213275333E+03  0.94213275333E+03  0.00000000000E+00 0. -1.
         25    2    1    2    0    0  0.58077177848E+03 -0.28004307987E+03 -0.16719282768E+03  0.67771515233E+03  0.12499760321E+03 0.  0.
          2    1    1    2  501    0 -0.61401747739E+03  0.30770993435E+03 -0.29073072964E+03  0.74580642488E+03  0.00000000000E+00 0. -1.
          1    1    1    2  502    0  0.33245698909E+02 -0.27666854483E+02  0.33023600071E+03  0.33305637285E+03  0.00000000000E+00 0. -1.
         22    1    3    3    0    0  0.24407033345E+03 -0.51405269020E+02 -0.52807296390E+02  0.25495379955E+03  0.00000000000E+00 0. -1.
         22    1    3    3    0    0  0.33670144503E+03 -0.22863781085E+03 -0.11438553129E+03  0.42276135278E+03  0.00000000000E+00 0. -1.
</event>
<event>
 7    1  0.5064652E-006  0.1191214E+03  0.7818608E-02  0.1317758E+00
          2   -1    0    0  502    0  0.00000000000E+00  0.00000000000E+00  0.45712287970E+03  0.45712287970E+03  0.00000000000E+00 0. -1.
          1   -1    0    0  501    0 -0.00000000000E+00 -0.00000000000E+00 -0.32139487689E+04  0.32139487689E+04  0.00000000000E+00 0. -1.
         25    2    1    2    0    0  0.11335129018E+03 -0.10694767509E+02  0.20556361349E+02  0.17032707329E+03  0.12500341942E+03 0.  0.
          2    1    1    2  501    0 -0.13010243110E+02 -0.57956512902E+02 -0.31285564357E+04  0.31291202590E+04  0.00000000000E+00 0. -1.
          1    1    1    2  502    0 -0.10034104707E+03  0.68651280411E+02  0.35117418525E+03  0.37162431623E+03  0.00000000000E+00 0. -1.
         22    1    3    3    0    0  0.58275873729E+02 -0.24904520536E+02 -0.49264782957E+02  0.80270364655E+02  0.00000000000E+00 0.  1.
         22    1    3    3    0    0  0.55075416453E+02  0.14209753027E+02  0.69821144306E+02  0.90056708638E+02  0.00000000000E+00 0.  1.
</event>
<event>
 7    1  0.5064652E-006  0.4492876E+02  0.7818608E-02  0.1508012E+00
          2   -1    0    0  502    0  0.00000000000E+00  0.00000000000E+00  0.29247677107E+03  0.29247677107E+03  0.00000000000E+00 0. -1.
          1   -1    0    0  501    0 -0.00000000000E+00 -0.00000000000E+00 -0.27372382754E+03  0.27372382754E+03  0.00000000000E+00 0. -1.
         25    2    1    2    0    0 -0.14227516511E+02 -0.37567247364E+02 -0.91411477773E+02  0.15998604438E+03  0.12500302327E+03 0.  0.
          2    1    1    2  501    0  0.35586517465E+02 -0.22913080635E+01 -0.14385111640E+03  0.14820524285E+03  0.00000000000E+00 0. -1.
          1    1    1    2  502    0 -0.21359000954E+02  0.39858555427E+02  0.25401553770E+03  0.25800931138E+03  0.00000000000E+00 0. -1.
         22    1    3    3    0    0 -0.13561287460E+01  0.33638908986E+02 -0.79916853638E+02  0.86718618407E+02  0.00000000000E+00 0.  1.
         22    1    3    3    0    0 -0.12871387765E+02 -0.71206156349E+02 -0.11494624135E+02  0.73267425975E+02  0.00000000000E+00 0.  1.
</event>
<event>
 7    1  0.5064652E-006  0.3662731E+02  0.7818608E-02  0.1551499E+00
          2   -1    0    0  502    0  0.00000000000E+00  0.00000000000E+00  0.30521155470E+03  0.30521155470E+03  0.00000000000E+00 0. -1.
          1   -1    0    0  501    0 -0.00000000000E+00 -0.00000000000E+00 -0.14754590333E+03  0.14754590333E+03  0.00000000000E+00 0. -1.
         25    2    1    2    0    0 -0.57264946520E+02  0.37916458095E+02  0.19398748111E+03  0.24077429959E+03  0.12499675445E+03 0.  0.
          2    1    1    2  501    0  0.32053189034E+02 -0.16891315405E+02 -0.11827469381E+03  0.12369974398E+03  0.00000000000E+00 0. -1.
          1    1    1    2  502    0  0.25211757486E+02 -0.21025142690E+02  0.81952864067E+02  0.88283414464E+02  0.00000000000E+00 0. -1.
         22    1    3    3    0    0 -0.48299767880E+02  0.26168247492E+02  0.21111940607E+03  0.21814914250E+03  0.00000000000E+00 0.  1.
         22    1    3    3    0    0 -0.89651786399E+01  0.11748210603E+02 -0.17131924962E+02  0.22625157090E+02  0.00000000000E+00 0.  1.
</event>
<event>
 7    1  0.5064652E-006  0.7127990E+02  0.7818608E-02  0.1431501E+00
          2   -1    0    0  502    0  0.00000000000E+00  0.00000000000E+00  0.20271065029E+04  0.20271065029E+04  0.00000000000E+00 0. -1.
          1   -1    0    0  501    0 -0.00000000000E+00 -0.00000000000E+00 -0.16554145027E+02  0.16554145027E+02  0.00000000000E+00 0. -1.
         25    2    1    2    0    0  0.35082819409E+02  0.50116898873E+02  0.96246298053E+03  0.97247242446E+03  0.12500047869E+03 0.  0.
          2    1    1    2  501    0 -0.29147289002E+02  0.25767225609E+02  0.27210072207E+02  0.47475282003E+02  0.00000000000E+00 0. -1.
          1    1    1    2  502    0 -0.59355304068E+01 -0.75884124482E+02  0.10208793052E+04  0.10237129415E+04  0.00000000000E+00 0. -1.
         22    1    3    3    0    0  0.80181931355E+02  0.39553945368E+02  0.72871513732E+03  0.73417941136E+03  0.00000000000E+00 0.  1.
         22    1    3    3    0    0 -0.45099111946E+02  0.10562953504E+02  0.23374784321E+03  0.23829301310E+03  0.00000000000E+00 0.  1.
</event>
<event>
 7    1  0.5787548E-006  0.1529930E+03  0.7818608E-02  0.1234299E+00
          2   -1    0    0  502    0  0.00000000000E+00  0.00000000000E+00  0.27431180094E+04  0.27431180094E+04  0.00000000000E+00 0. -1.
          1   -1    0    0  501    0 -0.00000000000E+00 -0.00000000000E+00 -0.13010120492E+04  0.13010120492E+04  0.00000000000E+00 0. -1.
         25    2    1    2    0    0 -0.50388116163E+02 -0.10672855135E+03 -0.36044723923E+03  0.39934634461E+03  0.12500137903E+03 0.  0.
          2    1    1    2  501    0 -0.28648192639E+02  0.17267970484E+03 -0.91181511200E+03  0.92846421465E+03  0.00000000000E+00 0. -1.
          1    1    1    2  502    0  0.79036308802E+02 -0.65951153485E+02  0.27143683114E+04  0.27163194994E+04  0.00000000000E+00 0. -1.
         22    1    3    3    0    0 -0.84291137796E+02 -0.76322187611E+02 -0.31547619670E+03  0.33534355953E+03  0.00000000000E+00 0.  1.
         22    1    3    3    0    0  0.33903021633E+02 -0.30406363743E+02 -0.44971042534E+02  0.64002785084E+02  0.00000000000E+00 0.  1.
</event>
<event>
 7    1  0.5064652E-006  0.7481990E+02  0.7818608E-02  0.1407445E+00
          2   -1    0    0  502    0  0.00000000000E+00  0.00000000000E+00  0.17015618730E+03  0.17015618730E+03  0.00000000000E+00 0. -1.
          1   -1    0    0  501    0 -0.00000000000E+00 -0.00000000000E+00 -0.48718146048E+03  0.48718146048E+03  0.00000000000E+00 0. -1.
         25    2    1    2    0    0  0.52057615267E+02  0.38610006758E+02 -0.15636575301E+02  0.14166821514E+03  0.12499861106E+03 0.  0.
          2    1    1    2  501    0 -0.26709495317E+02  0.35720288985E+02 -0.39270388785E+03  0.39522864233E+03  0.00000000000E+00 0. -1.
          1    1    1    2  502    0 -0.25348119950E+02 -0.74330295743E+02  0.91315189977E+02  0.12044079031E+03  0.00000000000E+00 0. -1.
         22    1    3    3    0    0  0.74355063803E+02  0.11410822105E+02 -0.51712200976E+02  0.91285453957E+02  0.00000000000E+00 0. -1.
         22    1    3    3    0    0 -0.22297448536E+02  0.27199184653E+02  0.36075625675E+02  0.50382761187E+02  0.00000000000E+00 0. -1.
</event>
<event>
 7    1  0.5064652E-006  0.1357477E+03  0.7818608E-02  0.1298552E+00
          2   -1    0    0  502    0  0.00000000000E+00  0.00000000000E+00  0.17212742665E+04  0.17212742665E+04  0.00000000000E+00 0. -1.
          1   -1    0    0  501    0 -0.00000000000E+00 -0.00000000000E+00 -0.12634426602E+03  0.12634426602E+03  0.00000000000E+00 0. -1.
         25    2    1    2    0    0 -0.15059014419E+03 -0.12825069065E+02  0.34019542981E+03  0.39268280477E+03  0.12499992310E+03 0.  0.
          2    1    1    2  501    0  0.32394452650E+02 -0.52956679274E+02 -0.86735845482E+02  0.10666263326E+03  0.00000000000E+00 0. -1.
          1    1    1    2  502    0  0.11819569154E+03  0.65781748339E+02  0.13414704162E+04  0.13482730945E+04  0.00000000000E+00 0. -1.
         22    1    3    3    0    0 -0.13771754261E+03 -0.24503815072E+02  0.16365732059E+03  0.21529114491E+03  0.00000000000E+00 0.  1.
         22    1    3    3    0    0 -0.12872601579E+02  0.11678746007E+02  0.17653810921E+03  0.17739165985E+03  0.00000000000E+00 0.  1.
</event>
<event>
 7    1  0.5430234E-006  0.8434231E+02  0.7818608E-02  0.1333434E+00
          2   -1    0    0  502    0  0.00000000000E+00  0.00000000000E+00  0.37513931158E+03  0.37513931158E+03  0.00000000000E+00 0. -1.
          1   -1    0    0  501    0 -0.00000000000E+00 -0.00000000000E+00 -0.14483983905E+04  0.14483983905E+04  0.00000000000E+00 0. -1.
         25    2    1    2    0    0  0.35147816113E+02 -0.91686194064E+02 -0.36594516712E+03  0.39897433992E+03  0.12499172539E+03 0.  0.
          2    1    1    2  501    0  0.42875988928E+02  0.59102908051E+02 -0.10596809069E+04  0.10621935457E+04  0.00000000000E+00 0. -1.
          1    1    1    2  502    0 -0.78023805041E+02  0.32583286013E+02  0.35236699505E+03  0.36236981646E+03  0.00000000000E+00 0. -1.
         22    1    3    3    0    0 -0.44639524094E+02 -0.29314260684E+02 -0.85547824035E+02  0.10084861520E+03  0.00000000000E+00 0. -1.
         22    1    3    3    0    0  0.79787340206E+02 -0.62371933380E+02 -0.28039734308E+03  0.29812572472E+03  0.00000000000E+00 0. -1.
</event>
<event>
 7    1  0.5064652E-006  0.1315483E+03  0.7818608E-02  0.1299133E+00
          2   -1    0    0  502    0  0.00000000000E+00  0.00000000000E+00  0.11534515951E+03  0.11534515951E+03  0.00000000000E+00 0. -1.
          1   -1    0    0  501    0 -0.00000000000E+00 -0.00000000000E+00 -0.90107844001E+03  0.90107844001E+03  0.00000000000E+00 0. -1.
         25    2    1    2    0    0  0.83870074023E+02 -0.31900757656E+02 -0.11206312269E+03  0.19035310615E+03  0.12499725556E+03 0.  0.
          2    1    1    2  501    0 -0.10475273007E+03  0.92099809122E+02 -0.72866888554E+03  0.74189881658E+03  0.00000000000E+00 0. -1.
          1    1    1    2  502    0  0.20882656043E+02 -0.60199051466E+02  0.54998727729E+02  0.84171676784E+02  0.00000000000E+00 0. -1.
         22    1    3    3    0    0  0.45700090458E+02  0.44802418495E+02 -0.70210109864E+02  0.95001128930E+02  0.00000000000E+00 0.  1.
         22    1    3    3    0    0  0.38169983565E+02 -0.76703176151E+02 -0.41853012830E+02  0.95351977221E+02  0.00000000000E+00 0.  1.
</event>
<event>
 7    1  0.5064652E-006  0.1058957E+03  0.7818608E-02  0.1283792E+00
          2   -1    0    0  502    0  0.00000000000E+00  0.00000000000E+00  0.83089927710E+03  0.83089927710E+03  0.00000000000E+00 0. -1.
          1   -1    0    0  501    0 -0.00000000000E+00 -0.00000000000E+00 -0.72542320319E+03  0.72542320319E+03  0.00000000000E+00 0. -1.
         25    2    1    2    0    0  0.23188230428E+02  0.19241178154E+03 -0.79486147848E+01  0.23075507564E+03  0.12499894701E+03 0.  0.
          2    1    1    2  501    0 -0.13267411313E+02 -0.10159967910E+03 -0.59880251612E+03  0.60750553274E+03  0.00000000000E+00 0. -1.
          1    1    1    2  502    0 -0.99208191143E+01 -0.90812102434E+02  0.71222720482E+03  0.71806187191E+03  0.00000000000E+00 0. -1.
         22    1    3    3    0    0  0.12652076579E+02  0.10489914380E+03 -0.66583930975E+02  0.12488925204E+03  0.00000000000E+00 0.  1.
         22    1    3    3    0    0  0.10536153849E+02  0.87512637737E+02  0.58635316190E+02  0.10586582360E+03  0.00000000000E+00 0.  1.
</event>
<event>
 7    1  0.5064652E-006  0.1292413E+03  0.7818608E-02  0.1238665E+00
          2   -1    0    0  502    0  0.00000000000E+00  0.00000000000E+00  0.11693724439E+04  0.11693724439E+04  0.00000000000E+00 0. -1.
          1   -1    0    0  501    0 -0.00000000000E+00 -0.00000000000E+00 -0.11498265777E+03  0.11498265777E+03  0.00000000000E+00 0. -1.
         25    2    1    2    0    0  0.12311568087E+03 -0.15996821255E+03  0.52818771118E+03  0.57909843308E+03  0.12500174821E+03 0.  0.
          2    1    1    2  501    0 -0.14986966815E+02  0.11557286543E+03 -0.42967173596E+02  0.12420899486E+03  0.00000000000E+00 0. -1.
          1    1    1    2  502    0 -0.10812871406E+03  0.44395347122E+02  0.56916924853E+03  0.58104767371E+03  0.00000000000E+00 0. -1.
         22    1    3    3    0    0  0.79130588829E+02 -0.77419016851E+02  0.42778400178E+03  0.44187612114E+03  0.00000000000E+00 0.  1.
         22    1    3    3    0    0  0.43985092045E+02 -0.82549195696E+02  0.10040370940E+03  0.13722231194E+03  0.00000000000E+00 0.  1.
</event>
<event>
 7    1  0.5064652E-006  0.5559551E+02  0.7818608E-02  0.1421181E+00
          2   -1    0    0  502    0  0.00000000000E+00  0.00000000000E+00  0.22449006672E+04  0.22449006672E+04  0.00000000000E+00 0. -1.
          1   -1    0    0  501    0 -0.00000000000E+00 -0.00000000000E+00 -0.10338853490E+03  0.10338853490E+03  0.00000000000E+00 0. -1.
         25    2    1    2    0    0  0.89441274611E+02 -0.20976806080E+01  0.64149303974E+03  0.65965334785E+03  0.12500030973E+03 0.  0.
          2    1    1    2  501    0 -0.44842217302E+02  0.32472463286E+02 -0.85684026499E+02  0.10201488970E+03  0.00000000000E+00 0. -1.
          1    1    1    2  502    0 -0.44599057309E+02 -0.30374782678E+02  0.15857031190E+04  0.15866209645E+04  0.00000000000E+00 0. -1.
         22    1    3    3    0    0  0.71098317093E+02 -0.58117197825E+02  0.32530469025E+03  0.33801733813E+03  0.00000000000E+00 0. -1.
         22    1    3    3    0    0  0.18342957519E+02  0.56019517217E+02  0.31618834948E+03  0.32163600972E+03  0.00000000000E+00 0. -1.
</event>
<event>
 7    1  0.5064652E-006  0.4679516E+02  0.7818608E-02  0.1505965E+00
          2   -1    0    0  502    0  0.00000000000E+00  0.00000000000E+00  0.13423873393E+04  0.13423873393E+04  0.00000000000E+00 0. -1.
          1   -1    0    0  501    0 -0.00000000000E+00 -0.00000000000E+00 -0.10524762612E+03  0.10524762612E+03  0.00000000000E+00 0. -1.
         25    2    1    2    0    0  0.18400103967E+02  0.28696696450E+02  0.11270955519E+04  0.11345179056E+04  0.12499772308E+03 0.  0.
          2    1    1    2  501    0 -0.76423180573E+00  0.34709836886E+02 -0.93213917127E+02  0.99469548974E+02  0.00000000000E+00 0. -1.
          1    1    1    2  502    0 -0.17635872161E+02 -0.63406533336E+02  0.20325807842E+03  0.21364751087E+03  0.00000000000E+00 0. -1.
         22    1    3    3    0    0 -0.48371055407E+02  0.23716670997E+02  0.30677652058E+03  0.31147082217E+03  0.00000000000E+00 0.  1.
         22    1    3    3    0    0  0.66771159373E+02  0.49800254521E+01  0.82031903131E+03  0.82304708341E+03  0.00000000000E+00 0.  1.
</event>
<event>
 7    1  0.5064652E-006  0.5994216E+02  0.7818608E-02  0.1398636E+00
          2   -1    0    0  502    0  0.00000000000E+00  0.00000000000E+00  0.95159718446E+03  0.95159718446E+03  0.00000000000E+00 0. -1.
          1   -1    0    0  501    0 -0.00000000000E+00 -0.00000000000E+00 -0.15075862236E+04  0.15075862236E+04  0.00000000000E+00 0. -1.
         25    2    1    2    0    0 -0.39979554521E+01 -0.44272430453E+01 -0.31888571024E+02  0.12914144416E+03  0.12500019004E+03 0.  0.
          2    1    1    2  501    0  0.43265771051E+02 -0.41486573359E+02 -0.14254300529E+04  0.14266898396E+04  0.00000000000E+00 0. -1.
          1    1    1    2  502    0 -0.39267815599E+02  0.45913816404E+02  0.90132958484E+03  0.90335212425E+03  0.00000000000E+00 0. -1.
         22    1    3    3    0    0 -0.59530271438E+02  0.28236394330E+01 -0.41086660621E+02  0.72387428730E+02  0.00000000000E+00 0. -1.
         22    1    3    3    0    0  0.55532315986E+02 -0.72508824784E+01  0.91980895977E+01  0.56754015433E+02  0.00000000000E+00 0. -1.
</event>
<event>
 7    1  0.5064652E-006  0.1970490E+03  0.7818608E-02  0.1239292E+00
          2   -1    0    0  502    0  0.00000000000E+00  0.00000000000E+00  0.15283941106E+03  0.15283941106E+03  0.00000000000E+00 0. -1.
          1   -1    0    0  501    0 -0.00000000000E+00 -0.00000000000E+00 -0.13279135287E+04  0.13279135287E+04  0.00000000000E+00 0. -1.
         25    2    1    2    0    0  0.17929042916E+03  0.27889014281E+02 -0.53961563779E+02  0.22684745476E+03  0.12500024904E+03 0.  0.
          2    1    1    2  501    0  0.42247014780E+02 -0.63117769007E+02 -0.99235681044E+03  0.99525911312E+03  0.00000000000E+00 0. -1.
          1    1    1    2  502    0 -0.22153744394E+03  0.35228754726E+02 -0.12875574344E+03  0.25864637189E+03  0.00000000000E+00 0. -1.
         22    1    3    3    0    0  0.61300869111E+02  0.94152829891E+01  0.40932793155E+02  0.74309741373E+02  0.00000000000E+00 0.  1.
         22    1    3    3    0    0  0.11798956004E+03  0.18473731292E+02 -0.94894356933E+02  0.15253771339E+03  0.00000000000E+00 0.  1.
</event>
<event>
 7    1  0.5064652E-006  0.7628204E+02  0.7818608E-02  0.1341104E+00
          2   -1    0    0  502    0  0.00000000000E+00  0.00000000000E+00  0.18445444741E+04  0.18445444741E+04  0.00000000000E+00 0. -1.
          1   -1    0    0  501    0 -0.00000000000E+00 -0.00000000000E+00 -0.18902855114E+04  0.18902855114E+04  0.00000000000E+00 0. -1.
         25    2    1    2    0    0  0.78249185846E+02 -0.27330751929E+02  0.69461351816E+02  0.16528673233E+03  0.12499967760E+03 0.  0.
          2    1    1    2  501    0 -0.16934648055E+02  0.73598026212E+02 -0.18407441344E+04  0.18422927075E+04  0.00000000000E+00 0. -1.
          1    1    1    2  502    0 -0.61314537791E+02 -0.46267274284E+02  0.17255417452E+04  0.17272505457E+04  0.00000000000E+00 0. -1.
         22    1    3    3    0    0  0.50722516267E+02 -0.75904202514E+02  0.58391906245E+02  0.10836898233E+03  0.00000000000E+00 0. -1.
         22    1    3    3    0    0  0.27526669579E+02  0.48573450586E+02  0.11069445570E+02  0.56917750001E+02  0.00000000000E+00 0. -1.
</event>
<event>
 7    1  0.5064652E-006  0.2656692E+03  0.7818608E-02  0.1198467E+00
          2   -1    0    0  502    0  0.00000000000E+00  0.00000000000E+00  0.10756996424E+04  0.10756996424E+04  0.00000000000E+00 0. -1.
          1   -1    0    0  501    0 -0.00000000000E+00 -0.00000000000E+00 -0.22409777988E+03  0.22409777988E+03  0.00000000000E+00 0. -1.
         25    2    1    2    0    0  0.23219215294E+03  0.14975888300E+03  0.58996159077E+03  0.66334160896E+03  0.12500597052E+03 0.  0.
          2    1    1    2  501    0  0.20757017463E+02 -0.84032760739E+02 -0.13564834085E+03  0.16091249494E+03  0.00000000000E+00 0. -1.
          1    1    1    2  502    0 -0.25294917040E+03 -0.65726122264E+02  0.39728861256E+03  0.47554331834E+03  0.00000000000E+00 0. -1.
         22    1    3    3    0    0  0.16018999325E+03  0.16433548474E+03  0.45936152101E+03  0.51349780182E+03  0.00000000000E+00 0. -1.
         22    1    3    3    0    0  0.72002159686E+02 -0.14576601741E+02  0.13060006976E+03  0.14984380714E+03  0.00000000000E+00 0. -1.
</event>
<event>
 7    1  0.5064652E-006  0.9531892E+02  0.7818608E-02  0.1358817E+00
          2   -1    0    0  502    0  0.00000000000E+00  0.00000000000E+00  0.23363660763E+03  0.23363660763E+03  0.00000000000E+00 0. -1.
          1   -1    0    0  501    0 -0.00000000000E+00 -0.00000000000E+00 -0.22106067215E+04  0.22106067215E+04  0.00000000000E+00 0. -1.
         25    2    1    2    0    0  0.29286055433E+02  0.12703757338E+03 -0.48470072380E+03  0.51725819099E+03  0.12500010560E+03 0.  0.
          2    1    1    2  501    0  0.21730743782E+02 -0.47198550580E+02 -0.16988860263E+04  0.16996804578E+04  0.00000000000E+00 0. -1.
          1    1    1    2  502    0 -0.51016799215E+02 -0.79839022800E+02  0.20661663618E+03  0.22730468035E+03  0.00000000000E+00 0. -1.
         22    1    3    3    0    0  0.12591977232E+02  0.13454578957E+03 -0.27148038495E+03  0.30325356847E+03  0.00000000000E+00 0.  1.
         22    1    3    3    0    0  0.16694078201E+02 -0.75082161864E+01 -0.21322033885E+03  0.21400462251E+03  0.00000000000E+00 0.  1.
</event>
<event>
 7    1  0.5064652E-006  0.9377112E+02  0.7818608E-02  0.1324367E+00
          2   -1    0    0  502    0  0.00000000000E+00  0.00000000000E+00  0.18318718610E+03  0.18318718610E+03  0.00000000000E+00 0. -1.
          1   -1    0    0  501    0 -0.00000000000E+00 -0.00000000000E+00 -0.79167443082E+03  0.79167443082E+03  0.00000000000E+00 0. -1.
         25    2    1    2    0    0 -0.13764189520E+03 -0.24464864492E+02 -0.53966450893E+02  0.19514389711E+03  0.12499976739E+03 0.  0.
          2    1    1    2  501    0  0.52117492780E+02  0.48417915252E+02 -0.64734844236E+03  0.65124537111E+03  0.00000000000E+00 0. -1.
          1    1    1    2  502    0  0.85524402425E+02 -0.23953050760E+02  0.92827648530E+02  0.12847234871E+03  0.00000000000E+00 0. -1.
         22    1    3    3    0    0 -0.89518185390E+02  0.10908310710E+02  0.27362580706E+02  0.94240159067E+02  0.00000000000E+00 0.  1.
         22    1    3    3    0    0 -0.48123709815E+02 -0.35373175202E+02 -0.81329031599E+02  0.10090373804E+03  0.00000000000E+00 0.  1.
</event>
<event>
 7    1  0.5064652E-006  0.1286107E+03  0.7818608E-02  0.1358778E+00
          2   -1    0    0  502    0  0.00000000000E+00  0.00000000000E+00  0.64084393542E+03  0.64084393542E+03  0.00000000000E+00 0. -1.
          1   -1    0    0  501    0 -0.00000000000E+00 -0.00000000000E+00 -0.19718020298E+03  0.19718020298E+03  0.00000000000E+00 0. -1.
         25    2    1    2    0    0 -0.28510161695E+01  0.14792473622E+03  0.10814453003E+03  0.22183254591E+03  0.12499833266E+03 0.  0.
          2    1    1    2  501    0  0.31260087320E+02 -0.12190624562E+03 -0.11112441628E+03  0.16788973070E+03  0.00000000000E+00 0. -1.
          1    1    1    2  502    0 -0.28409071151E+02 -0.26018490602E+02  0.44664361869E+03  0.44830186180E+03  0.00000000000E+00 0. -1.
         22    1    3    3    0    0  0.16885286486E+02 -0.15194451734E+02  0.35581586996E+02  0.42214139769E+02  0.00000000000E+00 0.  1.
         22    1    3    3    0    0 -0.19736302655E+02  0.16311918795E+03  0.72562943036E+02  0.17961840614E+03  0.00000000000E+00 0.  1.
</event>
<event>
 7    1  0.5064652E-006  0.7501984E+02  0.7818608E-02  0.1360181E+00
          2   -1    0    0  502    0  0.00000000000E+00  0.00000000000E+00  0.19391186591E+04  0.19391186591E+04  0.00000000000E+00 0. -1.
          1   -1    0    0  501    0 -0.00000000000E+00 -0.00000000000E+00 -0.18005296303E+03  0.18005296303E+03  0.00000000000E+00 0. -1.
         25    2    1    2    0    0  0.19941227343E+02  0.52015457439E+02  0.25253377090E+03  0.28723183292E+03  0.12500224013E+03 0.  0.
          2    1    1    2  501    0 -0.74689456636E+02 -0.16484017880E+02 -0.15303780501E+03  0.17108713435E+03  0.00000000000E+00 0. -1.
          1    1    1    2  502    0  0.54748229293E+02 -0.35531439559E+02  0.16595697302E+04  0.16608526549E+04  0.00000000000E+00 0. -1.
         22    1    3    3    0    0  0.45797670652E+02 -0.21640211715E+02  0.15027930536E+03  0.15858623843E+03  0.00000000000E+00 0.  1.
         22    1    3    3    0    0 -0.25856443310E+02  0.73655669153E+02  0.10225446554E+03  0.12864559449E+03  0.00000000000E+00 0.  1.
</event>
<event>
 7    1  0.5064652E-006  0.1503856E+03  0.7818608E-02  0.1341210E+00
          2   -1    0    0  502    0  0.00000000000E+00  0.00000000000E+00  0.75152963044E+03  0.75152963044E+03  0.00000000000E+00 0. -1.
          1   -1    0    0  501    0 -0.00000000000E+00 -0.00000000000E+00 -0.14273785534E+04  0.14273785534E+04  0.00000000000E+00 0. -1.
         25    2    1    2    0    0 -0.13628144409E+03  0.35953382343E+02 -0.21550314851E+03  0.28623744555E+03  0.12499996204E+03 0.  0.
          2    1    1    2  501    0 -0.14541599884E+02 -0.35402603070E+02 -0.11682505051E+04  0.11688772583E+04  0.00000000000E+00 0. -1.
          1    1    1    2  502    0  0.15082304397E+03 -0.55077927328E+00  0.70790473065E+03  0.72379347995E+03  0.00000000000E+00 0. -1.
         22    1    3    3    0    0 -0.40353998679E+02 -0.44869354546E+02 -0.48778432945E+02  0.77595358800E+02  0.00000000000E+00 0. -1.
         22    1    3    3    0    0 -0.95927445411E+02  0.80822736889E+02 -0.16672471557E+03  0.20864208675E+03  0.00000000000E+00 0. -1.
</event>
<event>
 7    1  0.5064652E-006  0.1030915E+03  0.7818608E-02  0.1333712E+00
          2   -1    0    0  502    0  0.00000000000E+00  0.00000000000E+00  0.70685888905E+03  0.70685888905E+03  0.00000000000E+00 0. -1.
          1   -1    0    0  501    0 -0.00000000000E+00 -0.00000000000E+00 -0.14719618240E+03  0.14719618240E+03  0.00000000000E+00 0. -1.
         25    2    1    2    0    0  0.14108691542E+03  0.60561114852E+02  0.22447667168E+03  0.29931196053E+03  0.12499882899E+03 0.  0.
          2    1    1    2  501    0 -0.96731254376E+02 -0.20763989628E+02 -0.84950129900E+02  0.13040170017E+03  0.00000000000E+00 0. -1.
          1    1    1    2  502    0 -0.44355661040E+02 -0.39797125224E+02  0.42013616487E+03  0.42434141074E+03  0.00000000000E+00 0. -1.
         22    1    3    3    0    0  0.12746759790E+03  0.94012210229E+02  0.20230908755E+03  0.25693433225E+03  0.00000000000E+00 0. -1.
         22    1    3    3    0    0  0.13619317520E+02 -0.33451095376E+02  0.22167584137E+02  0.42377628273E+02  0.00000000000E+00 0. -1.
</event>
<event>
 7    1  0.5064652E-006  0.9198616E+02  0.7818608E-02  0.1417270E+00
          2   -1    0    0  502    0  0.00000000000E+00  0.00000000000E+00  0.51678106590E+03  0.51678106590E+03  0.00000000000E+00 0. -1.
          1   -1    0    0  501    0 -0.00000000000E+00 -0.00000000000E+00 -0.14035481139E+03  0.14035481139E+03  0.00000000000E+00 0. -1.
         25    2    1    2    0    0 -0.38108900172E+02  0.54872021371E+02  0.16460706309E+03  0.21721949257E+03  0.12500238291E+03 0.  0.
          2    1    1    2  501    0 -0.10007473609E+02  0.32085479627E+02 -0.10375510397E+03  0.10906305117E+03  0.00000000000E+00 0. -1.
          1    1    1    2  502    0  0.48116373781E+02 -0.86957500998E+02  0.31557429540E+03  0.33085333355E+03  0.00000000000E+00 0. -1.
         22    1    3    3    0    0  0.27702969896E+01 -0.28278567720E+01  0.14331557621E+03  0.14337023995E+03  0.00000000000E+00 0.  1.
         22    1    3    3    0    0 -0.40879197162E+02  0.57699878143E+02  0.21291486873E+02  0.73849252614E+02  0.00000000000E+00 0.  1.
</event>
<event>
 7    1  0.5064652E-006  0.8061693E+02  0.7818608E-02  0.1367713E+00
          2   -1    0    0  502    0  0.00000000000E+00  0.00000000000E+00  0.80662074575E+03  0.80662074575E+03  0.00000000000E+00 0. -1.
          1   -1    0    0  501    0 -0.00000000000E+00 -0.00000000000E+00 -0.78337438002E+02  0.78337438002E+02  0.00000000000E+00 0. -1.
         25    2    1    2    0    0  0.41597218550E+02 -0.26228409112E+02  0.59104378233E+03  0.60611553214E+03  0.12500011052E+03 0.  0.
          2    1    1    2  501    0 -0.21585549288E+02  0.79634903554E+02 -0.40689809711E+02  0.91996273927E+02  0.00000000000E+00 0. -1.
          1    1    1    2  502    0 -0.20011669262E+02 -0.53406494442E+02  0.17792933513E+03  0.18684637769E+03  0.00000000000E+00 0. -1.
         22    1    3    3    0    0 -0.27674986298E+02 -0.33877436014E+02  0.40655764494E+03  0.40890427265E+03  0.00000000000E+00 0.  1.
         22    1    3    3    0    0  0.69272204848E+02  0.76490269015E+01  0.18448613740E+03  0.19721125949E+03  0.00000000000E+00 0.  1.
</event>
<event>
 7    1  0.5064652E-006  0.1215664E+03  0.7818608E-02  0.1256472E+00
          2   -1    0    0  502    0  0.00000000000E+00  0.00000000000E+00  0.93418071258E+02  0.93418071258E+02  0.00000000000E+00 0. -1.
          1   -1    0    0  501    0 -0.00000000000E+00 -0.00000000000E+00 -0.11054319558E+04  0.11054319558E+04  0.00000000000E+00 0. -1.
         25    2    1    2    0    0  0.46591951905E+02  0.18637087130E+03 -0.22602700698E+03  0.32189367566E+03  0.12498967515E+03 0.  0.
          2    1    1    2  501    0 -0.77415154396E+02 -0.87426480957E+02 -0.76158800977E+03  0.77048867113E+03  0.00000000000E+00 0. -1.
          1    1    1    2  502    0  0.30823202491E+02 -0.98944390342E+02 -0.24398867780E+02  0.10646768026E+03  0.00000000000E+00 0. -1.
         22    1    3    3    0    0  0.11347938530E+02  0.47398884711E+02 -0.15383779972E+03  0.16137378536E+03  0.00000000000E+00 0.  1.
         22    1    3    3    0    0  0.35244013375E+02  0.13897198659E+03 -0.72189207259E+02  0.16051989029E+03  0.00000000000E+00 0.  1.
</event>
<event>
 7    1  0.5064652E-006  0.2585880E+03  0.7818608E-02  0.1341739E+00
          2   -1    0    0  502    0  0.00000000000E+00  0.00000000000E+00  0.42992449172E+03  0.42992449172E+03  0.00000000000E+00 0. -1.
          1   -1    0    0  501    0 -0.00000000000E+00 -0.00000000000E+00 -0.73534637138E+03  0.73534637138E+03  0.00000000000E+00 0. -1.
         25    2    1    2    0    0 -0.17147198060E+03  0.19956867367E+03 -0.22542748528E+03  0.36833731084E+03  0.12499811117E+03 0.  0.
          2    1    1    2  501    0  0.18243414638E+03 -0.18031411448E+03 -0.40053409461E+03  0.47562901362E+03  0.00000000000E+00 0. -1.
          1    1    1    2  502    0 -0.10962165782E+02 -0.19254559187E+02  0.32053970024E+03  0.32130453865E+03  0.00000000000E+00 0. -1.
         22    1    3    3    0    0 -0.14433407924E+03  0.13654210983E+03 -0.93404844476E+02  0.21954621190E+03  0.00000000000E+00 0.  1.
         22    1    3    3    0    0 -0.27137901356E+02  0.63026563842E+02 -0.13202264080E+03  0.14879109894E+03  0.00000000000E+00 0.  1.
</event>
<event>
 7    1  0.5064652E-006  0.5982191E+02  0.7818608E-02  0.1538632E+00
          2   -1    0    0  502    0  0.00000000000E+00  0.00000000000E+00  0.18538665468E+03  0.18538665468E+03  0.00000000000E+00 0. -1.
          1   -1    0    0  501    0 -0.00000000000E+00 -0.00000000000E+00 -0.62278881716E+03  0.62278881716E+03  0.00000000000E+00 0. -1.
         25    2    1    2    0    0 -0.38176419265E+02  0.32582201139E+01 -0.34757875084E+03  0.37135445117E+03  0.12500034153E+03 0.  0.
          2    1    1    2  501    0 -0.21617656050E+02  0.31324755478E+01 -0.25763547428E+03  0.25855980559E+03  0.00000000000E+00 0. -1.
          1    1    1    2  502    0  0.59794075314E+02 -0.63906956616E+01  0.16781206265E+03  0.17826121509E+03  0.00000000000E+00 0. -1.
         22    1    3    3    0    0  0.20885779189E+01  0.60491328129E+02 -0.17236068863E+03  0.18267941844E+03  0.00000000000E+00 0. -1.
         22    1    3    3    0    0 -0.40264997184E+02 -0.57233108015E+02 -0.17521806220E+03  0.18867503272E+03  0.00000000000E+00 0. -1.
</event>
<event>
 7    1  0.5064652E-006  0.1123909E+03  0.7818608E-02  0.1347605E+00
          2   -1    0    0  502    0  0.00000000000E+00  0.00000000000E+00  0.11075013632E+04  0.11075013632E+04  0.00000000000E+00 0. -1.
          1   -1    0    0  501    0 -0.00000000000E+00 -0.00000000000E+00 -0.32583799003E+03  0.32583799003E+03  0.00000000000E+00 0. -1.
         25    2    1    2    0    0  0.14088238297E+03  0.52057729078E+02  0.24712050310E+03  0.31504208794E+03  0.12500048455E+03 0.  0.
          2    1    1    2  501    0 -0.48236873028E+02  0.47392353613E+01 -0.28625881684E+03  0.29033319908E+03  0.00000000000E+00 0. -1.
          1    1    1    2  502    0 -0.92645509938E+02 -0.56796964439E+02  0.82080168693E+03  0.82796406621E+03  0.00000000000E+00 0. -1.
         22    1    3    3    0    0  0.92457841218E+02  0.89618573681E+02  0.13068075311E+03  0.18345953337E+03  0.00000000000E+00 0.  1.
         22    1    3    3    0    0  0.48424541748E+02 -0.37560844604E+02  0.11643974999E+03  0.13158255457E+03  0.00000000000E+00 0.  1.
</event>
<event>
 7    1  0.7612514E-006  0.9837525E+02  0.7818608E-02  0.1363711E+00
          2   -1    0    0  502    0  0.00000000000E+00  0.00000000000E+00  0.58033180634E+03  0.58033180634E+03  0.00000000000E+00 0. -1.
          1   -1    0    0  501    0 -0.00000000000E+00 -0.00000000000E+00 -0.27017560624E+04  0.27017560624E+04  0.00000000000E+00 0. -1.
         25    2    1    2    0    0  0.29650742782E+02  0.78016074307E+02 -0.10241503665E+04  0.10351204809E+04  0.12499904929E+03 0.  0.
          2    1    1    2  501    0 -0.44268344177E+02  0.19373165022E+02 -0.16675502844E+04  0.16682502681E+04  0.00000000000E+00 0. -1.
          1    1    1    2  502    0  0.14617601395E+02 -0.97389239329E+02  0.57027639487E+03  0.57871711980E+03  0.00000000000E+00 0. -1.
         22    1    3    3    0    0 -0.41039569613E+02  0.59800605463E+02 -0.38112275262E+03  0.38796251269E+03  0.00000000000E+00 0.  1.
         22    1    3    3    0    0  0.70690312395E+02  0.18215468844E+02 -0.64302761389E+03  0.64715796819E+03  0.00000000000E+00 0.  1.
</event>
<event>
 7    1  0.5064652E-006  0.6580727E+02  0.7818608E-02  0.1408527E+00
          2   -1    0    0  502    0  0.00000000000E+00  0.00000000000E+00  0.21623819504E+03  0.21623819504E+03  0.00000000000E+00 0. -1.
          1   -1    0    0  501    0 -0.00000000000E+00 -0.00000000000E+00 -0.96994878089E+03  0.96994878089E+03  0.00000000000E+00 0. -1.
         25    2    1    2    0    0  0.55753229515E+02 -0.46780618624E+02 -0.11406933729E+03  0.18419827721E+03  0.12498136956E+03 0.  0.
          2    1    1    2  501    0 -0.66189233249E+02 -0.24073686326E+01 -0.81595820754E+03  0.81864192812E+03  0.00000000000E+00 0. -1.
          1    1    1    2  502    0  0.10436003734E+02  0.49187987257E+02  0.17631695898E+03  0.18334677060E+03  0.00000000000E+00 0. -1.
         22    1    3    3    0    0  0.63304785269E+02 -0.82062142317E+02 -0.10380203875E+03  0.14668522178E+03  0.00000000000E+00 0. -1.
         22    1    3    3    0    0 -0.75515557541E+01  0.35281523693E+02 -0.10267298540E+02  0.37513055431E+02  0.00000000000E+00 0. -1.
</event>
<event>
 7    1  0.5064652E-006  0.1054555E+03  0.7818608E-02  0.1311657E+00
          2   -1    0    0  502    0  0.00000000000E+00  0.00000000000E+00  0.30269689290E+04  0.30269689290E+04  0.00000000000E+00 0. -1.
          1   -1    0    0  501    0 -0.00000000000E+00 -0.00000000000E+00 -0.62403710948E+02  0.62403710948E+02  0.00000000000E+00 0. -1.
         25    2    1    2    0    0  0.72826316439E+02 -0.40659341355E+02  0.85582640893E+03  0.86891947426E+03  0.12500142450E+03 0.  0.
          2    1    1    2  501    0  0.39939614033E+02  0.58564012955E+02 -0.31215277912E+02  0.77455212592E+02  0.00000000000E+00 0. -1.
          1    1    1    2  502    0 -0.11276593047E+03 -0.17904671601E+02  0.21399540870E+04  0.21429979531E+04  0.00000000000E+00 0. -1.
         22    1    3    3    0    0  0.10141363589E+03 -0.78496530762E+01  0.69095051325E+03  0.69839741864E+03  0.00000000000E+00 0. -1.
         22    1    3    3    0    0 -0.28587319455E+02 -0.32809688279E+02  0.16487589567E+03  0.17052205562E+03  0.00000000000E+00 0. -1.
</event>
<event>
 7    1  0.5064652E-006  0.1013839E+03  0.7818608E-02  0.1343328E+00
          2   -1    0    0  502    0  0.00000000000E+00  0.00000000000E+00  0.29738165256E+04  0.29738165256E+04  0.00000000000E+00 0. -1.
          1   -1    0    0  501    0 -0.00000000000E+00 -0.00000000000E+00 -0.11813355570E+03  0.11813355570E+03  0.00000000000E+00 0. -1.
         25    2    1    2    0    0  0.56896641836E+01  0.79401182464E+02  0.68654114297E+03  0.70235402129E+03  0.12500204072E+03 0.  0.
          2    1    1    2  501    0 -0.61363166015E+02 -0.82174175099E+02 -0.85952562683E+02  0.13381284030E+03  0.00000000000E+00 0. -1.
          1    1    1    2  502    0  0.55673501832E+02  0.27729926348E+01  0.22550943896E+04  0.22557832197E+04  0.00000000000E+00 0. -1.
         22    1    3    3    0    0 -0.10319385803E+02  0.82553889708E+02  0.21507297411E+03  0.23060359629E+03  0.00000000000E+00 0. -1.
         22    1    3    3    0    0  0.16009049987E+02 -0.31527072438E+01  0.47146816886E+03  0.47175042501E+03  0.00000000000E+00 0. -1.
</event>
<event>
 7    1  0.5064652E-006  0.8599839E+02  0.7818608E-02  0.1432141E+00
          2   -1    0    0  502    0  0.00000000000E+00  0.00000000000E+00  0.48777414370E+03  0.48777414370E+03  0.00000000000E+00 0. -1.
          1   -1    0    0  501    0 -0.00000000000E+00 -0.00000000000E+00 -0.16685770494E+03  0.16685770494E+03  0.00000000000E+00 0. -1.
         25    2    1    2    0    0  0.36221231587E+02 -0.91596521828E+02 -0.14859646611E+02  0.15982780214E+03  0.12498886674E+03 0.  0.
          2    1    1    2  501    0  0.18793874888E+02  0.26010582199E+02 -0.71636238785E+02  0.78495291750E+02  0.00000000000E+00 0. -1.
          1    1    1    2  502    0 -0.55015106474E+02  0.65585939629E+02  0.40741232415E+03  0.41630875476E+03  0.00000000000E+00 0. -1.
         22    1    3    3    0    0  0.47463638641E+01 -0.93584742962E+02  0.35669406743E+02  0.10026434392E+03  0.00000000000E+00 0. -1.
         22    1    3    3    0    0  0.31474867722E+02  0.19882211340E+01 -0.50529053354E+02  0.59563458213E+02  0.00000000000E+00 0. -1.
</event>
<event>
 7    1  0.5064652E-006  0.1158201E+03  0.7818608E-02  0.1364808E+00
          2   -1    0    0  502    0  0.00000000000E+00  0.00000000000E+00  0.11022418869E+04  0.11022418869E+04  0.00000000000E+00 0. -1.
          1   -1    0    0  501    0 -0.00000000000E+00 -0.00000000000E+00 -0.10359717626E+03  0.10359717626E+03  0.00000000000E+00 0. -1.
         25    2    1    2    0    0  0.14888152714E+03 -0.33875274449E+01  0.40839495563E+03  0.45231568852E+03  0.12500343127E+03 0.  0.
          2    1    1    2  501    0 -0.40175583758E+02 -0.63182587477E+01 -0.71810838315E+02  0.82527537364E+02  0.00000000000E+00 0. -1.
          1    1    1    2  502    0 -0.10870594338E+03  0.97057861926E+01  0.66206059336E+03  0.67099583732E+03  0.00000000000E+00 0. -1.
         22    1    3    3    0    0  0.15798241691E+03  0.24670489704E+01  0.26510864002E+03  0.30862132363E+03  0.00000000000E+00 0.  1.
         22    1    3    3    0    0 -0.91008897748E+01 -0.58545764153E+01  0.14328631561E+03  0.14369436489E+03  0.00000000000E+00 0.  1.
</event>
<event>
 7    1  0.5064652E-006  0.7851026E+02  0.7818608E-02  0.1339020E+00
          2   -1    0    0  502    0  0.00000000000E+00  0.00000000000E+00  0.19084306253E+04  0.19084306253E+04  0.00000000000E+00 0. -1.
          1   -1    0    0  501    0 -0.00000000000E+00 -0.00000000000E+00 -0.34172470909E+03  0.34172470909E+03  0.00000000000E+00 0. -1.
         25    2    1    2    0    0  0.33686618657E+00  0.14753575992E+02  0.46767782691E+03  0.48431967619E+03  0.12500086990E+03 0.  0.
          2    1    1    2  501    0 -0.72694732460E+02  0.29653611536E+02 -0.32750227539E+03  0.33678123640E+03  0.00000000000E+00 0. -1.
          1    1    1    2  502    0  0.72357866273E+02 -0.44407187528E+02  0.14265303647E+04  0.14290544218E+04  0.00000000000E+00 0. -1.
         22    1    3    3    0    0 -0.40564351072E+02  0.48745522234E+02  0.16053816768E+03  0.17260966310E+03  0.00000000000E+00 0.  1.
         22    1    3    3    0    0  0.40901217258E+02 -0.33991946242E+02  0.30713965923E+03  0.31171001308E+03  0.00000000000E+00 0.  1.
</event>
<event>
 7    1  0.5064652E-006  0.4257114E+02  0.7818608E-02  0.1593252E+00
          2   -1    0    0  502    0  0.00000000000E+00  0.00000000000E+00  0.62445946299E+03  0.62445946299E+03  0.00000000000E+00 0. -1.
          1   -1    0    0  501    0 -0.00000000000E+00 -0.00000000000E+00 -0.11213664622E+03  0.11213664622E+03  0.00000000000E+00 0. -1.
         25    2    1    2    0    0  0.38016944554E+02  0.23373588908E+02  0.32005636553E+02  0.13653181507E+03  0.12499985210E+03 0.  0.
          2    1    1    2  501    0 -0.42790407795E+02 -0.21345259273E+01 -0.51958107635E+02  0.67344043161E+02  0.00000000000E+00 0. -1.
          1    1    1    2  502    0  0.47734632409E+01 -0.21239062980E+02  0.53227528784E+03  0.53272025097E+03  0.00000000000E+00 0. -1.
         22    1    3    3    0    0  0.17506716968E+02 -0.23485043595E+02 -0.39152211658E+02  0.48897117393E+02  0.00000000000E+00 0. -1.
         22    1    3    3    0    0  0.20510227587E+02  0.46858632502E+02  0.71157848211E+02  0.87634697681E+02  0.00000000000E+00 0. -1.
</event>
<event>
 7    1  0.5064652E-006  0.7282311E+02  0.7818608E-02  0.1362352E+00
          2   -1    0    0  502    0  0.00000000000E+00  0.00000000000E+00  0.55045389256E+03  0.55045389256E+03  0.00000000000E+00 0. -1.
          1   -1    0    0  501    0 -0.00000000000E+00 -0.00000000000E+00 -0.23756195323E+04  0.23756195323E+04  0.00000000000E+00 0. -1.
         25    2    1    2    0    0  0.15003363859E+02 -0.11343050870E+03  0.64319598114E+02  0.18125455093E+03  0.12499848119E+03 0.  0.
          2    1    1    2  501    0  0.30734897076E+02  0.58433131825E+02 -0.23136867910E+04  0.23146286164E+04  0.00000000000E+00 0. -1.
          1    1    1    2  502    0 -0.45738260935E+02  0.54997376877E+02  0.42420155317E+03  0.43019025755E+03  0.00000000000E+00 0. -1.
         22    1    3    3    0    0  0.20650475162E+02 -0.13994801205E+03  0.60567254776E+02  0.15388398407E+03  0.00000000000E+00 0.  1.
         22    1    3    3    0    0 -0.56471113024E+01  0.26517503349E+02  0.37523433383E+01  0.27370566864E+02  0.00000000000E+00 0.  1.
</event>
<event>
 7    1  0.5064652E-006  0.9898957E+02  0.7818608E-02  0.1462833E+00
          2   -1    0    0  502    0  0.00000000000E+00  0.00000000000E+00  0.18075397695E+04  0.18075397695E+04  0.00000000000E+00 0. -1.
          1   -1    0    0  501    0 -0.00000000000E+00 -0.00000000000E+00 -0.63219617652E+03  0.63219617652E+03  0.00000000000E+00 0. -1.
         25    2    1    2    0    0  0.43875912642E+02 -0.76226651820E+02  0.59109166638E+02  0.16387432871E+03  0.12500121548E+03 0.  0.
          2    1    1    2  501    0  0.22129868875E+02  0.19782661332E+01 -0.57814523907E+03  0.57857200251E+03  0.00000000000E+00 0. -1.
          1    1    1    2  502    0 -0.66005781517E+02  0.74248385687E+02  0.16943796654E+04  0.16972896148E+04  0.00000000000E+00 0. -1.
         22    1    3    3    0    0  0.96765147939E+01  0.13747364120E+02 -0.28910294114E+02  0.33442937439E+02  0.00000000000E+00 0.  1.
         22    1    3    3    0    0  0.34199397848E+02 -0.89974015940E+02  0.88019460752E+02  0.13043139127E+03  0.00000000000E+00 0.  1.
</event>
<event>
 7    1  0.5064652E-006  0.9941073E+02  0.7818608E-02  0.1294677E+00
          2   -1    0    0  502    0  0.00000000000E+00  0.00000000000E+00  0.10114222348E+03  0.10114222348E+03  0.00000000000E+00 0. -1.
          1   -1    0    0  501    0 -0.00000000000E+00 -0.00000000000E+00 -0.16602892428E+04  0.16602892428E+04  0.00000000000E+00 0. -1.
         25    2    1    2    0    0 -0.13907347339E+03 -0.34466468765E+02 -0.42420571988E+03  0.46486937262E+03  0.12499468931E+03 0.  0.
          2    1    1    2  501    0  0.77255642818E+02 -0.41865941908E+02 -0.11836613702E+04  0.11869184600E+04  0.00000000000E+00 0. -1.
          1    1    1    2  502    0  0.61817830577E+02  0.76332410674E+02  0.48720070768E+02  0.10964363361E+03  0.00000000000E+00 0. -1.
         22    1    3    3    0    0 -0.71778629360E+02 -0.46385000341E+02 -0.36365442037E+03  0.37356161118E+03  0.00000000000E+00 0.  1.
         22    1    3    3    0    0 -0.67294844035E+02  0.11918531576E+02 -0.60551299505E+02  0.91307761446E+02  0.00000000000E+00 0.  1.
</event>
<event>
 7    1  0.5064652E-006  0.1393787E+03  0.7818608E-02  0.1412915E+00
          2   -1    0    0  502    0  0.00000000000E+00  0.00000000000E+00  0.10302226252E+04  0.10302226252E+04  0.00000000000E+00 0. -1.
          1   -1    0    0  501    0 -0.00000000000E+00 -0.00000000000E+00 -0.18187344120E+04  0.18187344120E+04  0.00000000000E+00 0. -1.
         25    2    1    2    0    0 -0.14864918035E+03  0.20160280801E+01 -0.82547904987E+02  0.21104520954E+03  0.12500112265E+03 0.  0.
          2    1    1    2  501    0  0.10739098789E+02 -0.20274018374E+02 -0.16668499457E+04  0.16670078301E+04  0.00000000000E+00 0. -1.
          1    1    1    2  502    0  0.13791008156E+03  0.18257990294E+02  0.96088606391E+03  0.97090399764E+03  0.00000000000E+00 0. -1.
         22    1    3    3    0    0 -0.53504305484E+02  0.58236827872E+02 -0.57364873667E+02  0.97698349816E+02  0.00000000000E+00 0. -1.
         22    1    3    3    0    0 -0.95144874866E+02 -0.56220799792E+02 -0.25183031320E+02  0.11334685972E+03  0.00000000000E+00 0. -1.
</event>
<event>
 7    1  0.5064652E-006  0.4222339E+02  0.7818608E-02  0.1502940E+00
          2   -1    0    0  502    0  0.00000000000E+00  0.00000000000E+00  0.17368647481E+03  0.17368647481E+03  0.00000000000E+00 0. -1.
          1   -1    0    0  501    0 -0.00000000000E+00 -0.00000000000E+00 -0.17699234591E+04  0.17699234591E+04  0.00000000000E+00 0. -1.
         25    2    1    2    0    0 -0.38055344958E+02  0.34339198652E+01 -0.16410090690E+03  0.20979526599E+03  0.12499977961E+03 0.  0.
          2    1    1    2  501    0  0.18756223873E+02  0.34513333971E+02 -0.15797224150E+04  0.15802107057E+04  0.00000000000E+00 0. -1.
          1    1    1    2  502    0  0.19299121085E+02 -0.37947253836E+02  0.14758633759E+03  0.15360396216E+03  0.00000000000E+00 0. -1.
         22    1    3    3    0    0 -0.52319762372E+02 -0.35642520943E+02 -0.31280781333E+02  0.70613271519E+02  0.00000000000E+00 0. -1.
         22    1    3    3    0    0  0.14264417414E+02  0.39076440808E+02 -0.13282012556E+03  0.13918199447E+03  0.00000000000E+00 0. -1.
</event>
<event>
 7    1  0.5064652E-006  0.5101848E+02  0.7818608E-02  0.1458294E+00
          2   -1    0    0  502    0  0.00000000000E+00  0.00000000000E+00  0.31775563303E+03  0.31775563303E+03  0.00000000000E+00 0. -1.
          1   -1    0    0  501    0 -0.00000000000E+00 -0.00000000000E+00 -0.14306409755E+03  0.14306409755E+03  0.00000000000E+00 0. -1.
         25    2    1    2    0    0  0.77243890004E+02  0.17213372564E+02 -0.67723528584E+00  0.14794906402E+03  0.12500219262E+03 0.  0.
          2    1    1    2  501    0 -0.29509494924E+02 -0.33378846218E+02 -0.58556181988E+02  0.73578421527E+02  0.00000000000E+00 0. -1.
          1    1    1    2  502    0 -0.47734395081E+02  0.16165473654E+02  0.23392495275E+03  0.23929224503E+03  0.00000000000E+00 0. -1.
         22    1    3    3    0    0  0.18251150715E+02  0.31197422430E+02 -0.55485808628E+02  0.66219775202E+02  0.00000000000E+00 0. -1.
         22    1    3    3    0    0  0.58992739289E+02 -0.13984049867E+02  0.54808573342E+02  0.81729288821E+02  0.00000000000E+00 0. -1.
</event>
<event>
 7    1  0.5064652E-006  0.3891043E+02  0.7818608E-02  0.1527665E+00
          2   -1    0    0  502    0  0.00000000000E+00  0.00000000000E+00  0.88892817760E+03  0.88892817760E+03  0.00000000000E+00 0. -1.
          1   -1    0    0  501    0 -0.00000000000E+00 -0.00000000000E+00 -0.17893015901E+03  0.17893015901E+03  0.00000000000E+00 0. -1.
         25    2    1    2    0    0 -0.28040206107E+02 -0.37362647725E+02  0.89554439125E+02  0.16070833391E+03  0.12499980167E+03 0.  0.
          2    1    1    2  501    0  0.36082034909E+02 -0.82126128521E+00 -0.14057373795E+03  0.14513291672E+03  0.00000000000E+00 0. -1.
          1    1    1    2  502    0 -0.80418288017E+01  0.38183909010E+02  0.76101731742E+03  0.76201708598E+03  0.00000000000E+00 0. -1.
         22    1    3    3    0    0  0.16833830923E+02  0.37586270125E+02  0.50103921688E+02  0.64857601975E+02  0.00000000000E+00 0. -1.
         22    1    3    3    0    0 -0.44874037030E+02 -0.74948917850E+02  0.39450517437E+02  0.95850731934E+02  0.00000000000E+00 0. -1.
</event>
<event>
 7    1  0.5064652E-006  0.9478462E+02  0.7818608E-02  0.1318103E+00
          2   -1    0    0  502    0  0.00000000000E+00  0.00000000000E+00  0.80140707832E+02  0.80140707832E+02  0.00000000000E+00 0. -1.
          1   -1    0    0  501    0 -0.00000000000E+00 -0.00000000000E+00 -0.19206402666E+04  0.19206402666E+04  0.00000000000E+00 0. -1.
         25    2    1    2    0    0  0.82093403632E+02 -0.53564052702E+02 -0.41000773143E+03  0.43970578385E+03  0.12500560731E+03 0.  0.
          2    1    1    2  501    0 -0.20339767068E+02  0.95093964774E+02 -0.14724398525E+04  0.14756475485E+04  0.00000000000E+00 0. -1.
          1    1    1    2  502    0 -0.61753636564E+02 -0.41529912071E+02  0.41948025104E+02  0.85427642105E+02  0.00000000000E+00 0. -1.
         22    1    3    3    0    0  0.40048520327E+02  0.37825262500E+02 -0.10557436250E+03  0.11908224251E+03  0.00000000000E+00 0.  1.
         22    1    3    3    0    0  0.42044883306E+02 -0.91389315202E+02 -0.30443336892E+03  0.32062354134E+03  0.00000000000E+00 0.  1.
</event>
<event>
 7    1  0.5064652E-006  0.7096892E+02  0.7818608E-02  0.1447575E+00
          2   -1    0    0  502    0  0.00000000000E+00  0.00000000000E+00  0.52071356678E+02  0.52071356678E+02  0.00000000000E+00 0. -1.
          1   -1    0    0  501    0 -0.00000000000E+00 -0.00000000000E+00 -0.10015326665E+04  0.10015326665E+04  0.00000000000E+00 0. -1.
         25    2    1    2    0    0  0.33833644262E+02 -0.38757291073E+02 -0.12954946168E+03  0.18722880144E+03  0.12499887188E+03 0.  0.
          2    1    1    2  501    0  0.34432080589E+02 -0.38706754322E+01 -0.77186508453E+03  0.77264238754E+03  0.00000000000E+00 0. -1.
          1    1    1    2  502    0 -0.68265724851E+02  0.42627966505E+02 -0.48046763653E+02  0.93732834243E+02  0.00000000000E+00 0. -1.
         22    1    3    3    0    0 -0.71330373485E+01  0.20640143539E+02 -0.11045100428E+03  0.11258916508E+03  0.00000000000E+00 0.  1.
         22    1    3    3    0    0  0.40966681611E+02 -0.59397434612E+02 -0.19098457400E+02  0.74639636358E+02  0.00000000000E+00 0.  1.
</event>
<event>
 7    1  0.5064652E-006  0.9409749E+02  0.7818608E-02  0.1428445E+00
          2   -1    0    0  502    0  0.00000000000E+00  0.00000000000E+00  0.98558880967E+02  0.98558880967E+02  0.00000000000E+00 0. -1.
          1   -1    0    0  501    0 -0.00000000000E+00 -0.00000000000E+00 -0.67616898197E+03  0.67616898197E+03  0.00000000000E+00 0. -1.
         25    2    1    2    0    0  0.91085308503E+02  0.24007787156E+02 -0.48324380540E+03  0.50795902379E+03  0.12499954849E+03 0.  0.
          2    1    1    2  501    0 -0.80963259244E+02 -0.52419442810E+02 -0.16435047082E+03  0.19056212790E+03  0.00000000000E+00 0. -1.
          1    1    1    2  502    0 -0.10122049259E+02  0.28411655654E+02  0.69984175216E+02  0.76206711245E+02  0.00000000000E+00 0. -1.
         22    1    3    3    0    0  0.22734380142E+02  0.52162993981E+02 -0.81060673297E+02  0.99038693130E+02  0.00000000000E+00 0. -1.
         22    1    3    3    0    0  0.68350928362E+02 -0.28155206824E+02 -0.40218313211E+03  0.40892033066E+03  0.00000000000E+00 0. -1.
</event>
<event>
 7    1  0.5064652E-006  0.1256505E+03  0.7818608E-02  0.1370987E+00
          2   -1    0    0  502    0  0.00000000000E+00  0.00000000000E+00  0.18849456966E+04  0.18849456966E+04  0.00000000000E+00 0. -1.
          1   -1    0    0  501    0 -0.00000000000E+00 -0.00000000000E+00 -0.40163100795E+03  0.40163100795E+03  0.00000000000E+00 0. -1.
         25    2    1    2    0    0  0.90480966791E+02 -0.68285848814E+02  0.78471064586E+03  0.80264877799E+03  0.12499800235E+03 0.  0.
          2    1    1    2  501    0 -0.76024245436E+01 -0.34791729762E+02 -0.38783544033E+03  0.38946705907E+03  0.00000000000E+00 0. -1.
          1    1    1    2  502    0 -0.82878542248E+02  0.10307757858E+03  0.10864394832E+04  0.10944608675E+04  0.00000000000E+00 0. -1.
         22    1    3    3    0    0  0.11499642112E+03 -0.68735546180E+02  0.52655512584E+03  0.54333143911E+03  0.00000000000E+00 0.  1.
         22    1    3    3    0    0 -0.24515454327E+02  0.44969736593E+00  0.25815552002E+03  0.25931733888E+03  0.00000000000E+00 0.  1.
</event>
<event>
 7    1  0.5064652E-006  0.6506356E+02  0.7818608E-02  0.1533267E+00
          2   -1    0    0  502    0  0.00000000000E+00  0.00000000000E+00  0.46389421755E+03  0.46389421755E+03  0.00000000000E+00 0. -1.
          1   -1    0    0  501    0 -0.00000000000E+00 -0.00000000000E+00 -0.10663936542E+03  0.10663936542E+03  0.00000000000E+00 0. -1.
         25    2    1    2    0    0 -0.33682219655E+02 -0.59367343060E+02  0.12571594935E+03  0.18996998199E+03  0.12500048317E+03 0.  0.
          2    1    1    2  501    0 -0.14121420808E+02  0.15273432983E+02 -0.69517508830E+02  0.72562912804E+02  0.00000000000E+00 0. -1.
          1    1    1    2  502    0  0.47803640463E+02  0.44093910077E+02  0.30105641161E+03  0.30800068818E+03  0.00000000000E+00 0. -1.
         22    1    3    3    0    0  0.36051723362E+02  0.85966535035E+01  0.93249674163E+01  0.38217590533E+02  0.00000000000E+00 0. -1.
         22    1    3    3    0    0 -0.69733943017E+02 -0.67963996563E+02  0.11639098193E+03  0.15175239145E+03  0.00000000000E+00 0. -1.
</event>
<event>
 7    1  0.5064652E-006  0.3125858E+03  0.7818608E-02  0.1190622E+00
          2   -1    0    0  502    0  0.00000000000E+00  0.00000000000E+00  0.11800440791E+04  0.11800440791E+04  0.00000000000E+00 0. -1.
          1   -1    0    0  501    0 -0.00000000000E+00 -0.00000000000E+00 -0.27274743889E+03  0.27274743889E+03  0.00000000000E+00 0. -1.
         25    2    1    2    0    0  0.59693943990E+02  0.28834558281E+03  0.70868079281E+02  0.32764827607E+03  0.12499826429E+03 0.  0.
          2    1    1    2  501    0  0.60575019206E+01 -0.33421972873E+03  0.53988423100E+02  0.33860636472E+03  0.00000000000E+00 0. -1.
          1    1    1    2  502    0 -0.65751445910E+02  0.45874145921E+02  0.78244013782E+03  0.78653687719E+03  0.00000000000E+00 0. -1.
         22    1    3    3    0    0 -0.17691115748E+01  0.19241550509E+03  0.89473045602E+02  0.21220811069E+03  0.00000000000E+00 0. -1.
         22    1    3    3    0    0  0.61463055564E+02  0.95930077719E+02 -0.18604966321E+02  0.11544016538E+03  0.00000000000E+00 0. -1.
</event>
<event>
 7    1  0.5064652E-006  0.1512419E+03  0.7818608E-02  0.1331478E+00
          2   -1    0    0  502    0  0.00000000000E+00  0.00000000000E+00  0.35674827564E+04  0.35674827564E+04  0.00000000000E+00 0. -1.
          1   -1    0    0  501    0 -0.00000000000E+00 -0.00000000000E+00 -0.56606988883E+02  0.56606988883E+02  0.00000000000E+00 0. -1.
         25    2    1    2    0    0  0.15642166575E+02 -0.18845213011E+03  0.13064739841E+04  0.13259935391E+04  0.12500284725E+03 0.  0.
          2    1    1    2  501    0 -0.15796285021E+02  0.14702930067E+03  0.70550580349E+02  0.16384298051E+03  0.00000000000E+00 0. -1.
          1    1    1    2  502    0  0.15411844639E+00  0.41422829437E+02  0.21338512030E+04  0.21342532257E+04  0.00000000000E+00 0. -1.
         22    1    3    3    0    0 -0.43765049805E+02 -0.14465176448E+03  0.79713435652E+03  0.81133389853E+03  0.00000000000E+00 0.  1.
         22    1    3    3    0    0  0.59407216380E+02 -0.43800365629E+02  0.50933962757E+03  0.51465964054E+03  0.00000000000E+00 0.  1.
</event>
<event>
 7    1  0.5064652E-006  0.1593311E+03  0.7818608E-02  0.1231434E+00
          2   -1    0    0  502    0  0.00000000000E+00  0.00000000000E+00  0.15067883869E+04  0.15067883869E+04  0.00000000000E+00 0. -1.
          1   -1    0    0  501    0 -0.00000000000E+00 -0.00000000000E+00 -0.23109482165E+03  0.23109482165E+03  0.00000000000E+00 0. -1.
         25    2    1    2    0    0  0.44989277117E+02 -0.11067421523E+03  0.48286715142E+03  0.51289194565E+03  0.12499858008E+03 0.  0.
          2    1    1    2  501    0 -0.65630250439E+02 -0.77815055902E+02 -0.19454995864E+03  0.21957276495E+03  0.00000000000E+00 0. -1.
          1    1    1    2  502    0  0.20640973322E+02  0.18848927113E+03  0.98737637251E+03  0.10054184980E+04  0.00000000000E+00 0. -1.
         22    1    3    3    0    0  0.31263255379E+02 -0.73450238943E+02  0.99904816012E+02  0.12788002581E+03  0.00000000000E+00 0.  1.
         22    1    3    3    0    0  0.13726021738E+02 -0.37223976287E+02  0.38296233541E+03  0.38501191985E+03  0.00000000000E+00 0.  1.
</event>
<event>
 7    1  0.5064652E-006  0.7227695E+02  0.7818608E-02  0.1375644E+00
          2   -1    0    0  502    0  0.00000000000E+00  0.00000000000E+00  0.22572351146E+03  0.22572351146E+03  0.00000000000E+00 0. -1.
          1   -1    0    0  501    0 -0.00000000000E+00 -0.00000000000E+00 -0.67997862096E+03  0.67997862096E+03  0.00000000000E+00 0. -1.
         25    2    1    2    0    0 -0.14344653088E+02  0.36359606581E+02 -0.22906138733E+03  0.26385988371E+03  0.12500051602E+03 0.  0.
          2    1    1    2  501    0  0.73914985914E+02 -0.35226183037E+02 -0.42527118895E+03  0.43308185516E+03  0.00000000000E+00 0. -1.
          1    1    1    2  502    0 -0.59570332825E+02 -0.11334235442E+01  0.20007746678E+03  0.20876039355E+03  0.00000000000E+00 0. -1.
         22    1    3    3    0    0 -0.62563220975E+02  0.52625440635E+01 -0.17130621193E+03  0.18244908669E+03  0.00000000000E+00 0. -1.
         22    1    3    3    0    0  0.48218567886E+02  0.31097062517E+02 -0.57755175398E+02  0.81410797020E+02  0.00000000000E+00 0. -1.
</event>
<event>
 7    1  0.5064652E-006  0.3108037E+02  0.7818608E-02  0.1603468E+00
          2   -1    0    0  502    0  0.00000000000E+00  0.00000000000E+00  0.36212576664E+03  0.36212576664E+03  0.00000000000E+00 0. -1.
          1   -1    0    0  501    0 -0.00000000000E+00 -0.00000000000E+00 -0.53346751096E+02  0.53346751096E+02  0.00000000000E+00 0. -1.
         25    2    1    2    0    0  0.15439480877E+02  0.44923002068E+02  0.14911423088E+03  0.20029188913E+03  0.12500133326E+03 0.  0.
          2    1    1    2  501    0  0.90582288331E+01 -0.26532287196E+02 -0.19026664913E+02  0.33882558214E+02  0.00000000000E+00 0. -1.
          1    1    1    2  502    0 -0.24497709710E+02 -0.18390714873E+02  0.17869144958E+03  0.18129807039E+03  0.00000000000E+00 0. -1.
         22    1    3    3    0    0 -0.19441981952E+02  0.81135422372E+02  0.91810720353E+02  0.12405706670E+03  0.00000000000E+00 0. -1.
         22    1    3    3    0    0  0.34881462829E+02 -0.36212420304E+02  0.57303510526E+02  0.76234822436E+02  0.00000000000E+00 0. -1.
</event>
<event>
 7    1  0.5064652E-006  0.3738763E+02  0.7818608E-02  0.1560596E+00
          2   -1    0    0  502    0  0.00000000000E+00  0.00000000000E+00  0.32852901682E+04  0.32852901682E+04  0.00000000000E+00 0. -1.
          1   -1    0    0  501    0 -0.00000000000E+00 -0.00000000000E+00 -0.38300556983E+02  0.38300556983E+02  0.00000000000E+00 0. -1.
         25    2    1    2    0    0 -0.47818178364E+02  0.24102103200E+02  0.13801531063E+04  0.13868364662E+04  0.12500118973E+03 0.  0.
          2    1    1    2  501    0  0.18614493842E+02 -0.32362353839E+02 -0.24834750868E+02  0.44839560409E+02  0.00000000000E+00 0. -1.
          1    1    1    2  502    0  0.29203684522E+02  0.82602506392E+01  0.18916712558E+04  0.18919146986E+04  0.00000000000E+00 0. -1.
         22    1    3    3    0    0  0.11577415057E+02  0.38190580551E+02  0.10694074706E+04  0.10701518094E+04  0.00000000000E+00 0. -1.
         22    1    3    3    0    0 -0.59395593421E+02 -0.14088477351E+02  0.31074563575E+03  0.31668465680E+03  0.00000000000E+00 0. -1.
</event>
<event>
 7    1  0.5064652E-006  0.1480453E+03  0.7818608E-02  0.1247454E+00
          2   -1    0    0  502    0  0.00000000000E+00  0.00000000000E+00  0.33779939562E+04  0.33779939562E+04  0.00000000000E+00 0. -1.
          1   -1    0    0  501    0 -0.00000000000E+00 -0.00000000000E+00 -0.58950602043E+02  0.58950602043E+02  0.00000000000E+00 0. -1.
         25    2    1    2    0    0  0.58812342582E+02  0.42467894909E+02  0.25055502481E+03  0.28924962980E+03  0.12500045659E+03 0.  0.
          2    1    1    2  501    0  0.24685136568E+02  0.89761096601E+02  0.20024969594E+02  0.95222948062E+02  0.00000000000E+00 0. -1.
          1    1    1    2  502    0 -0.83497479150E+02 -0.13222899151E+03  0.30484633598E+04  0.30524719804E+04  0.00000000000E+00 0. -1.
         22    1    3    3    0    0  0.48772579056E+02 -0.18025404759E+02  0.20851844011E+03  0.21490374485E+03  0.00000000000E+00 0. -1.
         22    1    3    3    0    0  0.10039763526E+02  0.60493299667E+02  0.42036584696E+02  0.74345884951E+02  0.00000000000E+00 0. -1.
</event>
<event>
 7    1  0.5064652E-006  0.8485396E+02  0.7818608E-02  0.1452916E+00
          2   -1    0    0  502    0  0.00000000000E+00  0.00000000000E+00  0.61021675786E+03  0.61021675786E+03  0.00000000000E+00 0. -1.
          1   -1    0    0  501    0 -0.00000000000E+00 -0.00000000000E+00 -0.85118943218E+03  0.85118943218E+03  0.00000000000E+00 0. -1.
         25    2    1    2    0    0 -0.84021358382E+02 -0.28199412095E+02  0.97416274046E+02  0.18157413663E+03  0.12499776453E+03 0.  0.
          2    1    1    2  501    0 -0.86238239753E+00  0.27848029297E+02 -0.80504078142E+03  0.80552275957E+03  0.00000000000E+00 0. -1.
          1    1    1    2  502    0  0.84883740780E+02  0.35138279841E+00  0.46665183306E+03  0.47430929383E+03  0.00000000000E+00 0. -1.
         22    1    3    3    0    0 -0.77506337031E+01  0.45803915292E+02  0.36519118577E+02  0.59090752242E+02  0.00000000000E+00 0.  1.
         22    1    3    3    0    0 -0.76270724679E+02 -0.74003327387E+02  0.60897155469E+02  0.12248338439E+03  0.00000000000E+00 0.  1.
</event>
<event>
 7    1  0.5064652E-006  0.5826636E+02  0.7818608E-02  0.1439912E+00
          2   -1    0    0  502    0  0.00000000000E+00  0.00000000000E+00  0.13837281018E+04  0.13837281018E+04  0.00000000000E+00 0. -1.
          1   -1    0    0  501    0 -0.00000000000E+00 -0.00000000000E+00 -0.22802397279E+04  0.22802397279E+04  0.00000000000E+00 0. -1.
         25    2    1    2    0    0 -0.31325245304E+02  0.53630991156E+02  0.30814798308E+03  0.33828611571E+03  0.12499904960E+03 0.  0.
          2    1    1    2  501    0 -0.13241456001E+02 -0.56757457575E+02 -0.22643250091E+04  0.22650749418E+04  0.00000000000E+00 0. -1.
          1    1    1    2  502    0  0.44566701305E+02  0.31264664189E+01  0.10596653999E+04  0.10606067722E+04  0.00000000000E+00 0. -1.
         22    1    3    3    0    0  0.33056251343E+02 -0.22381011203E+02  0.92110182858E+02  0.10038880018E+03  0.00000000000E+00 0. -1.
         22    1    3    3    0    0 -0.64381496647E+02  0.76012002359E+02  0.21603780022E+03  0.23789731553E+03  0.00000000000E+00 0. -1.
</event>
<event>
 7    1  0.5064652E-006  0.1097481E+03  0.7818608E-02  0.1271594E+00
          2   -1    0    0  502    0  0.00000000000E+00  0.00000000000E+00  0.60024709621E+03  0.60024709621E+03  0.00000000000E+00 0. -1.
          1   -1    0    0  501    0 -0.00000000000E+00 -0.00000000000E+00 -0.55889688610E+03  0.55889688610E+03  0.00000000000E+00 0. -1.
         25    2    1    2    0    0 -0.60962278628E+02 -0.18136769018E+03 -0.62244520361E+02  0.23687502648E+03  0.12499903759E+03 0.  0.
          2    1    1    2  501    0  0.65425142878E+02  0.74349843008E+02 -0.39760399530E+03  0.40975271269E+03  0.00000000000E+00 0. -1.
          1    1    1    2  502    0 -0.44628642501E+01  0.10701784717E+03  0.50119872577E+03  0.51251624314E+03  0.00000000000E+00 0. -1.
         22    1    3    3    0    0 -0.69183888957E+02 -0.86596366571E+02 -0.84263722975E+02  0.13923259749E+03  0.00000000000E+00 0. -1.
         22    1    3    3    0    0  0.82216103296E+01 -0.94771323608E+02  0.22019202614E+02  0.97642428987E+02  0.00000000000E+00 0. -1.
</event>
<event>
 7    1  0.5064652E-006  0.3578378E+02  0.7818608E-02  0.1574623E+00
          2   -1    0    0  502    0  0.00000000000E+00  0.00000000000E+00  0.39342852559E+02  0.39342852559E+02  0.00000000000E+00 0. -1.
          1   -1    0    0  501    0 -0.00000000000E+00 -0.00000000000E+00 -0.33121416202E+03  0.33121416202E+03  0.00000000000E+00 0. -1.
         25    2    1    2    0    0 -0.14923920865E+02  0.40977026184E+02 -0.20314591988E+03  0.24247660362E+03  0.12499919380E+03 0.  0.
          2    1    1    2  501    0 -0.13143985147E+02 -0.33534750516E+02 -0.92056524004E+02  0.98852149442E+02  0.00000000000E+00 0. -1.
          1    1    1    2  502    0  0.28067906012E+02 -0.74422756684E+01  0.33311344173E+01  0.29228261521E+02  0.00000000000E+00 0. -1.
         22    1    3    3    0    0  0.80361067989E+01  0.59307555833E+02 -0.20448775361E+03  0.21306620231E+03  0.00000000000E+00 0. -1.
         22    1    3    3    0    0 -0.22960027664E+02 -0.18330529648E+02  0.13418337275E+01  0.29410401311E+02  0.00000000000E+00 0. -1.
</event>
<event>
 7    1  0.5064652E-006  0.1307180E+03  0.7818608E-02  0.1311008E+00
          2   -1    0    0  502    0  0.00000000000E+00  0.00000000000E+00  0.72820700597E+03  0.72820700597E+03  0.00000000000E+00 0. -1.
          1   -1    0    0  501    0 -0.00000000000E+00 -0.00000000000E+00 -0.17506238964E+04  0.17506238964E+04  0.00000000000E+00 0. -1.
         25    2    1    2    0    0  0.80236574226E+02  0.17178732334E+02  0.21050036993E+03  0.25820061034E+03  0.12499653095E+03 0.  0.
          2    1    1    2  501    0 -0.13088342488E+03  0.10096946782E+02 -0.17225928257E+04  0.17275874689E+04  0.00000000000E+00 0. -1.
          1    1    1    2  502    0  0.50646850649E+02 -0.27275679115E+02  0.48967556538E+03  0.49304282317E+03  0.00000000000E+00 0. -1.
         22    1    3    3    0    0 -0.13063661239E+02  0.48331332626E+02  0.56751262963E+02  0.75678813457E+02  0.00000000000E+00 0. -1.
         22    1    3    3    0    0  0.93300235466E+02 -0.31152600292E+02  0.15374910697E+03  0.18252179688E+03  0.00000000000E+00 0. -1.
</event>
<event>
 7    1  0.5064652E-006  0.1944998E+03  0.7818608E-02  0.1303656E+00
          2   -1    0    0  502    0  0.00000000000E+00  0.00000000000E+00  0.12295096568E+04  0.12295096568E+04  0.00000000000E+00 0. -1.
          1   -1    0    0  501    0 -0.00000000000E+00 -0.00000000000E+00 -0.51343515048E+03  0.51343515048E+03  0.00000000000E+00 0. -1.
         25    2    1    2    0    0  0.27240153593E+02  0.19620020949E+03 -0.29196372187E+03  0.37430539807E+03  0.12500067186E+03 0.  0.
          2    1    1    2  501    0  0.13875949143E+02 -0.19191048794E+03 -0.12848361988E+03  0.23136598265E+03  0.00000000000E+00 0. -1.
          1    1    1    2  502    0 -0.41116102736E+02 -0.42897215489E+01  0.11365218481E+04  0.11372734266E+04  0.00000000000E+00 0. -1.
         22    1    3    3    0    0  0.38312168394E+02  0.16393862522E+03 -0.14119463910E+03  0.21972624149E+03  0.00000000000E+00 0.  1.
         22    1    3    3    0    0 -0.11072014801E+02  0.32261584269E+02 -0.15076908277E+03  0.15457915658E+03  0.00000000000E+00 0.  1.
</event>
<event>
 7    1  0.5064652E-006  0.7747675E+02  0.7818608E-02  0.1463515E+00
          2   -1    0    0  502    0  0.00000000000E+00  0.00000000000E+00  0.55788746261E+03  0.55788746261E+03  0.00000000000E+00 0. -1.
          1   -1    0    0  501    0 -0.00000000000E+00 -0.00000000000E+00 -0.61534904464E+02  0.61534904464E+02  0.00000000000E+00 0. -1.
         25    2    1    2    0    0 -0.42807606646E+02 -0.76378076896E+02  0.90251222932E+02  0.17730813610E+03  0.12500716007E+03 0.  0.
          2    1    1    2  501    0  0.14979241535E+02  0.71529059713E+02  0.59160264370E+02  0.94025108034E+02  0.00000000000E+00 0. -1.
          1    1    1    2  502    0  0.27828365111E+02  0.48490171821E+01  0.34694107085E+03  0.34808912294E+03  0.00000000000E+00 0. -1.
         22    1    3    3    0    0 -0.73676565804E+02 -0.78998331727E+02  0.97471401932E+02  0.14549792768E+03  0.00000000000E+00 0.  1.
         22    1    3    3    0    0  0.30868959158E+02  0.26202548320E+01 -0.72201789993E+01  0.31810208419E+02  0.00000000000E+00 0.  1.
</event>
<event>
 7    1  0.5064652E-006  0.1080624E+03  0.7818608E-02  0.1416081E+00
          2   -1    0    0  502    0  0.00000000000E+00  0.00000000000E+00  0.15778173482E+04  0.15778173482E+04  0.00000000000E+00 0. -1.
          1   -1    0    0  501    0 -0.00000000000E+00 -0.00000000000E+00 -0.84092564598E+02  0.84092564598E+02  0.00000000000E+00 0. -1.
         25    2    1    2    0    0  0.34755212085E+00  0.99530436848E+02  0.16758634998E+03  0.23154556577E+03  0.12498694202E+03 0.  0.
          2    1    1    2  501    0 -0.28311347833E+02  0.56720169826E+01 -0.45784948511E+02  0.54129157604E+02  0.00000000000E+00 0. -1.
          1    1    1    2  502    0  0.27963795712E+02 -0.10520245383E+03  0.13719233821E+04  0.13762351894E+04  0.00000000000E+00 0. -1.
         22    1    3    3    0    0  0.22034187734E+02 -0.22243856793E+02  0.59714108857E+02  0.67424545907E+02  0.00000000000E+00 0. -1.
         22    1    3    3    0    0 -0.21686635613E+02  0.12177429364E+03  0.10787224112E+03  0.16412101986E+03  0.00000000000E+00 0. -1.
</event>
<event>
 7    1  0.5064652E-006  0.4379768E+02  0.7818608E-02  0.1487288E+00
          2   -1    0    0  502    0  0.00000000000E+00  0.00000000000E+00  0.21602249669E+04  0.21602249669E+04  0.00000000000E+00 0. -1.
          1   -1    0    0  501    0 -0.00000000000E+00 -0.00000000000E+00 -0.74879806921E+01  0.74879806921E+01  0.00000000000E+00 0. -1.
         25    2    1    2    0    0 -0.17102861893E+01  0.16543111736E+02  0.90436465189E+03  0.91311464987E+03  0.12500536223E+03 0.  0.
          2    1    1    2  501    0  0.39783536137E+02 -0.34741618764E+02  0.25922106850E+03  0.26454729667E+03  0.00000000000E+00 0. -1.
          1    1    1    2  502    0 -0.38073249947E+02  0.18198507028E+02  0.98915126580E+03  0.99005100104E+03  0.00000000000E+00 0. -1.
         22    1    3    3    0    0  0.21719891992E+01  0.41862858607E+02  0.86582197992E+03  0.86683615371E+03  0.00000000000E+00 0.  1.
         22    1    3    3    0    0 -0.38822753885E+01 -0.25319746871E+02  0.38542671969E+02  0.46278496154E+02  0.00000000000E+00 0.  1.
</event>
<event>
 7    1  0.5064652E-006  0.4794219E+02  0.7818608E-02  0.1472674E+00
          2   -1    0    0  502    0  0.00000000000E+00  0.00000000000E+00  0.12204510854E+04  0.12204510854E+04  0.00000000000E+00 0. -1.
          1   -1    0    0  501    0 -0.00000000000E+00 -0.00000000000E+00 -0.24166221968E+03  0.24166221968E+03  0.00000000000E+00 0. -1.
         25    2    1    2    0    0  0.71824678786E+02 -0.65275212644E+01  0.28462113950E+03  0.31911648177E+03  0.12499897149E+03 0.  0.
          2    1    1    2  501    0 -0.30487402923E+02  0.29958633297E+02 -0.22175780602E+03  0.22583960232E+03  0.00000000000E+00 0. -1.
          1    1    1    2  502    0 -0.41337275863E+02 -0.23431112033E+02  0.91592553225E+03  0.91715722099E+03  0.00000000000E+00 0. -1.
         22    1    3    3    0    0 -0.96513263095E+01 -0.47721767566E+02  0.13860072277E+03  0.14690362675E+03  0.00000000000E+00 0. -1.
         22    1    3    3    0    0  0.81476005095E+02  0.41194246302E+02  0.14602041672E+03  0.17221285502E+03  0.00000000000E+00 0. -1.
</event>
<event>
 7    1  0.5064652E-006  0.4137839E+02  0.7818608E-02  0.1503122E+00
          2   -1    0    0  502    0  0.00000000000E+00  0.00000000000E+00  0.10653304562E+02  0.10653304562E+02  0.00000000000E+00 0. -1.
          1   -1    0    0  501    0 -0.00000000000E+00 -0.00000000000E+00 -0.19108749160E+04  0.19108749160E+04  0.00000000000E+00 0. -1.
         25    2    1    2    0    0  0.17144829660E+02  0.12627321890E+02 -0.56288300296E+03  0.57698825963E+03  0.12499912916E+03 0.  0.
          2    1    1    2  501    0  0.28705737199E+02 -0.29801871722E+02 -0.11550358290E+04  0.11557767679E+04  0.00000000000E+00 0. -1.
          1    1    1    2  502    0 -0.45850566858E+02  0.17174549832E+02 -0.18230277946E+03  0.18876319303E+03  0.00000000000E+00 0. -1.
         22    1    3    3    0    0  0.25052534880E+02 -0.53352498929E+02 -0.22218753898E+03  0.22987261934E+03  0.00000000000E+00 0.  1.
         22    1    3    3    0    0 -0.79077052203E+01  0.65979820818E+02 -0.34069546398E+03  0.34711564029E+03  0.00000000000E+00 0.  1.
</event>
<event>
 7    1  0.5064652E-006  0.2550201E+03  0.7818608E-02  0.1255296E+00
          2   -1    0    0  502    0  0.00000000000E+00  0.00000000000E+00  0.21820854340E+04  0.21820854340E+04  0.00000000000E+00 0. -1.
          1   -1    0    0  501    0 -0.00000000000E+00 -0.00000000000E+00 -0.10581448135E+04  0.10581448135E+04  0.00000000000E+00 0. -1.
         25    2    1    2    0    0  0.27697340672E+03  0.29034295422E+02 -0.44509072226E+03  0.53971169690E+03  0.12500282551E+03 0.  0.
          2    1    1    2  501    0 -0.23599496786E+03 -0.57648445566E+02 -0.53935440852E+03  0.59154048561E+03  0.00000000000E+00 0. -1.
          1    1    1    2  502    0 -0.40978438862E+02  0.28614150144E+02  0.21083857513E+04  0.21089780650E+04  0.00000000000E+00 0. -1.
         22    1    3    3    0    0  0.67755111367E+02  0.15057197005E+02 -0.31957218197E+02  0.76411635848E+02  0.00000000000E+00 0.  1.
         22    1    3    3    0    0  0.20921829536E+03  0.13977098417E+02 -0.41313350406E+03  0.46330006105E+03  0.00000000000E+00 0.  1.
</event>
<event>
 7    1  0.5064652E-006  0.1635401E+03  0.7818608E-02  0.1279854E+00
          2   -1    0    0  502    0  0.00000000000E+00  0.00000000000E+00  0.16486939901E+03  0.16486939901E+03  0.00000000000E+00 0. -1.
          1   -1    0    0  501    0 -0.00000000000E+00 -0.00000000000E+00 -0.14144457918E+04  0.14144457918E+04  0.00000000000E+00 0. -1.
         25    2    1    2    0    0  0.84163256152E+01 -0.19075340539E+03 -0.38280185712E+03  0.44566770926E+03  0.12499899623E+03 0.  0.
          2    1    1    2  501    0  0.40830540520E+02  0.15407499122E+03 -0.98639323272E+03  0.99918859357E+03  0.00000000000E+00 0. -1.
          1    1    1    2  502    0 -0.49246866135E+02  0.36678414171E+02  0.11961869701E+03  0.13445888801E+03  0.00000000000E+00 0. -1.
         22    1    3    3    0    0 -0.10355562031E+02 -0.15279100514E+03 -0.17047886728E+03  0.22916232916E+03  0.00000000000E+00 0. -1.
         22    1    3    3    0    0  0.18771887646E+02 -0.37962400253E+02 -0.21232298984E+03  0.21650538010E+03  0.00000000000E+00 0. -1.
</event>
<event>
 7    1  0.5064652E-006  0.1659562E+03  0.7818608E-02  0.1256138E+00
          2   -1    0    0  502    0  0.00000000000E+00  0.00000000000E+00  0.11250705033E+04  0.11250705033E+04  0.00000000000E+00 0. -1.
          1   -1    0    0  501    0 -0.00000000000E+00 -0.00000000000E+00 -0.99335503977E+03  0.99335503977E+03  0.00000000000E+00 0. -1.
         25    2    1    2    0    0 -0.15903136393E+03  0.41179580732E+02 -0.94507563816E+03  0.96735419444E+03  0.12497777029E+03 0.  0.
          2    1    1    2  501    0  0.20079880929E+03 -0.10487111164E+03  0.32921679014E+03  0.39962708464E+03  0.00000000000E+00 0. -1.
          1    1    1    2  502    0 -0.41767445361E+02  0.63691530903E+02  0.74757431153E+03  0.75144426398E+03  0.00000000000E+00 0. -1.
         22    1    3    3    0    0 -0.89274646706E+02  0.32709162675E+02 -0.80546131150E+03  0.81105349774E+03  0.00000000000E+00 0. -1.
         22    1    3    3    0    0 -0.69756717225E+02  0.84704180569E+01 -0.13961432666E+03  0.15630069670E+03  0.00000000000E+00 0. -1.
</event>
<event>
 7    1  0.5064652E-006  0.4765288E+02  0.7818608E-02  0.1501940E+00
          2   -1    0    0  502    0  0.00000000000E+00  0.00000000000E+00  0.60067120732E+02  0.60067120732E+02  0.00000000000E+00 0. -1.
          1   -1    0    0  501    0 -0.00000000000E+00 -0.00000000000E+00 -0.91882135401E+03  0.91882135401E+03  0.00000000000E+00 0. -1.
         25    2    1    2    0    0 -0.20421386316E+02 -0.37705764451E+01 -0.13048116399E+03  0.18188209053E+03  0.12499804172E+03 0.  0.
          2    1    1    2  501    0  0.42657735087E+02 -0.23315172632E+02 -0.75271327954E+03  0.75428148647E+03  0.00000000000E+00 0. -1.
          1    1    1    2  502    0 -0.22236348771E+02  0.27085749078E+02  0.24440210253E+02  0.42724897741E+02  0.00000000000E+00 0. -1.
         22    1    3    3    0    0 -0.47092960430E+02 -0.90455223378E+01  0.65384691222E+00  0.47958272615E+02  0.00000000000E+00 0. -1.
         22    1    3    3    0    0  0.26671574114E+02  0.52749458927E+01 -0.13113501090E+03  0.13392381791E+03  0.00000000000E+00 0. -1.
</event>
<event>
 7    1  0.5064652E-006  0.3486457E+02  0.7818608E-02  0.1565440E+00
          2   -1    0    0  502    0  0.00000000000E+00  0.00000000000E+00  0.95621172574E+03  0.95621172574E+03  0.00000000000E+00 0. -1.
          1   -1    0    0  501    0 -0.00000000000E+00 -0.00000000000E+00 -0.67140175403E+03  0.67140175403E+03  0.00000000000E+00 0. -1.
         25    2    1    2    0    0 -0.53151189402E+02  0.26895870863E+02 -0.44186914254E+03  0.46305704900E+03  0.12500021877E+03 0.  0.
          2    1    1    2  501    0  0.32278312117E+02 -0.32166649585E+01 -0.21747193303E+03  0.21987787070E+03  0.00000000000E+00 0. -1.
          1    1    1    2  502    0  0.20872877285E+02 -0.23679205904E+02  0.94415104728E+03  0.94467856008E+03  0.00000000000E+00 0. -1.
         22    1    3    3    0    0  0.36097162770E+02  0.25178931944E+02 -0.21079633482E+03  0.21534177149E+03  0.00000000000E+00 0.  1.
         22    1    3    3    0    0 -0.89248352172E+02  0.17169389194E+01 -0.23107280772E+03  0.24771527751E+03  0.00000000000E+00 0.  1.
</event>
<event>
 7    1  0.5064652E-006  0.6610695E+02  0.7818608E-02  0.1414228E+00
          2   -1    0    0  502    0  0.00000000000E+00  0.00000000000E+00  0.30396790334E+03  0.30396790334E+03  0.00000000000E+00 0. -1.
          1   -1    0    0  501    0 -0.00000000000E+00 -0.00000000000E+00 -0.25383750824E+04  0.25383750824E+04  0.00000000000E+00 0. -1.
         25    2    1    2    0    0 -0.10185484164E+03 -0.42739263975E+02 -0.20237669229E+03  0.26226782267E+03  0.12500812684E+03 0.  0.
          2    1    1    2  501    0  0.37851416243E+02  0.29324288895E+02 -0.23018988022E+04  0.23023967380E+04  0.00000000000E+00 0. -1.
          1    1    1    2  502    0  0.64003425393E+02  0.13414975080E+02  0.26986831547E+03  0.27767842501E+03  0.00000000000E+00 0. -1.
         22    1    3    3    0    0 -0.12474233530E+03 -0.56903533844E+02 -0.18485136486E+03  0.23014927649E+03  0.00000000000E+00 0. -1.
         22    1    3    3    0    0  0.22887493663E+02  0.14164269869E+02 -0.17525327432E+02  0.32118546180E+02  0.00000000000E+00 0. -1.
</event>
<event>
 7    1  0.5064652E-006  0.5501967E+02  0.7818608E-02  0.1457542E+00
          2   -1    0    0  502    0  0.00000000000E+00  0.00000000000E+00  0.38564547288E+03  0.38564547288E+03  0.00000000000E+00 0. -1.
          1   -1    0    0  501    0 -0.00000000000E+00 -0.00000000000E+00 -0.11223825014E+04  0.11223825014E+04  0.00000000000E+00 0. -1.
         25    2    1    2    0    0  0.91621361672E+02 -0.13669399854E+02 -0.10949695509E+03  0.19025607266E+03  0.12500585427E+03 0.  0.
          2    1    1    2  501    0 -0.37302538299E+02  0.18277964647E+02 -0.96990684105E+03  0.97079598458E+03  0.00000000000E+00 0. -1.
          1    1    1    2  502    0 -0.54318823372E+02 -0.46085647923E+01  0.34266676757E+03  0.34697591709E+03  0.00000000000E+00 0. -1.
         22    1    3    3    0    0 -0.15551356279E+02 -0.29426167668E+02  0.38088014239E+01  0.33500014837E+02  0.00000000000E+00 0. -1.
         22    1    3    3    0    0  0.10717271795E+03  0.15756767814E+02 -0.11330575651E+03  0.15675605782E+03  0.00000000000E+00 0. -1.
</event>
<event>
 7    1  0.5064652E-006  0.1608482E+03  0.7818608E-02  0.1394828E+00
          2   -1    0    0  502    0  0.00000000000E+00  0.00000000000E+00  0.12288689072E+04  0.12288689072E+04  0.00000000000E+00 0. -1.
          1   -1    0    0  501    0 -0.00000000000E+00 -0.00000000000E+00 -0.45559415109E+03  0.45559415109E+03  0.00000000000E+00 0. -1.
         25    2    1    2    0    0  0.17391186438E+03 -0.12561484309E+01  0.21081158841E+03  0.30052201257E+03  0.12500015899E+03 0.  0.
          2    1    1    2  501    0 -0.15901680236E+03  0.18680211167E+02 -0.39499338812E+03  0.42621012468E+03  0.00000000000E+00 0. -1.
          1    1    1    2  502    0 -0.14895062024E+02 -0.17424062737E+02  0.95745655585E+03  0.95773092108E+03  0.00000000000E+00 0. -1.
         22    1    3    3    0    0  0.92660221625E+02  0.46759705855E+02  0.16663683464E+03  0.19631663562E+03  0.00000000000E+00 0. -1.
         22    1    3    3    0    0  0.81251642760E+02 -0.48015854286E+02  0.44174753769E+02  0.10420537695E+03  0.00000000000E+00 0. -1.
</event>
<event>
 7    1  0.5064652E-006  0.1309776E+03  0.7818608E-02  0.1345679E+00
          2   -1    0    0  502    0  0.00000000000E+00  0.00000000000E+00  0.15730685821E+04  0.15730685821E+04  0.00000000000E+00 0. -1.
          1   -1    0    0  501    0 -0.00000000000E+00 -0.00000000000E+00 -0.86647474444E+02  0.86647474444E+02  0.00000000000E+00 0. -1.
         25    2    1    2    0    0 -0.96771135416E+02  0.97435720380E+02  0.20083593825E+03  0.27352950810E+03  0.12499978181E+03 0.  0.
          2    1    1    2  501    0 -0.19637606899E+02 -0.37446825014E+02 -0.37571984650E+02  0.56564603233E+02  0.00000000000E+00 0. -1.
          1    1    1    2  502    0  0.11640874231E+03 -0.59988895366E+02  0.13231571541E+04  0.13296219453E+04  0.00000000000E+00 0. -1.
         22    1    3    3    0    0 -0.46923618643E+02  0.74612316082E+02  0.28423808405E+02  0.92610672073E+02  0.00000000000E+00 0. -1.
         22    1    3    3    0    0 -0.49847516773E+02  0.22823404299E+02  0.17241212984E+03  0.18091883602E+03  0.00000000000E+00 0. -1.
</event>
<event>
 7    1  0.5064652E-006  0.7431048E+02  0.7818608E-02  0.1386489E+00
          2   -1    0    0  502    0  0.00000000000E+00  0.00000000000E+00  0.64667665309E+03  0.64667665309E+03  0.00000000000E+00 0. -1.
          1   -1    0    0  501    0 -0.00000000000E+00 -0.00000000000E+00 -0.43829750689E+03  0.43829750689E+03  0.00000000000E+00 0. -1.
         25    2    1    2    0    0 -0.11118898640E+03  0.56155764500E+02  0.18764811136E+03  0.25759172000E+03  0.12500087974E+03 0.  0.
          2    1    1    2  501    0  0.69960126639E+02 -0.22767004824E+02 -0.39828401814E+03  0.40502211660E+03  0.00000000000E+00 0. -1.
          1    1    1    2  502    0  0.41228859761E+02 -0.33388759676E+02  0.41901505297E+03  0.42236032338E+03  0.00000000000E+00 0. -1.
         22    1    3    3    0    0 -0.36481338159E+02  0.61707076270E+02  0.20711240422E+02  0.74616397497E+02  0.00000000000E+00 0.  1.
         22    1    3    3    0    0 -0.74707648241E+02 -0.55513117698E+01  0.16693687094E+03  0.18297532251E+03  0.00000000000E+00 0.  1.
</event>
<event>
 7    1  0.5064652E-006  0.1051148E+03  0.7818608E-02  0.1328506E+00
          2   -1    0    0  502    0  0.00000000000E+00  0.00000000000E+00  0.11774264850E+03  0.11774264850E+03  0.00000000000E+00 0. -1.
          1   -1    0    0  501    0 -0.00000000000E+00 -0.00000000000E+00 -0.72222970257E+03  0.72222970257E+03  0.00000000000E+00 0. -1.
         25    2    1    2    0    0  0.46369595409E+02  0.11653238641E+03  0.27285287618E+01  0.17709295733E+03  0.12499813681E+03 0.  0.
          2    1    1    2  501    0 -0.55897758127E+02 -0.24866220546E+02 -0.55213459146E+03  0.55551372204E+03  0.00000000000E+00 0. -1.
          1    1    1    2  502    0  0.95281627175E+01 -0.91666165860E+02 -0.55080991368E+02  0.10736567169E+03  0.00000000000E+00 0. -1.
         22    1    3    3    0    0  0.77861670193E+02  0.45914194272E+02 -0.26868764043E+02  0.94299965017E+02  0.00000000000E+00 0.  1.
         22    1    3    3    0    0 -0.31492074784E+02  0.70618192134E+02  0.29597292805E+02  0.82792992311E+02  0.00000000000E+00 0.  1.
</event>
<event>
 7    1  0.5064652E-006  0.9520694E+02  0.7818608E-02  0.1427728E+00
          2   -1    0    0  502    0  0.00000000000E+00  0.00000000000E+00  0.20481933159E+04  0.20481933159E+04  0.00000000000E+00 0. -1.
          1   -1    0    0  501    0 -0.00000000000E+00 -0.00000000000E+00 -0.52730815189E+03  0.52730815189E+03  0.00000000000E+00 0. -1.
         25    2    1    2    0    0  0.91120679647E+02 -0.33512094949E+02  0.38784307692E+03  0.41889108307E+03  0.12498579276E+03 0.  0.
          2    1    1    2  501    0 -0.74955870175E+02  0.58751751818E+02 -0.50721540142E+03  0.51607907752E+03  0.00000000000E+00 0. -1.
          1    1    1    2  502    0 -0.16164809472E+02 -0.25239656869E+02  0.16402574885E+04  0.16405313072E+04  0.00000000000E+00 0. -1.
         22    1    3    3    0    0  0.44061645256E+02 -0.23251338941E+02  0.35964477033E+03  0.36307907427E+03  0.00000000000E+00 0. -1.
         22    1    3    3    0    0  0.47059034390E+02 -0.10260756008E+02  0.28198306586E+02  0.55812008796E+02  0.00000000000E+00 0. -1.
</event>
<event>
 7    1  0.5064652E-006  0.8926349E+02  0.7818608E-02  0.1354650E+00
          2   -1    0    0  502    0  0.00000000000E+00  0.00000000000E+00  0.20030180232E+04  0.20030180232E+04  0.00000000000E+00 0. -1.
          1   -1    0    0  501    0 -0.00000000000E+00 -0.00000000000E+00 -0.11176770357E+03  0.11176770357E+03  0.00000000000E+00 0. -1.
         25    2    1    2    0    0  0.85115776695E+02 -0.95732888045E+02  0.25713804361E+03  0.31329739516E+03  0.12500321213E+03 0.  0.
          2    1    1    2  501    0 -0.29378279576E+02  0.81715303828E+02 -0.60543440898E+02  0.10585831298E+03  0.00000000000E+00 0. -1.
          1    1    1    2  502    0 -0.55737497118E+02  0.14017584217E+02  0.16946557169E+04  0.16956300187E+04  0.00000000000E+00 0. -1.
         22    1    3    3    0    0  0.80823262804E+02 -0.90752296142E+02  0.10380790319E+03  0.15982634273E+03  0.00000000000E+00 0. -1.
         22    1    3    3    0    0  0.42925138912E+01 -0.49805919033E+01  0.15333014043E+03  0.15347105243E+03  0.00000000000E+00 0. -1.
</event>
<event>
 7    1  0.5064652E-006  0.2044159E+03  0.7818608E-02  0.1279989E+00
          2   -1    0    0  502    0  0.00000000000E+00  0.00000000000E+00  0.21120694328E+04  0.21120694328E+04  0.00000000000E+00 0. -1.
          1   -1    0    0  501    0 -0.00000000000E+00 -0.00000000000E+00 -0.19844567337E+03  0.19844567337E+03  0.00000000000E+00 0. -1.
         25    2    1    2    0    0 -0.14261352191E+03 -0.13112596285E+03  0.15056226498E+04  0.15231733440E+04  0.12499935051E+03 0.  0.
          2    1    1    2  501    0 -0.70417489986E+01 -0.48555042951E+02 -0.16304742774E+03  0.17026932230E+03  0.00000000000E+00 0. -1.
          1    1    1    2  502    0  0.14965527091E+03  0.17968100580E+03  0.57104853741E+03  0.61707243986E+03  0.00000000000E+00 0. -1.
         22    1    3    3    0    0 -0.30523787496E+02  0.15993039696E+02  0.10796167886E+03  0.11332785635E+03  0.00000000000E+00 0. -1.
         22    1    3    3    0    0 -0.11208973441E+03 -0.14711900254E+03  0.13976609709E+04  0.14098454877E+04  0.00000000000E+00 0. -1.
</event>
<event>
 7    1  0.5064652E-006  0.2503797E+03  0.7818608E-02  0.1209330E+00
          2   -1    0    0  502    0  0.00000000000E+00  0.00000000000E+00  0.81362799752E+03  0.81362799752E+03  0.00000000000E+00 0. -1.
          1   -1    0    0  501    0 -0.00000000000E+00 -0.00000000000E+00 -0.21523364689E+04  0.21523364689E+04  0.00000000000E+00 0. -1.
         25    2    1    2    0    0  0.69337898927E+02  0.17351518174E+03 -0.92620439522E+03  0.95309725600E+03  0.12499814057E+03 0.  0.
          2    1    1    2  501    0 -0.31361682099E+02  0.75427523138E+02 -0.11914398424E+04  0.11942368963E+04  0.00000000000E+00 0. -1.
          1    1    1    2  502    0 -0.37976216828E+02 -0.24894270488E+03  0.77893576623E+03  0.81863031416E+03  0.00000000000E+00 0. -1.
         22    1    3    3    0    0  0.13292539676E+02  0.13637836127E+03 -0.40449815372E+03  0.42707669732E+03  0.00000000000E+00 0.  1.
         22    1    3    3    0    0  0.56045359251E+02  0.37136820468E+02 -0.52170624151E+03  0.52602055868E+03  0.00000000000E+00 0.  1.
</event>
<event>
 7    1  0.5064652E-006  0.2650577E+03  0.7818608E-02  0.1214445E+00
          2   -1    0    0  502    0  0.00000000000E+00  0.00000000000E+00  0.43354152398E+03  0.43354152398E+03  0.00000000000E+00 0. -1.
          1   -1    0    0  501    0 -0.00000000000E+00 -0.00000000000E+00 -0.89814336585E+03  0.89814336585E+03  0.00000000000E+00 0. -1.
         25    2    1    2    0    0  0.20402943133E+03  0.63532356257E+02 -0.51861533683E+03  0.57467500620E+03  0.12500050406E+03 0.  0.
          2    1    1    2  501    0  0.64100239291E+02 -0.35088656883E+02 -0.30182944630E+03  0.31054962433E+03  0.00000000000E+00 0. -1.
          1    1    1    2  502    0 -0.26812967062E+03 -0.28443699374E+02  0.35584294125E+03  0.44646025931E+03  0.00000000000E+00 0. -1.
         22    1    3    3    0    0  0.35908000238E+02  0.68376207638E+02 -0.12976045002E+03  0.15100484973E+03  0.00000000000E+00 0. -1.
         22    1    3    3    0    0  0.16812143110E+03 -0.48438513807E+01 -0.38885488681E+03  0.42367015647E+03  0.00000000000E+00 0. -1.
</event>
<event>
 7    1  0.5064652E-006  0.7500412E+02  0.7818608E-02  0.1356544E+00
          2   -1    0    0  502    0  0.00000000000E+00  0.00000000000E+00  0.88563516941E+03  0.88563516941E+03  0.00000000000E+00 0. -1.
          1   -1    0    0  501    0 -0.00000000000E+00 -0.00000000000E+00 -0.12303067124E+03  0.12303067124E+03  0.00000000000E+00 0. -1.
         25    2    1    2    0    0 -0.96010911351E+02 -0.34402800184E+02  0.65689781441E+03  0.67641720121E+03  0.12499537498E+03 0.  0.
          2    1    1    2  501    0  0.32914833920E+02  0.58716039920E+02 -0.97278865216E+02  0.11829681844E+03  0.00000000000E+00 0. -1.
          1    1    1    2  502    0  0.63096077430E+02 -0.24313239736E+02  0.20298554898E+03  0.21395182100E+03  0.00000000000E+00 0. -1.
         22    1    3    3    0    0  0.27016686055E+02 -0.26803013375E+02  0.15735204160E+03  0.16188875145E+03  0.00000000000E+00 0.  1.
         22    1    3    3    0    0 -0.12302759741E+03 -0.75997868087E+01  0.49954577281E+03  0.51452844976E+03  0.00000000000E+00 0.  1.
</event>
<event>
 7    1  0.5064652E-006  0.7793504E+02  0.7818608E-02  0.1463302E+00
          2   -1    0    0  502    0  0.00000000000E+00  0.00000000000E+00  0.30193714433E+03  0.30193714433E+03  0.00000000000E+00 0. -1.
          1   -1    0    0  501    0 -0.00000000000E+00 -0.00000000000E+00 -0.16135352227E+03  0.16135352227E+03  0.00000000000E+00 0. -1.
         25    2    1    2    0    0 -0.20452253886E+02 -0.51462066051E+02  0.24076091879E+02  0.13882004107E+03  0.12499882668E+03 0.  0.
          2    1    1    2  501    0  0.38446160655E+02  0.73077391512E+02 -0.86464270545E+02  0.11955953538E+03  0.00000000000E+00 0. -1.
          1    1    1    2  502    0 -0.17993906769E+02 -0.21615325461E+02  0.20297180073E+03  0.20491109015E+03  0.00000000000E+00 0. -1.
         22    1    3    3    0    0 -0.55313196425E+02 -0.17436509534E+02  0.55966040935E+02  0.80596397571E+02  0.00000000000E+00 0.  1.
         22    1    3    3    0    0  0.34860942539E+02 -0.34025556517E+02 -0.31889949057E+02  0.58223643495E+02  0.00000000000E+00 0.  1.
</event>
<event>
 7    1  0.5064652E-006  0.1115145E+03  0.7818608E-02  0.1356283E+00
          2   -1    0    0  502    0  0.00000000000E+00  0.00000000000E+00  0.68105491297E+02  0.68105491297E+02  0.00000000000E+00 0. -1.
          1   -1    0    0  501    0 -0.00000000000E+00 -0.00000000000E+00 -0.29266929935E+04  0.29266929935E+04  0.00000000000E+00 0. -1.
         25    2    1    2    0    0 -0.86681838653E+02 -0.12229015109E+03 -0.65876657578E+03  0.68707131508E+03  0.12499987373E+03 0.  0.
          2    1    1    2  501    0  0.49701722353E+02  0.95998341593E+02 -0.22426965395E+04  0.22453003610E+04  0.00000000000E+00 0. -1.
          1    1    1    2  502    0  0.36980116300E+02  0.26291809501E+02  0.42875613088E+02  0.62426808713E+02  0.00000000000E+00 0. -1.
         22    1    3    3    0    0 -0.26102030965E+02  0.49405233024E+01 -0.20835451814E+02  0.33761529043E+02  0.00000000000E+00 0.  1.
         22    1    3    3    0    0 -0.60579807688E+02 -0.12723067440E+03 -0.63793112397E+03  0.65330978604E+03  0.00000000000E+00 0.  1.
</event>
<event>
 7    1  0.5064652E-006  0.4040562E+03  0.7818608E-02  0.1078000E+00
          2   -1    0    0  502    0  0.00000000000E+00  0.00000000000E+00  0.16683288784E+04  0.16683288784E+04  0.00000000000E+00 0. -1.
          1   -1    0    0  501    0 -0.00000000000E+00 -0.00000000000E+00 -0.51362726085E+03  0.51362726085E+03  0.00000000000E+00 0. -1.
         25    2    1    2    0    0 -0.29693677551E+03  0.28096790500E+03  0.62285566299E+03  0.75543870241E+03  0.12499617552E+03 0.  0.
          2    1    1    2  501    0  0.84456112803E+02 -0.40390754946E+03 -0.33127450533E+03  0.52916627007E+03  0.00000000000E+00 0. -1.
          1    1    1    2  502    0  0.21248066271E+03  0.12293964446E+03  0.86312045990E+03  0.89735116677E+03  0.00000000000E+00 0. -1.
         22    1    3    3    0    0 -0.27382806986E+03  0.19289424326E+03  0.51425675401E+03  0.61371818449E+03  0.00000000000E+00 0. -1.
         22    1    3    3    0    0 -0.23108705650E+02  0.88073661739E+02  0.10859890897E+03  0.14172051792E+03  0.00000000000E+00 0. -1.
</event>
<event>
 7    1  0.5064652E-006  0.3799157E+02  0.7818608E-02  0.1625537E+00
          2   -1    0    0  502    0  0.00000000000E+00  0.00000000000E+00  0.23392220801E+02  0.23392220801E+02  0.00000000000E+00 0. -1.
          1   -1    0    0  501    0 -0.00000000000E+00 -0.00000000000E+00 -0.25259815901E+04  0.25259815901E+04  0.00000000000E+00 0. -1.
         25    2    1    2    0    0 -0.82159714872E+01  0.50776706335E+02 -0.13052179935E+04  0.13121985069E+04  0.12500053877E+03 0.  0.
          2    1    1    2  501    0  0.17304626119E+02 -0.32811811170E+02 -0.12118241389E+04  0.12123917719E+04  0.00000000000E+00 0. -1.
          1    1    1    2  502    0 -0.90886546322E+01 -0.17964895165E+02  0.14452763130E+02  0.24783532101E+02  0.00000000000E+00 0. -1.
         22    1    3    3    0    0  0.25856165391E+02  0.10868499797E+02 -0.11006563958E+04  0.11010136998E+04  0.00000000000E+00 0.  1.
         22    1    3    3    0    0 -0.34072136878E+02  0.39908206538E+02 -0.20456159770E+03  0.21118480702E+03  0.00000000000E+00 0.  1.
</event>
<event>
 7    1  0.5064652E-006  0.9744328E+02  0.7818608E-02  0.1359734E+00
          2   -1    0    0  502    0  0.00000000000E+00  0.00000000000E+00  0.23255839861E+04  0.23255839861E+04  0.00000000000E+00 0. -1.
          1   -1    0    0  501    0 -0.00000000000E+00 -0.00000000000E+00 -0.16138911164E+04  0.16138911164E+04  0.00000000000E+00 0. -1.
         25    2    1    2    0    0  0.62039087225E+02  0.46945717355E+02  0.33822220510E+03  0.36887887252E+03  0.12499845536E+03 0.  0.
          2    1    1    2  501    0 -0.96996244864E+02 -0.10587332334E+02 -0.15967508427E+04  0.15997292323E+04  0.00000000000E+00 0. -1.
          1    1    1    2  502    0  0.34957157638E+02 -0.36358385022E+02  0.19702215073E+04  0.19708669977E+04  0.00000000000E+00 0. -1.
         22    1    3    3    0    0  0.32953696870E+02  0.81890223423E+02  0.13996660700E+03  0.16547690445E+03  0.00000000000E+00 0.  1.
         22    1    3    3    0    0  0.29085390355E+02 -0.34944506068E+02  0.19825559810E+03  0.20340196807E+03  0.00000000000E+00 0.  1.
</event>
<event>
 7    1  0.5064652E-006  0.1023155E+03  0.7818608E-02  0.1462316E+00
          2   -1    0    0  502    0  0.00000000000E+00  0.00000000000E+00  0.18417318778E+04  0.18417318778E+04  0.00000000000E+00 0. -1.
          1   -1    0    0  501    0 -0.00000000000E+00 -0.00000000000E+00 -0.32294547096E+03  0.32294547096E+03  0.00000000000E+00 0. -1.
         25    2    1    2    0    0 -0.11198595106E+03 -0.51752785150E+02  0.61320573301E+02  0.18601345569E+03  0.12498635518E+03 0.  0.
          2    1    1    2  501    0  0.19894789331E+02  0.83508901673E+01 -0.25864126352E+03  0.25953967558E+03  0.00000000000E+00 0. -1.
          1    1    1    2  502    0  0.92091161731E+02  0.43401894982E+02  0.17161070971E+04  0.17191242175E+04  0.00000000000E+00 0. -1.
         22    1    3    3    0    0 -0.13942536516E+03 -0.44010935253E+02  0.44131198018E+02  0.15272183049E+03  0.00000000000E+00 0. -1.
         22    1    3    3    0    0  0.27439414095E+02 -0.77418498965E+01  0.17189375283E+02  0.33291625198E+02  0.00000000000E+00 0. -1.
</event>
<event>
 7    1  0.5064652E-006  0.1102852E+03  0.7818608E-02  0.1372729E+00
          2   -1    0    0  502    0  0.00000000000E+00  0.00000000000E+00  0.15161611536E+04  0.15161611536E+04  0.00000000000E+00 0. -1.
          1   -1    0    0  501    0 -0.00000000000E+00 -0.00000000000E+00 -0.13136329846E+04  0.13136329846E+04  0.00000000000E+00 0. -1.
         25    2    1    2    0    0  0.15614269182E+02  0.71708043228E+02  0.63765898906E+02  0.15836539643E+03  0.12501063978E+03 0.  0.
          2    1    1    2  501    0 -0.39313924302E+02 -0.10392476677E+03 -0.12636102463E+04  0.12684860253E+04  0.00000000000E+00 0. -1.
          1    1    1    2  502    0  0.23699655120E+02  0.32216723542E+02  0.14023725164E+04  0.14029427165E+04  0.00000000000E+00 0. -1.
         22    1    3    3    0    0  0.47544875422E+02  0.52365493777E+02 -0.14000986617E+02  0.72101926075E+02  0.00000000000E+00 0.  1.
         22    1    3    3    0    0 -0.31930606240E+02  0.19342549451E+02  0.77766885523E+02  0.86263470357E+02  0.00000000000E+00 0.  1.
</event>
<event>
 7    1  0.5064652E-006  0.1072010E+03  0.7818608E-02  0.1287352E+00
          2   -1    0    0  502    0  0.00000000000E+00  0.00000000000E+00  0.66762518904E+03  0.66762518904E+03  0.00000000000E+00 0. -1.
          1   -1    0    0  501    0 -0.00000000000E+00 -0.00000000000E+00 -0.41943399279E+03  0.41943399279E+03  0.00000000000E+00 0. -1.
         25    2    1    2    0    0 -0.77647481746E+02 -0.30303310178E+02  0.19013811262E+03  0.24233417414E+03  0.12500371216E+03 0.  0.
          2    1    1    2  501    0 -0.32848313032E+02  0.80842268293E+02 -0.38012512300E+03  0.39001229871E+03  0.00000000000E+00 0. -1.
          1    1    1    2  502    0  0.11049579478E+03 -0.50538958114E+02  0.43817820662E+03  0.45471270898E+03  0.00000000000E+00 0. -1.
         22    1    3    3    0    0  0.18480243914E+02  0.17752655514E+02  0.96333119386E+02  0.99683228698E+02  0.00000000000E+00 0. -1.
         22    1    3    3    0    0 -0.96127725660E+02 -0.48055965692E+02  0.93804993237E+02  0.14265094544E+03  0.00000000000E+00 0. -1.
</event>
<event>
 7    1  0.5064652E-006  0.1085330E+03  0.7818608E-02  0.1267632E+00
          2   -1    0    0  502    0  0.00000000000E+00  0.00000000000E+00  0.24300051818E+03  0.24300051818E+03  0.00000000000E+00 0. -1.
          1   -1    0    0  501    0 -0.00000000000E+00 -0.00000000000E+00 -0.23387292743E+04  0.23387292743E+04  0.00000000000E+00 0. -1.
         25    2    1    2    0    0 -0.28610526643E+02 -0.42362109247E+02 -0.34882770136E+03  0.37405800227E+03  0.12500205314E+03 0.  0.
          2    1    1    2  501    0 -0.80869470029E+02  0.65486445444E+02 -0.19622394212E+04  0.19649966646E+04  0.00000000000E+00 0. -1.
          1    1    1    2  502    0  0.10947999667E+03 -0.23124336197E+02  0.21533836637E+03  0.24267512569E+03  0.00000000000E+00 0. -1.
         22    1    3    3    0    0 -0.11547874860E+02  0.61474998283E+01  0.67915425808E+01  0.14740088825E+02  0.00000000000E+00 0. -1.
         22    1    3    3    0    0 -0.17062651782E+02 -0.48509609075E+02 -0.35561924394E+03  0.35931791344E+03  0.00000000000E+00 0. -1.
</event>
<event>
 7    1  0.5064652E-006  0.1752985E+03  0.7818608E-02  0.1260238E+00
          2   -1    0    0  502    0  0.00000000000E+00  0.00000000000E+00  0.27403533694E+03  0.27403533694E+03  0.00000000000E+00 0. -1.
          1   -1    0    0  501    0 -0.00000000000E+00 -0.00000000000E+00 -0.14071069859E+04  0.14071069859E+04  0.00000000000E+00 0. -1.
         25    2    1    2    0    0 -0.76171941443E+02 -0.12775986808E+03 -0.21807031771E+03  0.29206930752E+03  0.12500027352E+03 0.  0.
          2    1    1    2  501    0 -0.66825620930E+02  0.18164386598E+02 -0.11165740654E+04  0.11187194698E+04  0.00000000000E+00 0. -1.
          1    1    1    2  502    0  0.14299756237E+03  0.10959548148E+03  0.20157273417E+03  0.27035354550E+03  0.00000000000E+00 0. -1.
         22    1    3    3    0    0 -0.54458205019E+02 -0.19150530393E+02 -0.15319216724E+03  0.16370790760E+03  0.00000000000E+00 0. -1.
         22    1    3    3    0    0 -0.21713736423E+02 -0.10860933768E+03 -0.64878150465E+02  0.12836139992E+03  0.00000000000E+00 0. -1.
</event>
<event>
 7    1  0.5064652E-006  0.5780800E+02  0.7818608E-02  0.1439632E+00
          2   -1    0    0  502    0  0.00000000000E+00  0.00000000000E+00  0.14756998275E+04  0.14756998275E+04  0.00000000000E+00 0. -1.
          1   -1    0    0  501    0 -0.00000000000E+00 -0.00000000000E+00 -0.87878384736E+02  0.87878384736E+02  0.00000000000E+00 0. -1.
         25    2    1    2    0    0  0.12974531463E+02 -0.96131563849E+01  0.55719609489E+02  0.13780063122E+03  0.12499435124E+03 0.  0.
          2    1    1    2  501    0  0.10781215858E+02 -0.43817932036E+02 -0.35197431758E+02  0.57228532968E+02  0.00000000000E+00 0. -1.
          1    1    1    2  502    0 -0.23755747321E+02  0.53431088421E+02  0.13672992650E+04  0.13685490480E+04  0.00000000000E+00 0. -1.
         22    1    3    3    0    0  0.54625065744E+01 -0.59329368242E+02 -0.40222477697E+01  0.59715922426E+02  0.00000000000E+00 0.  1.
         22    1    3    3    0    0  0.75120248885E+01  0.49716211857E+02  0.59741857259E+02  0.78084708798E+02  0.00000000000E+00 0.  1.
</event>
<event>
 7    1  0.5064652E-006  0.6327009E+02  0.7818608E-02  0.1422446E+00
          2   -1    0    0  502    0  0.00000000000E+00  0.00000000000E+00  0.10423940478E+04  0.10423940478E+04  0.00000000000E+00 0. -1.
          1   -1    0    0  501    0 -0.00000000000E+00 -0.00000000000E+00 -0.76686428706E+03  0.76686428706E+03  0.00000000000E+00 0. -1.
         25    2    1    2    0    0 -0.17905991807E+02 -0.29393037410E+02  0.30648540740E+03  0.33278062397E+03  0.12500025422E+03 0.  0.
          2    1    1    2  501    0 -0.46281625210E+02  0.79361873695E+01 -0.75139780486E+03  0.75286362181E+03  0.00000000000E+00 0. -1.
          1    1    1    2  502    0  0.64187617017E+02  0.21456850040E+02  0.72044215816E+03  0.72361408903E+03  0.00000000000E+00 0. -1.
         22    1    3    3    0    0  0.18767381588E+02  0.24371440970E+02  0.15195058201E+02  0.34308476217E+02  0.00000000000E+00 0. -1.
         22    1    3    3    0    0 -0.36673373395E+02 -0.53764478379E+02  0.29129034920E+03  0.29847214776E+03  0.00000000000E+00 0. -1.
</event>
<event>
 7    1  0.5064652E-006  0.1455680E+03  0.7818608E-02  0.1237410E+00
          2   -1    0    0  502    0  0.00000000000E+00  0.00000000000E+00  0.34087906135E+04  0.34087906135E+04  0.00000000000E+00 0. -1.
          1   -1    0    0  501    0 -0.00000000000E+00 -0.00000000000E+00 -0.81041323647E+02  0.81041323647E+02  0.00000000000E+00 0. -1.
         25    2    1    2    0    0 -0.64169249000E+02 -0.64878222232E+02  0.36388367146E+03  0.39542909197E+03  0.12500385667E+03 0.  0.
          2    1    1    2  501    0  0.26437012546E+02  0.16265122845E+03  0.41199027479E+02  0.16985787475E+03  0.00000000000E+00 0. -1.
          1    1    1    2  502    0  0.37732236454E+02 -0.97773006220E+02  0.29226665909E+04  0.29245449704E+04  0.00000000000E+00 0. -1.
         22    1    3    3    0    0 -0.70272996626E+02  0.17186947619E+02  0.16214133904E+03  0.17754858222E+03  0.00000000000E+00 0.  1.
         22    1    3    3    0    0  0.61037476252E+01 -0.82065169851E+02  0.20174233242E+03  0.21788050974E+03  0.00000000000E+00 0.  1.
</event>
<event>
 7    1  0.5064652E-006  0.4266285E+02  0.7818608E-02  0.1604594E+00
          2   -1    0    0  502    0  0.00000000000E+00  0.00000000000E+00  0.34910867885E+04  0.34910867885E+04  0.00000000000E+00 0. -1.
          1   -1    0    0  501    0 -0.00000000000E+00 -0.00000000000E+00 -0.80203219314E+03  0.80203219314E+03  0.00000000000E+00 0. -1.
         25    2    1    2    0    0 -0.10229106291E+02  0.41849585300E+02  0.23460286242E+04  0.23497517140E+04  0.12500715831E+03 0.  0.
          2    1    1    2  501    0 -0.10054457084E+02 -0.41462247508E+02 -0.79951184023E+03  0.80064935692E+03  0.00000000000E+00 0. -1.
          1    1    1    2  502    0  0.20283563375E+02 -0.38733779268E+00  0.11425378115E+04  0.11427179108E+04  0.00000000000E+00 0. -1.
         22    1    3    3    0    0  0.10233135617E+02 -0.27095090602E+02  0.16005793110E+04  0.16008413387E+04  0.00000000000E+00 0.  1.
         22    1    3    3    0    0 -0.20462241909E+02  0.68944675902E+02  0.74544931320E+03  0.74891037530E+03  0.00000000000E+00 0.  1.
</event>
<event>
 7    1  0.5064652E-006  0.1076835E+03  0.7818608E-02  0.1331590E+00
          2   -1    0    0  502    0  0.00000000000E+00  0.00000000000E+00  0.15711278381E+04  0.15711278381E+04  0.00000000000E+00 0. -1.
          1   -1    0    0  501    0 -0.00000000000E+00 -0.00000000000E+00 -0.18212242400E+04  0.18212242400E+04  0.00000000000E+00 0. -1.
         25    2    1    2    0    0  0.48877357995E+01 -0.15803738725E+03 -0.15412605326E+04  0.15543811967E+04  0.12496867529E+03 0.  0.
          2    1    1    2  501    0  0.21961817743E+02  0.53812493901E+02 -0.26843870513E+03  0.27465877804E+03  0.00000000000E+00 0. -1.
          1    1    1    2  502    0 -0.26849553542E+02  0.10422489335E+03  0.15596028358E+04  0.15633121033E+04  0.00000000000E+00 0. -1.
         22    1    3    3    0    0 -0.32104921038E+02 -0.16064782357E+03 -0.12061109957E+04  0.12171861744E+04  0.00000000000E+00 0. -1.
         22    1    3    3    0    0  0.36992656838E+02  0.26104363202E+01 -0.33514953687E+03  0.33719502235E+03  0.00000000000E+00 0. -1.
</event>
<event>
 7    1  0.5064652E-006  0.1679506E+03  0.7818608E-02  0.1377439E+00
          2   -1    0    0  502    0  0.00000000000E+00  0.00000000000E+00  0.99412934906E+03  0.99412934906E+03  0.00000000000E+00 0. -1.
          1   -1    0    0  501    0 -0.00000000000E+00 -0.00000000000E+00 -0.12696388397E+04  0.12696388397E+04  0.00000000000E+00 0. -1.
         25    2    1    2    0    0 -0.17894068178E+03 -0.53901919995E+02  0.96117242370E+01  0.22503873185E+03  0.12499944407E+03 0.  0.
          2    1    1    2  501    0  0.15896274916E+02  0.19638860696E+02 -0.11538714144E+04  0.11541480050E+04  0.00000000000E+00 0. -1.
          1    1    1    2  502    0  0.16304440686E+03  0.34263059299E+02  0.86875019955E+03  0.88458145191E+03  0.00000000000E+00 0. -1.
         22    1    3    3    0    0 -0.19363504883E+03 -0.46677377992E+02  0.27174612373E+02  0.20102678754E+03  0.00000000000E+00 0.  1.
         22    1    3    3    0    0  0.14694367049E+02 -0.72245420027E+01 -0.17562888136E+02  0.24011944316E+02  0.00000000000E+00 0.  1.
</event>
<event>
 7    1  0.5064652E-006  0.4635858E+02  0.7818608E-02  0.1468461E+00
          2   -1    0    0  502    0  0.00000000000E+00  0.00000000000E+00  0.16374188564E+04  0.16374188564E+04  0.00000000000E+00 0. -1.
          1   -1    0    0  501    0 -0.00000000000E+00 -0.00000000000E+00 -0.32410132380E+03  0.32410132380E+03  0.00000000000E+00 0. -1.
         25    2    1    2    0    0  0.12665236798E+02 -0.30906242153E+02 -0.88272199733E+02  0.15663378295E+03  0.12500622659E+03 0.  0.
          2    1    1    2  501    0  0.32518043182E+02  0.36727291453E+02 -0.19833598624E+03  0.20431221331E+03  0.00000000000E+00 0. -1.
          1    1    1    2  502    0 -0.45183279980E+02 -0.58210492997E+01  0.15999257185E+04  0.16005741839E+04  0.00000000000E+00 0. -1.
         22    1    3    3    0    0  0.30156384944E+01 -0.20659793442E+02 -0.12006389541E+03  0.12186574630E+03  0.00000000000E+00 0. -1.
         22    1    3    3    0    0  0.96495983033E+01 -0.10246448711E+02  0.31791695674E+02  0.34768036649E+02  0.00000000000E+00 0. -1.
</event>
<event>
 7    1  0.5064652E-006  0.1024620E+03  0.7818608E-02  0.1401346E+00
          2   -1    0    0  502    0  0.00000000000E+00  0.00000000000E+00  0.53206966128E+02  0.53206966128E+02  0.00000000000E+00 0. -1.
          1   -1    0    0  501    0 -0.00000000000E+00 -0.00000000000E+00 -0.89633487883E+03  0.89633487883E+03  0.00000000000E+00 0. -1.
         25    2    1    2    0    0 -0.49345676669E+02 -0.60266591575E+02 -0.24040570242E+03  0.28193449748E+03  0.12500040498E+03 0.  0.
          2    1    1    2  501    0 -0.25945219122E+02 -0.22236293057E+02 -0.53684977503E+03  0.53793613754E+03  0.00000000000E+00 0. -1.
          1    1    1    2  502    0  0.75290895792E+02  0.82502884633E+02 -0.65872435256E+02  0.12967120994E+03  0.00000000000E+00 0. -1.
         22    1    3    3    0    0  0.22311144622E+02 -0.12826031021E+02  0.93260807479E+00  0.25751970874E+02  0.00000000000E+00 0.  1.
         22    1    3    3    0    0 -0.71656821291E+02 -0.47440560554E+02 -0.24133831049E+03  0.25618252660E+03  0.00000000000E+00 0.  1.
</event>
<event>
 7    1  0.5064652E-006  0.8041226E+02  0.7818608E-02  0.1416755E+00
          2   -1    0    0  502    0  0.00000000000E+00  0.00000000000E+00  0.23684429363E+04  0.23684429363E+04  0.00000000000E+00 0. -1.
          1   -1    0    0  501    0 -0.00000000000E+00 -0.00000000000E+00 -0.47849302656E+02  0.47849302656E+02  0.00000000000E+00 0. -1.
         25    2    1    2    0    0  0.88518574896E+02 -0.54304465739E+01  0.65226896333E+03  0.67003335409E+03  0.12499946887E+03 0.  0.
          2    1    1    2  501    0 -0.74405477836E+02 -0.30497953981E+02  0.29816586374E+01  0.80468569127E+02  0.00000000000E+00 0. -1.
          1    1    1    2  502    0 -0.14113097060E+02  0.35928400555E+02  0.16653430117E+04  0.16657903157E+04  0.00000000000E+00 0. -1.
         22    1    3    3    0    0  0.76406960822E+02  0.15943087174E+02  0.63553229718E+03  0.64030735311E+03  0.00000000000E+00 0.  1.
         22    1    3    3    0    0  0.12111614074E+02 -0.21373533748E+02  0.16736666153E+02  0.29726000980E+02  0.00000000000E+00 0.  1.
</event>
<event>
 7    1  0.5064652E-006  0.7023629E+02  0.7818608E-02  0.1397478E+00
          2   -1    0    0  502    0  0.00000000000E+00  0.00000000000E+00  0.46266360806E+03  0.46266360806E+03  0.00000000000E+00 0. -1.
          1   -1    0    0  501    0 -0.00000000000E+00 -0.00000000000E+00 -0.31984240116E+03  0.31984240116E+03  0.00000000000E+00 0. -1.
         25    2    1    2    0    0  0.69012583474E+02  0.23725925961E+02  0.97001698232E+02  0.17424266255E+03  0.12500207899E+03 0.  0.
          2    1    1    2  501    0 -0.65167316325E+02  0.27529950478E+02 -0.27469259595E+03  0.28365595280E+03  0.00000000000E+00 0. -1.
          1    1    1    2  502    0 -0.38452671493E+01 -0.51255876440E+02  0.32051210462E+03  0.32460739387E+03  0.00000000000E+00 0. -1.
         22    1    3    3    0    0  0.52203500059E+02  0.30283484001E+02  0.12621773421E+03  0.13990429318E+03  0.00000000000E+00 0. -1.
         22    1    3    3    0    0  0.16809083415E+02 -0.65575580391E+01 -0.29216035975E+02  0.34338369367E+02  0.00000000000E+00 0. -1.
</event>
<event>
 7    1  0.5064652E-006  0.4561122E+02  0.7818608E-02  0.1533850E+00
          2   -1    0    0  502    0  0.00000000000E+00  0.00000000000E+00  0.11446405637E+04  0.11446405637E+04  0.00000000000E+00 0. -1.
          1   -1    0    0  501    0 -0.00000000000E+00 -0.00000000000E+00 -0.19796069241E+03  0.19796069241E+03  0.00000000000E+00 0. -1.
         25    2    1    2    0    0 -0.33476181864E+02 -0.37065779279E+02  0.36511097218E+03  0.38913208311E+03  0.12499291724E+03 0.  0.
          2    1    1    2  501    0  0.44609300691E+02  0.96832616378E+01 -0.18285868363E+03  0.18847029857E+03  0.00000000000E+00 0. -1.
          1    1    1    2  502    0 -0.11133118827E+02  0.27382517641E+02  0.76442758276E+03  0.76499887444E+03  0.00000000000E+00 0. -1.
         22    1    3    3    0    0 -0.13671155891E+02 -0.77570635385E+01  0.35051318067E+03  0.35086544766E+03  0.00000000000E+00 0. -1.
         22    1    3    3    0    0 -0.19805025973E+02 -0.29308715741E+02  0.14597791505E+02  0.38266635454E+02  0.00000000000E+00 0. -1.
</event>
<event>
 7    1  0.5064652E-006  0.5360658E+02  0.7818608E-02  0.1473261E+00
          2   -1    0    0  502    0  0.00000000000E+00  0.00000000000E+00  0.22515509866E+04  0.22515509866E+04  0.00000000000E+00 0. -1.
          1   -1    0    0  501    0 -0.00000000000E+00 -0.00000000000E+00 -0.11612392465E+03  0.11612392465E+03  0.00000000000E+00 0. -1.
         25    2    1    2    0    0 -0.66452576979E+02  0.57880008895E+02  0.49281449270E+02  0.16068354304E+03  0.12499799737E+03 0.  0.
          2    1    1    2  501    0  0.35158603091E+02 -0.14593724429E+02 -0.54060741374E+02  0.66118589836E+02  0.00000000000E+00 0. -1.
          1    1    1    2  502    0  0.31293973888E+02 -0.43286284466E+02  0.21402063540E+04  0.21408727783E+04  0.00000000000E+00 0. -1.
         22    1    3    3    0    0 -0.75105480804E+02  0.49344639703E+02  0.84545172703E+02  0.12338400602E+03  0.00000000000E+00 0. -1.
         22    1    3    3    0    0  0.86529038247E+01  0.85353691919E+01 -0.35263723433E+02  0.37299537024E+02  0.00000000000E+00 0. -1.
</event>
<event>
 7    1  0.5064652E-006  0.4317425E+02  0.7818608E-02  0.1576757E+00
          2   -1    0    0  502    0  0.00000000000E+00  0.00000000000E+00  0.11122479744E+04  0.11122479744E+04  0.00000000000E+00 0. -1.
          1   -1    0    0  501    0 -0.00000000000E+00 -0.00000000000E+00 -0.12443684752E+04  0.12443684752E+04  0.00000000000E+00 0. -1.
         25    2    1    2    0    0 -0.68803972736E+01  0.23837788327E+02  0.17680027667E+03  0.21794331706E+03  0.12500148640E+03 0.  0.
          2    1    1    2  501    0 -0.21994213555E+02  0.89631624610E+01 -0.12231597761E+04  0.12233903390E+04  0.00000000000E+00 0. -1.
          1    1    1    2  502    0  0.28874610828E+02 -0.32800950788E+02  0.91423899860E+03  0.91528279351E+03  0.00000000000E+00 0. -1.
         22    1    3    3    0    0  0.92213745808E+01  0.49086056610E+02  0.13247594060E+02  0.51671785832E+02  0.00000000000E+00 0.  1.
         22    1    3    3    0    0 -0.16101771854E+02 -0.25248268283E+02  0.16355268261E+03  0.16627153123E+03  0.00000000000E+00 0.  1.
</event>
<event>
 7    1  0.5064652E-006  0.3942367E+02  0.7818608E-02  0.1533460E+00
          2   -1    0    0  502    0  0.00000000000E+00  0.00000000000E+00  0.78783749817E+01  0.78783749817E+01  0.00000000000E+00 0. -1.
          1   -1    0    0  501    0 -0.00000000000E+00 -0.00000000000E+00 -0.14491303734E+04  0.14491303734E+04  0.00000000000E+00 0. -1.
         25    2    1    2    0    0  0.16397055396E+02  0.19471411665E+02 -0.10654631974E+04  0.10730717795E+04  0.12499287862E+03 0.  0.
          2    1    1    2  501    0 -0.24517507231E+02  0.23967431436E+02 -0.15068470541E+03  0.15453616527E+03  0.00000000000E+00 0. -1.
          1    1    1    2  502    0  0.81204518356E+01 -0.43438843101E+02 -0.22510409562E+03  0.22940080360E+03  0.00000000000E+00 0. -1.
         22    1    3    3    0    0  0.28325716884E+02  0.50060731117E+02 -0.23417879219E+03  0.24113923312E+03  0.00000000000E+00 0.  1.
         22    1    3    3    0    0 -0.11928661489E+02 -0.30589319452E+02 -0.83128440522E+03  0.83193254642E+03  0.00000000000E+00 0.  1.
</event>
<event>
 7    1  0.5064652E-006  0.5598883E+02  0.7818608E-02  0.1461191E+00
          2   -1    0    0  502    0  0.00000000000E+00  0.00000000000E+00  0.10363951001E+04  0.10363951001E+04  0.00000000000E+00 0. -1.
          1   -1    0    0  501    0 -0.00000000000E+00 -0.00000000000E+00 -0.11135967701E+03  0.11135967701E+03  0.00000000000E+00 0. -1.
         25    2    1    2    0    0  0.10185611095E+02 -0.21324429101E+02  0.26255104561E+03  0.29174638268E+03  0.12499768920E+03 0.  0.
          2    1    1    2  501    0 -0.49191258021E+02  0.28992423668E+02 -0.87766141424E+02  0.10470547300E+03  0.00000000000E+00 0. -1.
          1    1    1    2  502    0  0.39005646926E+02 -0.76679945664E+01  0.75025051889E+03  0.75130292142E+03  0.00000000000E+00 0. -1.
         22    1    3    3    0    0 -0.48699180210E+02 -0.40624416273E+02  0.10812570988E+03  0.12535199435E+03  0.00000000000E+00 0. -1.
         22    1    3    3    0    0  0.58884791305E+02  0.19299987172E+02  0.15442533573E+03  0.16639438833E+03  0.00000000000E+00 0. -1.
</event>
<event>
 7    1  0.5064652E-006  0.4856357E+02  0.7818608E-02  0.1505782E+00
          2   -1    0    0  502    0  0.00000000000E+00  0.00000000000E+00  0.19422335108E+04  0.19422335108E+04  0.00000000000E+00 0. -1.
          1   -1    0    0  501    0 -0.00000000000E+00 -0.00000000000E+00 -0.78400159532E+01  0.78400159532E+01  0.00000000000E+00 0. -1.
         25    2    1    2    0    0 -0.34032659594E+01 -0.25918754336E+01  0.71465834287E+03  0.72552011818E+03  0.12499837922E+03 0.  0.
          2    1    1    2  501    0  0.37827258674E+02 -0.31663190260E+02  0.34948952477E+03  0.35295380299E+03  0.00000000000E+00 0. -1.
          1    1    1    2  502    0 -0.34423992714E+02  0.34255065694E+02  0.87024562722E+03  0.87159960561E+03  0.00000000000E+00 0. -1.
         22    1    3    3    0    0 -0.60214086669E+02  0.17326312920E+02  0.29629773018E+03  0.30285026376E+03  0.00000000000E+00 0. -1.
         22    1    3    3    0    0  0.56810820710E+02 -0.19918188353E+02  0.41836061269E+03  0.42266985441E+03  0.00000000000E+00 0. -1.
</event>
<event>
 7    1  0.5064652E-006  0.1897881E+03  0.7818608E-02  0.1229235E+00
          2   -1    0    0  502    0  0.00000000000E+00  0.00000000000E+00  0.82144419876E+03  0.82144419876E+03  0.00000000000E+00 0. -1.
          1   -1    0    0  501    0 -0.00000000000E+00 -0.00000000000E+00 -0.74073807337E+03  0.74073807337E+03  0.00000000000E+00 0. -1.
         25    2    1    2    0    0  0.28094668782E+02 -0.21662053345E+03 -0.97691582471E+02  0.26997283442E+03  0.12501167992E+03 0.  0.
          2    1    1    2  501    0  0.51318002914E+02  0.18006828932E+03 -0.53843705245E+03  0.57006366810E+03  0.00000000000E+00 0. -1.
          1    1    1    2  502    0 -0.79412671695E+02  0.36552244124E+02  0.71683476030E+03  0.72214576960E+03  0.00000000000E+00 0. -1.
         22    1    3    3    0    0 -0.29862489488E+02 -0.40445501862E+01 -0.34598506396E+01  0.30333104541E+02  0.00000000000E+00 0. -1.
         22    1    3    3    0    0  0.57957158269E+02 -0.21257598326E+03 -0.94231731832E+02  0.23963972988E+03  0.00000000000E+00 0. -1.
</event>
<event>
 7    1  0.5064652E-006  0.8250864E+02  0.7818608E-02  0.1401487E+00
          2   -1    0    0  502    0  0.00000000000E+00  0.00000000000E+00  0.18834211180E+04  0.18834211180E+04  0.00000000000E+00 0. -1.
          1   -1    0    0  501    0 -0.00000000000E+00 -0.00000000000E+00 -0.91101375302E+03  0.91101375302E+03  0.00000000000E+00 0. -1.
         25    2    1    2    0    0  0.49693251623E+02  0.99646181889E+02  0.43879782670E+03  0.46964688679E+03  0.12500353887E+03 0.  0.
          2    1    1    2  501    0 -0.11326014701E+02 -0.81630396664E+02 -0.89337796689E+03  0.89717110520E+03  0.00000000000E+00 0. -1.
          1    1    1    2  502    0 -0.38367236922E+02 -0.18015785225E+02  0.14269875052E+04  0.14276168791E+04  0.00000000000E+00 0. -1.
         22    1    3    3    0    0 -0.20847867877E+01  0.39835507777E+02  0.34342797400E+03  0.34573687588E+03  0.00000000000E+00 0.  1.
         22    1    3    3    0    0  0.51778038411E+02  0.59810674113E+02  0.95369852697E+02  0.12391001091E+03  0.00000000000E+00 0.  1.
</event>
<event>
 7    1  0.5064652E-006  0.1903275E+03  0.7818608E-02  0.1214602E+00
          2   -1    0    0  502    0  0.00000000000E+00  0.00000000000E+00  0.12734911841E+04  0.12734911841E+04  0.00000000000E+00 0. -1.
          1   -1    0    0  501    0 -0.00000000000E+00 -0.00000000000E+00 -0.14555026771E+04  0.14555026771E+04  0.00000000000E+00 0. -1.
         25    2    1    2    0    0 -0.26508903894E+03 -0.50746446882E+02 -0.21423728048E+03  0.36656555140E+03  0.12500116277E+03 0.  0.
          2    1    1    2  501    0  0.77180331053E+02  0.66072433032E+02 -0.11554366339E+04  0.11598949025E+04  0.00000000000E+00 0. -1.
          1    1    1    2  502    0  0.18790870789E+03 -0.15325986150E+02  0.11876624214E+04  0.12025334073E+04  0.00000000000E+00 0. -1.
         22    1    3    3    0    0 -0.16306070376E+03 -0.79210023135E+02 -0.87206112525E+02  0.20116641603E+03  0.00000000000E+00 0.  1.
         22    1    3    3    0    0 -0.10202833518E+03  0.28463576253E+02 -0.12703116795E+03  0.16539913538E+03  0.00000000000E+00 0.  1.
</event>
<event>
 7    1  0.5064652E-006  0.1939341E+03  0.7818608E-02  0.1249412E+00
          2   -1    0    0  502    0  0.00000000000E+00  0.00000000000E+00  0.13125031613E+04  0.13125031613E+04  0.00000000000E+00 0. -1.
          1   -1    0    0  501    0 -0.00000000000E+00 -0.00000000000E+00 -0.27164142404E+03  0.27164142404E+03  0.00000000000E+00 0. -1.
         25    2    1    2    0    0  0.12892995554E+03  0.30190642450E+00  0.89430105747E+03  0.91215299104E+03  0.12500269227E+03 0.  0.
          2    1    1    2  501    0 -0.19554406030E+03 -0.20762854725E+02 -0.22219225851E+03  0.29671194009E+03  0.00000000000E+00 0. -1.
          1    1    1    2  502    0  0.66614104761E+02  0.20460948300E+02  0.36875293826E+03  0.37527965417E+03  0.00000000000E+00 0. -1.
         22    1    3    3    0    0  0.45073966176E+02 -0.33769062508E+02  0.11977239265E+03  0.13235345878E+03  0.00000000000E+00 0. -1.
         22    1    3    3    0    0  0.83855989360E+02  0.34070968932E+02  0.77452866483E+03  0.77979953226E+03  0.00000000000E+00 0. -1.
</event>
<event>
 7    1  0.5064652E-006  0.7702271E+02  0.7818608E-02  0.1480533E+00
          2   -1    0    0  502    0  0.00000000000E+00  0.00000000000E+00  0.93835038635E+03  0.93835038635E+03  0.00000000000E+00 0. -1.
          1   -1    0    0  501    0 -0.00000000000E+00 -0.00000000000E+00 -0.20303337687E+03  0.20303337687E+03  0.00000000000E+00 0. -1.
         25    2    1    2    0    0 -0.23095791409E+02  0.71370149807E+02 -0.12148788611E+02  0.14628638536E+03  0.12499999845E+03 0.  0.
          2    1    1    2  501    0  0.24491719296E+02  0.57694962509E+01 -0.12080899829E+03  0.12340156186E+03  0.00000000000E+00 0. -1.
          1    1    1    2  502    0 -0.13959278867E+01 -0.77139646057E+02  0.86827479639E+03  0.87169581601E+03  0.00000000000E+00 0. -1.
         22    1    3    3    0    0 -0.46866992741E+02 -0.17361111544E+02 -0.20557728266E+02  0.54042052090E+02  0.00000000000E+00 0.  1.
         22    1    3    3    0    0  0.23771201332E+02  0.88731261350E+02  0.84089396547E+01  0.92244333266E+02  0.00000000000E+00 0.  1.
</event>
<event>
 7    1  0.5064652E-006  0.3693049E+02  0.7818608E-02  0.1534659E+00
          2   -1    0    0  502    0  0.00000000000E+00  0.00000000000E+00  0.13158413526E+04  0.13158413526E+04  0.00000000000E+00 0. -1.
          1   -1    0    0  501    0 -0.00000000000E+00 -0.00000000000E+00 -0.64743654364E+03  0.64743654364E+03  0.00000000000E+00 0. -1.
         25    2    1    2    0    0 -0.14319876492E+01  0.45455945981E+01 -0.77564229193E+02  0.14718415001E+03  0.12499700535E+03 0.  0.
          2    1    1    2  501    0  0.37584928447E+02 -0.11273906198E+01 -0.53414392520E+03  0.53546580720E+03  0.00000000000E+00 0. -1.
          1    1    1    2  502    0 -0.36152940798E+02 -0.34182039783E+01  0.12801129633E+04  0.12806279390E+04  0.00000000000E+00 0. -1.
         22    1    3    3    0    0 -0.13694164648E+02  0.57106070669E+02 -0.81984556577E+01  0.59294587677E+02  0.00000000000E+00 0. -1.
         22    1    3    3    0    0  0.12262176999E+02 -0.52560476071E+02 -0.69365773536E+02  0.87889562337E+02  0.00000000000E+00 0. -1.
</event>
<event>
 7    1  0.5064652E-006  0.6501834E+02  0.7818608E-02  0.1387548E+00
          2   -1    0    0  502    0  0.00000000000E+00  0.00000000000E+00  0.15278004272E+03  0.15278004272E+03  0.00000000000E+00 0. -1.
          1   -1    0    0  501    0 -0.00000000000E+00 -0.00000000000E+00 -0.28314551663E+03  0.28314551663E+03  0.00000000000E+00 0. -1.
         25    2    1    2    0    0  0.35015963035E+02  0.69744966327E+02 -0.16605407852E+03  0.22201272042E+03  0.12500085216E+03 0.  0.
          2    1    1    2  501    0  0.28416506291E+02 -0.52979435735E+02 -0.68278585607E+02  0.90974082535E+02  0.00000000000E+00 0. -1.
          1    1    1    2  502    0 -0.63432469326E+02 -0.16765530593E+02  0.10396719022E+03  0.12293875639E+03  0.00000000000E+00 0. -1.
         22    1    3    3    0    0 -0.29387086351E+02 -0.20216362911E+02 -0.52505514635E+02  0.63475438089E+02  0.00000000000E+00 0. -1.
         22    1    3    3    0    0  0.64403049385E+02  0.89961329239E+02 -0.11354856389E+03  0.15853728233E+03  0.00000000000E+00 0. -1.
</event>
<event>
 7    1  0.5064652E-006  0.1253701E+03  0.7818608E-02  0.1355078E+00
          2   -1    0    0  502    0  0.00000000000E+00  0.00000000000E+00  0.35746170454E+04  0.35746170454E+04  0.00000000000E+00 0. -1.
          1   -1    0    0  501    0 -0.00000000000E+00 -0.00000000000E+00 -0.13254753905E+03  0.13254753905E+03  0.00000000000E+00 0. -1.
         25    2    1    2    0    0  0.10281132303E+02  0.14057899472E+03  0.11484062444E+04  0.11637567807E+04  0.12499914811E+03 0.  0.
          2    1    1    2  501    0  0.26177902918E+02 -0.12232610360E+03 -0.93324497268E+02  0.15607184248E+03  0.00000000000E+00 0. -1.
          1    1    1    2  502    0 -0.36459035220E+02 -0.18252891116E+02  0.23869877593E+04  0.23873359613E+04  0.00000000000E+00 0. -1.
         22    1    3    3    0    0  0.59520971919E+02  0.28578738568E+02  0.41123818861E+03  0.41650490773E+03  0.00000000000E+00 0.  1.
         22    1    3    3    0    0 -0.49239839617E+02  0.11200025615E+03  0.73716805575E+03  0.74725187293E+03  0.00000000000E+00 0.  1.
</event>
<event>
 7    1  0.5064652E-006  0.2751569E+03  0.7818608E-02  0.1144531E+00
          2   -1    0    0  502    0  0.00000000000E+00  0.00000000000E+00  0.11014843204E+04  0.11014843204E+04  0.00000000000E+00 0. -1.
          1   -1    0    0  501    0 -0.00000000000E+00 -0.00000000000E+00 -0.99657531532E+03  0.99657531532E+03  0.00000000000E+00 0. -1.
         25    2    1    2    0    0  0.32920286443E+02  0.18176659348E+03 -0.12450181594E+03  0.25543837001E+03  0.12500087573E+03 0.  0.
          2    1    1    2  501    0 -0.14440282984E+03 -0.28898201573E+03 -0.76805767923E+03  0.83323188928E+03  0.00000000000E+00 0. -1.
          1    1    1    2  502    0  0.11148254340E+03  0.10721542225E+03  0.99746850026E+03  0.10093893764E+04  0.00000000000E+00 0. -1.
         22    1    3    3    0    0 -0.45975481481E+02  0.75289785316E+02 -0.67959911201E+02  0.11135908675E+03  0.00000000000E+00 0. -1.
         22    1    3    3    0    0  0.78895767924E+02  0.10647680817E+03 -0.56541904735E+02  0.14407928326E+03  0.00000000000E+00 0. -1.
</event>
<event>
 7    1  0.5064652E-006  0.3948368E+02  0.7818608E-02  0.1564529E+00
          2   -1    0    0  502    0  0.00000000000E+00  0.00000000000E+00  0.18865242777E+03  0.18865242777E+03  0.00000000000E+00 0. -1.
          1   -1    0    0  501    0 -0.00000000000E+00 -0.00000000000E+00 -0.80466117609E+03  0.80466117609E+03  0.00000000000E+00 0. -1.
         25    2    1    2    0    0 -0.25118535967E+02  0.84284484599E+01 -0.15910043443E+03  0.20405528172E+03  0.12499452055E+03 0.  0.
          2    1    1    2  501    0  0.72446361830E+01  0.27080754850E+02 -0.62038467934E+03  0.62101771504E+03  0.00000000000E+00 0. -1.
          1    1    1    2  502    0  0.17873899784E+02 -0.35509203310E+02  0.16347636545E+03  0.16824060709E+03  0.00000000000E+00 0. -1.
         22    1    3    3    0    0 -0.17541814296E+02  0.60204462294E+02 -0.12962740457E+03  0.14399846022E+03  0.00000000000E+00 0.  1.
         22    1    3    3    0    0 -0.75767216706E+01 -0.51776013834E+02 -0.29473029860E+02  0.60056821502E+02  0.00000000000E+00 0.  1.
</event>
<event>
 7    1  0.5064652E-006  0.1721899E+03  0.7818608E-02  0.1363194E+00
          2   -1    0    0  502    0  0.00000000000E+00  0.00000000000E+00  0.30302080024E+04  0.30302080024E+04  0.00000000000E+00 0. -1.
          1   -1    0    0  501    0 -0.00000000000E+00 -0.00000000000E+00 -0.14463868340E+03  0.14463868340E+03  0.00000000000E+00 0. -1.
         25    2    1    2    0    0 -0.14346649513E+03 -0.12696439720E+03  0.43652497371E+03  0.49283295100E+03  0.12501068568E+03 0.  0.
          2    1    1    2  501    0  0.54222529668E+01  0.27191409857E+02 -0.11196483185E+03  0.11534685591E+03  0.00000000000E+00 0. -1.
          1    1    1    2  502    0  0.13804424216E+03  0.99772987347E+02  0.25610091772E+04  0.25666668789E+04  0.00000000000E+00 0. -1.
         22    1    3    3    0    0 -0.10663394336E+03 -0.14877899722E+03  0.31944734301E+03  0.36817467709E+03  0.00000000000E+00 0.  1.
         22    1    3    3    0    0 -0.36832551765E+02  0.21814600021E+02  0.11707763070E+03  0.12465827391E+03  0.00000000000E+00 0.  1.
</event>
<event>
 7    1  0.5064652E-006  0.5988492E+02  0.7818608E-02  0.1414693E+00
          2   -1    0    0  502    0  0.00000000000E+00  0.00000000000E+00  0.30220361555E+02  0.30220361555E+02  0.00000000000E+00 0. -1.
          1   -1    0    0  501    0 -0.00000000000E+00 -0.00000000000E+00 -0.11462525306E+04  0.11462525306E+04  0.00000000000E+00 0. -1.
         25    2    1    2    0    0  0.49034282800E+02 -0.13684798763E+02 -0.22092319628E+03  0.25888352051E+03  0.12498793515E+03 0.  0.
          2    1    1    2  501    0 -0.36764409722E+02 -0.47271365536E+02 -0.80987303125E+03  0.81208406619E+03  0.00000000000E+00 0. -1.
          1    1    1    2  502    0 -0.12269873078E+02  0.60956164300E+02 -0.85235941533E+02  0.10550530546E+03  0.00000000000E+00 0. -1.
         22    1    3    3    0    0  0.88745410230E+02 -0.26152261423E+02 -0.13869612537E+03  0.16672223549E+03  0.00000000000E+00 0.  1.
         22    1    3    3    0    0 -0.39711127431E+02  0.12467462659E+02 -0.82227070904E+02  0.92161285019E+02  0.00000000000E+00 0.  1.
</event>
<event>
 7    1  0.5064652E-006  0.1256335E+03  0.7818608E-02  0.1386982E+00
          2   -1    0    0  502    0  0.00000000000E+00  0.00000000000E+00  0.17908214442E+04  0.17908214442E+04  0.00000000000E+00 0. -1.
          1   -1    0    0  501    0 -0.00000000000E+00 -0.00000000000E+00 -0.11808396715E+03  0.11808396715E+03  0.00000000000E+00 0. -1.
         25    2    1    2    0    0  0.37568568583E+02 -0.93223522879E+02  0.17674592111E+03  0.23867425885E+03  0.12499703455E+03 0.  0.
          2    1    1    2  501    0 -0.51822170481E+02  0.12103968322E+03 -0.37121393333E+02  0.13679963490E+03  0.00000000000E+00 0. -1.
          1    1    1    2  502    0  0.14253601898E+02 -0.27816160341E+02  0.15331129492E+04  0.15334315176E+04  0.00000000000E+00 0. -1.
         22    1    3    3    0    0 -0.69882038815E+01 -0.30925348414E+02  0.15618466007E+03  0.15937019862E+03  0.00000000000E+00 0.  1.
         22    1    3    3    0    0  0.44556772464E+02 -0.62298174464E+02  0.20561261044E+02  0.79304060235E+02  0.00000000000E+00 0.  1.
</event>
<event>
 7    1  0.5064652E-006  0.9041191E+02  0.7818608E-02  0.1357699E+00
          2   -1    0    0  502    0  0.00000000000E+00  0.00000000000E+00  0.42225112572E+03  0.42225112572E+03  0.00000000000E+00 0. -1.
          1   -1    0    0  501    0 -0.00000000000E+00 -0.00000000000E+00 -0.23076916803E+03  0.23076916803E+03  0.00000000000E+00 0. -1.
         25    2    1    2    0    0 -0.35644481802E+00  0.44942488242E+02  0.40364580175E+02  0.13882979284E+03  0.12499783096E+03 0.  0.
          2    1    1    2  501    0 -0.25026125475E+02 -0.94072588109E+02 -0.16591920320E+03  0.19236720297E+03  0.00000000000E+00 0. -1.
          1    1    1    2  502    0  0.25382570293E+02  0.49130099868E+02  0.31703658071E+03  0.32182329793E+03  0.00000000000E+00 0. -1.
         22    1    3    3    0    0  0.61407982903E+02  0.11483766579E+02  0.16120186014E+02  0.64518816296E+02  0.00000000000E+00 0. -1.
         22    1    3    3    0    0 -0.61764427721E+02  0.33458721662E+02  0.24244394161E+02  0.74310976546E+02  0.00000000000E+00 0. -1.
</event>
<event>
 7    1  0.5064652E-006  0.5783822E+02  0.7818608E-02  0.1453532E+00
          2   -1    0    0  502    0  0.00000000000E+00  0.00000000000E+00  0.69319928116E+03  0.69319928116E+03  0.00000000000E+00 0. -1.
          1   -1    0    0  501    0 -0.00000000000E+00 -0.00000000000E+00 -0.54904994647E+02  0.54904994647E+02  0.00000000000E+00 0. -1.
         25    2    1    2    0    0  0.41262120258E+02 -0.15380991926E+02  0.78306517151E+02  0.15393758592E+03  0.12500292897E+03 0.  0.
          2    1    1    2  501    0 -0.15531685721E+02 -0.37610196217E+02  0.11169715398E+02  0.42196239914E+02  0.00000000000E+00 0. -1.
          1    1    1    2  502    0 -0.25730434537E+02  0.52991188144E+02  0.54881805397E+03  0.55197044997E+03  0.00000000000E+00 0. -1.
         22    1    3    3    0    0 -0.29686062780E+02  0.18300101479E+02 -0.94883249164E+01  0.36141172467E+02  0.00000000000E+00 0. -1.
         22    1    3    3    0    0  0.70948183038E+02 -0.33681093406E+02  0.87794842067E+02  0.11779641346E+03  0.00000000000E+00 0. -1.
</event>
<event>
 7    1  0.5064652E-006  0.1481726E+03  0.7818608E-02  0.1303873E+00
          2   -1    0    0  502    0  0.00000000000E+00  0.00000000000E+00  0.27667790856E+04  0.27667790856E+04  0.00000000000E+00 0. -1.
          1   -1    0    0  501    0 -0.00000000000E+00 -0.00000000000E+00 -0.48328288786E+03  0.48328288786E+03  0.00000000000E+00 0. -1.
         25    2    1    2    0    0  0.36726784260E+02  0.10846431167E+03 -0.54728363984E+02  0.17812587431E+03  0.12498107731E+03 0.  0.
          2    1    1    2  501    0 -0.36064095966E+02  0.40401675915E+02 -0.36279619365E+03  0.36681602004E+03  0.00000000000E+00 0. -1.
          1    1    1    2  502    0 -0.66268829320E+00 -0.14886598759E+03  0.27010207553E+04  0.27051200791E+04  0.00000000000E+00 0. -1.
         22    1    3    3    0    0  0.32467010960E+02  0.13514060733E+03 -0.31529236355E+02  0.14251730875E+03  0.00000000000E+00 0. -1.
         22    1    3    3    0    0  0.42597732992E+01 -0.26676295651E+02 -0.23199127628E+02  0.35608565556E+02  0.00000000000E+00 0. -1.
</event>
<event>
 7    1  0.5064652E-006  0.8523140E+02  0.7818608E-02  0.1346276E+00
          2   -1    0    0  502    0  0.00000000000E+00  0.00000000000E+00  0.63963403214E+03  0.63963403214E+03  0.00000000000E+00 0. -1.
          1   -1    0    0  501    0 -0.00000000000E+00 -0.00000000000E+00 -0.22076339742E+03  0.22076339742E+03  0.00000000000E+00 0. -1.
         25    2    1    2    0    0  0.26679748257E+02 -0.13024321075E+02  0.49014614290E+02  0.13751977623E+03  0.12501125763E+03 0.  0.
          2    1    1    2  501    0 -0.69072927419E+02  0.61829582273E+02 -0.16224607812E+03  0.18686293483E+03  0.00000000000E+00 0. -1.
          1    1    1    2  502    0  0.42393179162E+02 -0.48805261199E+02  0.53210209855E+03  0.53601471849E+03  0.00000000000E+00 0. -1.
         22    1    3    3    0    0  0.54704730011E+02 -0.46193687379E+02 -0.57963219559E+00  0.71601677444E+02  0.00000000000E+00 0.  1.
         22    1    3    3    0    0 -0.28024981754E+02  0.33169366304E+02  0.49594246486E+02  0.65918098788E+02  0.00000000000E+00 0.  1.
</event>
<event>
 7    1  0.5064652E-006  0.5434558E+02  0.7818608E-02  0.1483625E+00
          2   -1    0    0  502    0  0.00000000000E+00  0.00000000000E+00  0.10998713406E+03  0.10998713406E+03  0.00000000000E+00 0. -1.
          1   -1    0    0  501    0 -0.00000000000E+00 -0.00000000000E+00 -0.54686952270E+03  0.54686952270E+03  0.00000000000E+00 0. -1.
         25    2    1    2    0    0  0.31360938666E+01 -0.22216020410E+02 -0.10619578101E+03  0.16554803037E+03  0.12500087922E+03 0.  0.
          2    1    1    2  501    0 -0.52817610710E+01 -0.34491372479E+02 -0.40011806349E+03  0.40163667226E+03  0.00000000000E+00 0. -1.
          1    1    1    2  502    0  0.21456672045E+01  0.56707392888E+02  0.69431455853E+02  0.89671954132E+02  0.00000000000E+00 0. -1.
         22    1    3    3    0    0 -0.27838617271E+02  0.29618115615E+02  0.30109871240E+01  0.40758893847E+02  0.00000000000E+00 0.  1.
         22    1    3    3    0    0  0.30974711137E+02 -0.51834136025E+02 -0.10920676813E+03  0.12478913652E+03  0.00000000000E+00 0.  1.
</event>
<event>
 7    1  0.5064652E-006  0.7280555E+02  0.7818608E-02  0.1360216E+00
          2   -1    0    0  502    0  0.00000000000E+00  0.00000000000E+00  0.12912318525E+03  0.12912318525E+03  0.00000000000E+00 0. -1.
          1   -1    0    0  501    0 -0.00000000000E+00 -0.00000000000E+00 -0.27269172056E+04  0.27269172056E+04  0.00000000000E+00 0. -1.
         25    2    1    2    0    0  0.56792742470E+02 -0.11522977443E+02 -0.59728609795E+03  0.61297158402E+03  0.12500114164E+03 0.  0.
          2    1    1    2  501    0 -0.26634420104E+02  0.71612357905E+02 -0.21117263192E+04  0.21131080827E+04  0.00000000000E+00 0. -1.
          1    1    1    2  502    0 -0.30158322366E+02 -0.60089380462E+02  0.11121839672E+03  0.12996072415E+03  0.00000000000E+00 0. -1.
         22    1    3    3    0    0 -0.19226116585E+01 -0.59517744102E+02 -0.32047089830E+03  0.32595652311E+03  0.00000000000E+00 0.  1.
         22    1    3    3    0    0  0.58715354128E+02  0.47994766659E+02 -0.27681519965E+03  0.28701506091E+03  0.00000000000E+00 0.  1.
</event>
<event>
 7    1  0.5064652E-006  0.7269838E+02  0.7818608E-02  0.1427756E+00
          2   -1    0    0  502    0  0.00000000000E+00  0.00000000000E+00  0.77705722727E+02  0.77705722727E+02  0.00000000000E+00 0. -1.
          1   -1    0    0  501    0 -0.00000000000E+00 -0.00000000000E+00 -0.57979299808E+03  0.57979299808E+03  0.00000000000E+00 0. -1.
         25    2    1    2    0    0  0.57186450563E+02 -0.69424649737E+02 -0.31293404569E+03  0.34877384740E+03  0.12500163021E+03 0.  0.
          2    1    1    2  501    0 -0.62494618211E+02  0.30541440978E+02 -0.23691116565E+03  0.24691143621E+03  0.00000000000E+00 0. -1.
          1    1    1    2  502    0  0.53081676477E+01  0.38883208760E+02  0.47757935994E+02  0.61813437193E+02  0.00000000000E+00 0. -1.
         22    1    3    3    0    0  0.44811982658E+02  0.29818924235E+02 -0.10201219251E+03  0.11534196744E+03  0.00000000000E+00 0. -1.
         22    1    3    3    0    0  0.12374467906E+02 -0.99243573972E+02 -0.21092185319E+03  0.23343187996E+03  0.00000000000E+00 0. -1.
</event>
<event>
 7    1  0.5064652E-006  0.2045363E+03  0.7818608E-02  0.1343657E+00
          2   -1    0    0  502    0  0.00000000000E+00  0.00000000000E+00  0.13282282545E+04  0.13282282545E+04  0.00000000000E+00 0. -1.
          1   -1    0    0  501    0 -0.00000000000E+00 -0.00000000000E+00 -0.12215342559E+04  0.12215342559E+04  0.00000000000E+00 0. -1.
         25    2    1    2    0    0 -0.21111594473E+03  0.50793856289E+02  0.10759441154E+03  0.27267432946E+03  0.12499909838E+03 0.  0.
          2    1    1    2  501    0  0.20250503946E+03 -0.24621976116E+02 -0.11296907959E+04  0.11479615965E+04  0.00000000000E+00 0. -1.
          1    1    1    2  502    0  0.86109052773E+01 -0.26171880173E+02  0.11287903830E+04  0.11291265845E+04  0.00000000000E+00 0. -1.
         22    1    3    3    0    0 -0.13115772748E+02 -0.30494711962E+02  0.30782852267E+02  0.45271789739E+02  0.00000000000E+00 0.  1.
         22    1    3    3    0    0 -0.19800017199E+03  0.81288568251E+02  0.76811559271E+02  0.22740253972E+03  0.00000000000E+00 0.  1.
</event>
<event>
 7    1  0.5064652E-006  0.1020110E+03  0.7818608E-02  0.1352347E+00
          2   -1    0    0  502    0  0.00000000000E+00  0.00000000000E+00  0.61151856106E+03  0.61151856106E+03  0.00000000000E+00 0. -1.
          1   -1    0    0  501    0 -0.00000000000E+00 -0.00000000000E+00 -0.99585775726E+03  0.99585775726E+03  0.00000000000E+00 0. -1.
         25    2    1    2    0    0  0.58247802609E+02 -0.21657770399E+02  0.40300168861E+03  0.42649515925E+03  0.12500357720E+03 0.  0.
          2    1    1    2  501    0 -0.10218716166E+03 -0.47876311201E+01 -0.97805589283E+03  0.98339130915E+03  0.00000000000E+00 0. -1.
          1    1    1    2  502    0  0.43939359051E+02  0.26445401519E+02  0.19071500801E+03  0.19748984991E+03  0.00000000000E+00 0. -1.
         22    1    3    3    0    0  0.55387499160E+02 -0.57760056367E+02  0.36627831542E+03  0.37491839582E+03  0.00000000000E+00 0. -1.
         22    1    3    3    0    0  0.28603034488E+01  0.36102285967E+02  0.36723373195E+02  0.51576763437E+02  0.00000000000E+00 0. -1.
</event>
<event>
 7    1  0.5064652E-006  0.8938345E+02  0.7818608E-02  0.1368453E+00
          2   -1    0    0  502    0  0.00000000000E+00  0.00000000000E+00  0.13204505490E+04  0.13204505490E+04  0.00000000000E+00 0. -1.
          1   -1    0    0  501    0 -0.00000000000E+00 -0.00000000000E+00 -0.19314182590E+03  0.19314182590E+03  0.00000000000E+00 0. -1.
         25    2    1    2    0    0  0.86916826110E+02 -0.10596299435E+03  0.22132205474E+03  0.28877498279E+03  0.12499939176E+03 0.  0.
          2    1    1    2  501    0 -0.38133076616E+02  0.34051738752E+02 -0.15349149462E+03  0.16178161627E+03  0.00000000000E+00 0. -1.
          1    1    1    2  502    0 -0.48783749494E+02  0.71911255597E+02  0.10594781630E+04  0.10630357759E+04  0.00000000000E+00 0. -1.
         22    1    3    3    0    0  0.11208523143E+03 -0.97341081496E+02  0.21526366357E+03  0.26148963670E+03  0.00000000000E+00 0. -1.
         22    1    3    3    0    0 -0.25168405316E+02 -0.86219128529E+01  0.60583911670E+01  0.27285346084E+02  0.00000000000E+00 0. -1.
</event>
<event>
 7    1  0.5064652E-006  0.5767298E+02  0.7818608E-02  0.1412592E+00
          2   -1    0    0  502    0  0.00000000000E+00  0.00000000000E+00  0.13383140723E+04  0.13383140723E+04  0.00000000000E+00 0. -1.
          1   -1    0    0  501    0 -0.00000000000E+00 -0.00000000000E+00 -0.50774504003E+03  0.50774504003E+03  0.00000000000E+00 0. -1.
         25    2    1    2    0    0  0.57030522743E+01 -0.10989706688E+03 -0.19990407611E+02  0.16773578895E+03  0.12500315350E+03 0.  0.
          2    1    1    2  501    0  0.73731837122E+01  0.55872008327E+02 -0.41134884188E+03  0.41519141955E+03  0.00000000000E+00 0. -1.
          1    1    1    2  502    0 -0.13076235987E+02  0.54025058551E+02  0.12619082817E+04  0.12631319038E+04  0.00000000000E+00 0. -1.
         22    1    3    3    0    0 -0.44401344485E+02 -0.77324236968E+02  0.25375037842E+02  0.92706038424E+02  0.00000000000E+00 0.  1.
         22    1    3    3    0    0  0.50104396759E+02 -0.32572829910E+02 -0.45365445453E+02  0.75029750526E+02  0.00000000000E+00 0.  1.
</event>
<event>
 7    1  0.5064652E-006  0.5616570E+02  0.7818608E-02  0.1521347E+00
          2   -1    0    0  502    0  0.00000000000E+00  0.00000000000E+00  0.35084212871E+03  0.35084212871E+03  0.00000000000E+00 0. -1.
          1   -1    0    0  501    0 -0.00000000000E+00 -0.00000000000E+00 -0.24042972660E+03  0.24042972660E+03  0.00000000000E+00 0. -1.
         25    2    1    2    0    0 -0.39378352010E+02 -0.56990975611E+01  0.10312120235E+03  0.16686074384E+03  0.12500156455E+03 0.  0.
          2    1    1    2  501    0  0.54577967271E+02 -0.15488138361E+02 -0.20388501315E+03  0.21163113081E+03  0.00000000000E+00 0. -1.
          1    1    1    2  502    0 -0.15199615260E+02  0.21187235922E+02  0.21117621291E+03  0.21277998066E+03  0.00000000000E+00 0. -1.
         22    1    3    3    0    0 -0.30768348874E+02 -0.24141360607E+02  0.12850526874E+03  0.13432460936E+03  0.00000000000E+00 0.  1.
         22    1    3    3    0    0 -0.86100031358E+01  0.18442263045E+02 -0.25384066392E+02  0.32536134479E+02  0.00000000000E+00 0.  1.
</event>
<event>
 7    1  0.5064652E-006  0.9717968E+02  0.7818608E-02  0.1315366E+00
          2   -1    0    0  502    0  0.00000000000E+00  0.00000000000E+00  0.37331876940E+03  0.37331876940E+03  0.00000000000E+00 0. -1.
          1   -1    0    0  501    0 -0.00000000000E+00 -0.00000000000E+00 -0.53927020842E+03  0.53927020842E+03  0.00000000000E+00 0. -1.
         25    2    1    2    0    0 -0.26255692955E+01 -0.53846004502E+02 -0.11336175822E+03  0.17715068466E+03  0.12500076413E+03 0.  0.
          2    1    1    2  501    0 -0.61726822839E+02  0.91166596376E+02 -0.38209453500E+03  0.39764026787E+03  0.00000000000E+00 0. -1.
          1    1    1    2  502    0  0.64352392134E+02 -0.37320591874E+02  0.32950485420E+03  0.33779802529E+03  0.00000000000E+00 0. -1.
         22    1    3    3    0    0 -0.59092063880E+02 -0.53154142684E+02 -0.70719624816E+02  0.10638844031E+03  0.00000000000E+00 0. -1.
         22    1    3    3    0    0  0.56466494585E+02 -0.69186181774E+00 -0.42642133409E+02  0.70762244348E+02  0.00000000000E+00 0. -1.
</event>
<event>
 7    1  0.5064652E-006  0.3187038E+03  0.7818608E-02  0.1126452E+00
          2   -1    0    0  502    0  0.00000000000E+00  0.00000000000E+00  0.49947320451E+03  0.49947320451E+03  0.00000000000E+00 0. -1.
          1   -1    0    0  501    0 -0.00000000000E+00 -0.00000000000E+00 -0.13313462719E+04  0.13313462719E+04  0.00000000000E+00 0. -1.
         25    2    1    2    0    0  0.10349389575E+03 -0.26318008894E+03  0.15302378591E+03  0.34498631775E+03  0.12499813883E+03 0.  0.
          2    1    1    2  501    0  0.16462452118E+03 -0.24042129382E+02 -0.10707895183E+04  0.10836371392E+04  0.00000000000E+00 0. -1.
          1    1    1    2  502    0 -0.26811841693E+03  0.28722221833E+03  0.85892664963E+02  0.40219601949E+03  0.00000000000E+00 0. -1.
         22    1    3    3    0    0  0.10973112287E+03 -0.21181833281E+03  0.72598711331E+02  0.24935616762E+03  0.00000000000E+00 0.  1.
         22    1    3    3    0    0 -0.62372271166E+01 -0.51361756130E+02  0.80425074575E+02  0.95630150137E+02  0.00000000000E+00 0.  1.
</event>
<event>
 7    1  0.5064652E-006  0.9462849E+02  0.7818608E-02  0.1374401E+00
          2   -1    0    0  502    0  0.00000000000E+00  0.00000000000E+00  0.11173057560E+04  0.11173057560E+04  0.00000000000E+00 0. -1.
          1   -1    0    0  501    0 -0.00000000000E+00 -0.00000000000E+00 -0.28387618293E+03  0.28387618293E+03  0.00000000000E+00 0. -1.
         25    2    1    2    0    0  0.11970570416E+03 -0.61763400457E+02  0.29738658663E+03  0.34958255021E+03  0.12500001703E+03 0.  0.
          2    1    1    2  501    0 -0.34637766955E+02  0.30231092978E+02 -0.25310847011E+03  0.25725005641E+03  0.00000000000E+00 0. -1.
          1    1    1    2  502    0 -0.85067937209E+02  0.31532307479E+02  0.78915145656E+03  0.79434933231E+03  0.00000000000E+00 0. -1.
         22    1    3    3    0    0  0.10103046344E+02  0.20652604166E+02  0.10044775324E+01  0.23013269637E+02  0.00000000000E+00 0. -1.
         22    1    3    3    0    0  0.10960265782E+03 -0.82416004623E+02  0.29638210910E+03  0.32656928057E+03  0.00000000000E+00 0. -1.
</event>
<event>
 7    1  0.5064652E-006  0.1617429E+03  0.7818608E-02  0.1345183E+00
          2   -1    0    0  502    0  0.00000000000E+00  0.00000000000E+00  0.38839557570E+03  0.38839557570E+03  0.00000000000E+00 0. -1.
          1   -1    0    0  501    0 -0.00000000000E+00 -0.00000000000E+00 -0.10145816890E+04  0.10145816890E+04  0.00000000000E+00 0. -1.
         25    2    1    2    0    0 -0.11927419165E+03  0.12210898131E+03  0.11346145179E+03  0.24007077477E+03  0.12499415886E+03 0.  0.
          2    1    1    2  501    0  0.87669341112E+02 -0.13565939265E+03 -0.94296647448E+03  0.95670013911E+03  0.00000000000E+00 0. -1.
          1    1    1    2  502    0  0.31604850540E+02  0.13550411344E+02  0.20331890936E+03  0.20620635085E+03  0.00000000000E+00 0. -1.
         22    1    3    3    0    0 -0.38042533418E+02  0.11016788824E+03  0.24664398362E+02  0.11913240741E+03  0.00000000000E+00 0. -1.
         22    1    3    3    0    0 -0.81231658234E+02  0.11941093061E+02  0.88797053426E+02  0.12093836736E+03  0.00000000000E+00 0. -1.
</event>
<event>
 7    1  0.5064652E-006  0.7946871E+02  0.7818608E-02  0.1413696E+00
          2   -1    0    0  502    0  0.00000000000E+00  0.00000000000E+00  0.19619328433E+03  0.19619328433E+03  0.00000000000E+00 0. -1.
          1   -1    0    0  501    0 -0.00000000000E+00 -0.00000000000E+00 -0.14714983260E+04  0.14714983260E+04  0.00000000000E+00 0. -1.
         25    2    1    2    0    0  0.12693974183E+02  0.79074136188E+02 -0.53383704369E+03  0.55409523221E+03  0.12500272458E+03 0.  0.
          2    1    1    2  501    0  0.27193271325E+02 -0.76131938334E+02 -0.92359660021E+03  0.92712794476E+03  0.00000000000E+00 0. -1.
          1    1    1    2  502    0 -0.39887245508E+02 -0.29421978542E+01  0.18212860223E+03  0.18646843334E+03  0.00000000000E+00 0. -1.
         22    1    3    3    0    0  0.22024886062E+02  0.91911060497E+02 -0.52918320780E+03  0.53755707238E+03  0.00000000000E+00 0.  1.
         22    1    3    3    0    0 -0.93309118795E+01 -0.12836924309E+02 -0.46538358893E+01  0.16538159834E+02  0.00000000000E+00 0.  1.
</event>
<event>
 7    1  0.5064652E-006  0.7023421E+02  0.7818608E-02  0.1367219E+00
          2   -1    0    0  502    0  0.00000000000E+00  0.00000000000E+00  0.23733300746E+04  0.23733300746E+04  0.00000000000E+00 0. -1.
          1   -1    0    0  501    0 -0.00000000000E+00 -0.00000000000E+00 -0.18861790174E+02  0.18861790174E+02  0.00000000000E+00 0. -1.
         25    2    1    2    0    0 -0.54957832127E+02  0.12514214529E+02  0.62500179847E+03  0.63986622493E+03  0.12499827535E+03 0.  0.
          2    1    1    2  501    0  0.30703567806E+02  0.58121969293E+02  0.91534064220E+02  0.11269142515E+03  0.00000000000E+00 0. -1.
          1    1    1    2  502    0  0.24254264321E+02 -0.70636183821E+02  0.16379324218E+04  0.16396342147E+04  0.00000000000E+00 0. -1.
         22    1    3    3    0    0 -0.80470855473E+02  0.44433846031E+02  0.35114594225E+03  0.36297850903E+03  0.00000000000E+00 0.  1.
         22    1    3    3    0    0  0.25513023346E+02 -0.31919631502E+02  0.27385585621E+03  0.27688771590E+03  0.00000000000E+00 0.  1.
</event>
<event>
 7    1  0.5064652E-006  0.9028755E+02  0.7818608E-02  0.1479099E+00
          2   -1    0    0  502    0  0.00000000000E+00  0.00000000000E+00  0.55503030769E+03  0.55503030769E+03  0.00000000000E+00 0. -1.
          1   -1    0    0  501    0 -0.00000000000E+00 -0.00000000000E+00 -0.35344553960E+02  0.35344553960E+02  0.00000000000E+00 0. -1.
         25    2    1    2    0    0 -0.72906448643E+02  0.41382420726E+02  0.27487024682E+03  0.31337979442E+03  0.12500155186E+03 0.  0.
          2    1    1    2  501    0  0.70121362382E+02 -0.62886750630E+02  0.13226884290E+03  0.16237855667E+03  0.00000000000E+00 0. -1.
          1    1    1    2  502    0  0.27850862609E+01  0.21504329903E+02  0.11254666401E+03  0.11461651055E+03  0.00000000000E+00 0. -1.
         22    1    3    3    0    0 -0.74851609272E+02 -0.28559771253E+02  0.15842233110E+03  0.17752762865E+03  0.00000000000E+00 0.  1.
         22    1    3    3    0    0  0.19451606292E+01  0.69942191979E+02  0.11644791572E+03  0.13585216577E+03  0.00000000000E+00 0.  1.
</event>
<event>
 7    1  0.5064652E-006  0.1078575E+03  0.7818608E-02  0.1290085E+00
          2   -1    0    0  502    0  0.00000000000E+00  0.00000000000E+00  0.18109434358E+03  0.18109434358E+03  0.00000000000E+00 0. -1.
          1   -1    0    0  501    0 -0.00000000000E+00 -0.00000000000E+00 -0.52289933924E+03  0.52289933924E+03  0.00000000000E+00 0. -1.
         25    2    1    2    0    0  0.12873838142E+02 -0.90919857578E+02 -0.13868631180E+03  0.20806251577E+03  0.12499584463E+03 0.  0.
          2    1    1    2  501    0  0.71520188966E+02  0.95775699214E+02 -0.32574900247E+03  0.34698780180E+03  0.00000000000E+00 0. -1.
          1    1    1    2  502    0 -0.84394027108E+02 -0.48558416357E+01  0.12263031861E+03  0.14894336525E+03  0.00000000000E+00 0. -1.
         22    1    3    3    0    0  0.61503337400E+02 -0.56812033412E+02 -0.11896676301E+03  0.14547631544E+03  0.00000000000E+00 0.  1.
         22    1    3    3    0    0 -0.48629499258E+02 -0.34107824167E+02 -0.19719548794E+02  0.62586200333E+02  0.00000000000E+00 0.  1.
</event>
<event>
 7    1  0.5064652E-006  0.1480922E+03  0.7818608E-02  0.1230295E+00
          2   -1    0    0  502    0  0.00000000000E+00  0.00000000000E+00  0.12589756754E+04  0.12589756754E+04  0.00000000000E+00 0. -1.
          1   -1    0    0  501    0 -0.00000000000E+00 -0.00000000000E+00 -0.62951214617E+03  0.62951214617E+03  0.00000000000E+00 0. -1.
         25    2    1    2    0    0 -0.17959585830E+03  0.15833928175E+03  0.10622142631E+03  0.29023101972E+03  0.12500021174E+03 0.  0.
          2    1    1    2  501    0  0.48325752483E+02 -0.99722305649E+02 -0.52684566948E+03  0.53837373269E+03  0.00000000000E+00 0. -1.
          1    1    1    2  502    0  0.13127010582E+03 -0.58616976097E+02  0.10500877724E+04  0.10598830692E+04  0.00000000000E+00 0. -1.
         22    1    3    3    0    0 -0.12334726651E+03  0.93828050931E+02  0.15039942955E+01  0.15498552608E+03  0.00000000000E+00 0.  1.
         22    1    3    3    0    0 -0.56248591794E+02  0.64511230815E+02  0.10471743202E+03  0.13524549364E+03  0.00000000000E+00 0.  1.
</event>
<event>
 7    1  0.5064652E-006  0.1588555E+03  0.7818608E-02  0.1283548E+00
          2   -1    0    0  502    0  0.00000000000E+00  0.00000000000E+00  0.44856221030E+03  0.44856221030E+03  0.00000000000E+00 0. -1.
          1   -1    0    0  501    0 -0.00000000000E+00 -0.00000000000E+00 -0.26074255533E+03  0.26074255533E+03  0.00000000000E+00 0. -1.
         25    2    1    2    0    0 -0.69583995956E+02  0.13756309190E+03  0.16927107293E+03  0.26084781385E+03  0.12499339628E+03 0.  0.
          2    1    1    2  501    0  0.54170258790E+02  0.28128576084E+02 -0.17960772636E+03  0.18969599125E+03  0.00000000000E+00 0. -1.
          1    1    1    2  502    0  0.15413737166E+02 -0.16569166798E+03  0.19815630840E+03  0.25876096053E+03  0.00000000000E+00 0. -1.
         22    1    3    3    0    0 -0.63529054672E+02  0.15384577840E+03  0.17597937866E+03  0.24222552721E+03  0.00000000000E+00 0. -1.
         22    1    3    3    0    0 -0.60549412842E+01 -0.16282686502E+02 -0.67083057381E+01  0.18622286636E+02  0.00000000000E+00 0. -1.
</event>
<event>
 7    1  0.5064652E-006  0.9361781E+02  0.7818608E-02  0.1317898E+00
          2   -1    0    0  502    0  0.00000000000E+00  0.00000000000E+00  0.46105662928E+03  0.46105662928E+03  0.00000000000E+00 0. -1.
          1   -1    0    0  501    0 -0.00000000000E+00 -0.00000000000E+00 -0.12379378059E+04  0.12379378059E+04  0.00000000000E+00 0. -1.
         25    2    1    2    0    0 -0.82281429516E+02 -0.83797695918E+02  0.64886759076E+02  0.18338179605E+03  0.12500521643E+03 0.  0.
          2    1    1    2  501    0 -0.10953478886E+02  0.74686437872E+02 -0.11709397119E+04  0.11733702960E+04  0.00000000000E+00 0. -1.
          1    1    1    2  502    0  0.93234908402E+02  0.91112580463E+01  0.32917177620E+03  0.34224234310E+03  0.00000000000E+00 0. -1.
         22    1    3    3    0    0 -0.70619510042E+01 -0.45803726365E+02 -0.30976875038E+02  0.55744230984E+02  0.00000000000E+00 0.  1.
         22    1    3    3    0    0 -0.75219478511E+02 -0.37993969554E+02  0.95863634115E+02  0.12763756506E+03  0.00000000000E+00 0.  1.
</event>
<event>
 7    1  0.5064652E-006  0.9827749E+02  0.7818608E-02  0.1442380E+00
          2   -1    0    0  502    0  0.00000000000E+00  0.00000000000E+00  0.63987157448E+03  0.63987157448E+03  0.00000000000E+00 0. -1.
          1   -1    0    0  501    0 -0.00000000000E+00 -0.00000000000E+00 -0.84571754122E+03  0.84571754122E+03  0.00000000000E+00 0. -1.
         25    2    1    2    0    0  0.85275267555E+02  0.83532184387E+01 -0.35728569192E+03  0.38809735638E+03  0.12499937944E+03 0.  0.
          2    1    1    2  501    0 -0.10282360767E+03  0.10837305655E+02 -0.46709968968E+03  0.47840595898E+03  0.00000000000E+00 0. -1.
          1    1    1    2  502    0  0.17548340118E+02 -0.19190524094E+02  0.61853941485E+03  0.61908580034E+03  0.00000000000E+00 0. -1.
         22    1    3    3    0    0  0.23232174278E+02  0.19826420248E+02 -0.59186948058E+01  0.31110316773E+02  0.00000000000E+00 0.  1.
         22    1    3    3    0    0  0.62043093276E+02 -0.11473201809E+02 -0.35136699711E+03  0.35698703960E+03  0.00000000000E+00 0.  1.
</event>
<event>
 7    1  0.5064652E-006  0.3085818E+02  0.7818608E-02  0.1590196E+00
          2   -1    0    0  502    0  0.00000000000E+00  0.00000000000E+00  0.49136591626E+03  0.49136591626E+03  0.00000000000E+00 0. -1.
          1   -1    0    0  501    0 -0.00000000000E+00 -0.00000000000E+00 -0.55940524151E+03  0.55940524151E+03  0.00000000000E+00 0. -1.
         25    2    1    2    0    0  0.53135265218E+02 -0.14455665727E+01 -0.36657073700E+03  0.39092818636E+03  0.12500118239E+03 0.  0.
          2    1    1    2  501    0 -0.26845940608E+02 -0.14674797437E+02 -0.17885934827E+03  0.18145721443E+03  0.00000000000E+00 0. -1.
          1    1    1    2  502    0 -0.26289324610E+02  0.16120364009E+02  0.47739076002E+03  0.47838575697E+03  0.00000000000E+00 0. -1.
         22    1    3    3    0    0  0.81633111664E+02  0.66278497174E+01 -0.13821007436E+03  0.16065465436E+03  0.00000000000E+00 0.  1.
         22    1    3    3    0    0 -0.28497846446E+02 -0.80734162901E+01 -0.22836066264E+03  0.23027353201E+03  0.00000000000E+00 0.  1.
</event>
<event>
 7    1  0.5064652E-006  0.8071243E+02  0.7818608E-02  0.1339746E+00
          2   -1    0    0  502    0  0.00000000000E+00  0.00000000000E+00  0.13167842540E+03  0.13167842540E+03  0.00000000000E+00 0. -1.
          1   -1    0    0  501    0 -0.00000000000E+00 -0.00000000000E+00 -0.78703955591E+03  0.78703955591E+03  0.00000000000E+00 0. -1.
         25    2    1    2    0    0  0.78154789937E+02 -0.40647069717E+01 -0.25781848220E+03  0.29702357134E+03  0.12501175600E+03 0.  0.
          2    1    1    2  501    0 -0.56674135427E+02 -0.64887197346E+02 -0.49385441547E+03  0.50131276633E+03  0.00000000000E+00 0. -1.
          1    1    1    2  502    0 -0.21480654510E+02  0.68951904318E+02  0.96311767170E+02  0.12038164363E+03  0.00000000000E+00 0. -1.
         22    1    3    3    0    0 -0.17636373334E+02 -0.41039415829E+02 -0.72311189313E+02  0.84995196428E+02  0.00000000000E+00 0. -1.
         22    1    3    3    0    0  0.95791163271E+02  0.36974708857E+02 -0.18550729289E+03  0.21202837492E+03  0.00000000000E+00 0. -1.
</event>
<event>
 7    1  0.5064652E-006  0.2213728E+03  0.7818608E-02  0.1219178E+00
          2   -1    0    0  502    0  0.00000000000E+00  0.00000000000E+00  0.90049568687E+03  0.90049568687E+03  0.00000000000E+00 0. -1.
          1   -1    0    0  501    0 -0.00000000000E+00 -0.00000000000E+00 -0.71084553241E+03  0.71084553241E+03  0.00000000000E+00 0. -1.
         25    2    1    2    0    0 -0.16374122218E+03  0.10681714846E+03  0.80305169170E+02  0.24555083898E+03  0.12500081312E+03 0.  0.
          2    1    1    2  501    0  0.13185053493E+03 -0.18369847273E+03 -0.60538215900E+03  0.64623312425E+03  0.00000000000E+00 0. -1.
          1    1    1    2  502    0  0.31890687259E+02  0.76881324274E+02  0.71472714429E+03  0.71955725606E+03  0.00000000000E+00 0. -1.
         22    1    3    3    0    0 -0.11025626772E+03  0.98760462064E+01  0.76889709234E+02  0.13478133493E+03  0.00000000000E+00 0.  1.
         22    1    3    3    0    0 -0.53484954467E+02  0.96941102252E+02  0.34154599363E+01  0.11076950405E+03  0.00000000000E+00 0.  1.
</event>
<event>
 7    1  0.5064652E-006  0.7879831E+02  0.7818608E-02  0.1336675E+00
          2   -1    0    0  502    0  0.00000000000E+00  0.00000000000E+00  0.37924397552E+04  0.37924397552E+04  0.00000000000E+00 0. -1.
          1   -1    0    0  501    0 -0.00000000000E+00 -0.00000000000E+00 -0.19400819695E+02  0.19400819695E+02  0.00000000000E+00 0. -1.
         25    2    1    2    0    0  0.68291869488E+02  0.72521923829E+00  0.15309268557E+04  0.15375389442E+04  0.12499864811E+03 0.  0.
          2    1    1    2  501    0 -0.41692544828E+02  0.70440272623E+02  0.93178772796E+02  0.12402573927E+03  0.00000000000E+00 0. -1.
          1    1    1    2  502    0 -0.26599324660E+02 -0.71165491861E+02  0.21489333070E+04  0.21502758914E+04  0.00000000000E+00 0. -1.
         22    1    3    3    0    0  0.59050413427E+02 -0.43571794247E+02  0.47430932258E+03  0.47995289984E+03  0.00000000000E+00 0.  1.
         22    1    3    3    0    0  0.92414560612E+01  0.44297013485E+02  0.10566175331E+04  0.10575860443E+04  0.00000000000E+00 0.  1.
</event>
<event>
 7    1  0.5064652E-006  0.9418270E+02  0.7818608E-02  0.1320181E+00
          2   -1    0    0  502    0  0.00000000000E+00  0.00000000000E+00  0.30825312544E+03  0.30825312544E+03  0.00000000000E+00 0. -1.
          1   -1    0    0  501    0 -0.00000000000E+00 -0.00000000000E+00 -0.10523013716E+04  0.10523013716E+04  0.00000000000E+00 0. -1.
         25    2    1    2    0    0 -0.93332825617E+01  0.27936558212E+02 -0.98254628730E+02  0.16170448249E+03  0.12500722436E+03 0.  0.
          2    1    1    2  501    0 -0.60058868801E+02  0.42396830047E+02 -0.91196963853E+03  0.91492796466E+03  0.00000000000E+00 0. -1.
          1    1    1    2  502    0  0.69392151363E+02 -0.70333388259E+02  0.26617602112E+03  0.28392204986E+03  0.00000000000E+00 0. -1.
         22    1    3    3    0    0  0.19166479877E+02 -0.45583807335E+02 -0.34350861850E+02  0.60209792824E+02  0.00000000000E+00 0.  1.
         22    1    3    3    0    0 -0.28499762438E+02  0.73520365548E+02 -0.63903766880E+02  0.10149468967E+03  0.00000000000E+00 0.  1.
</event>
<event>
 7    1  0.5064652E-006  0.3123322E+02  0.7818608E-02  0.1601851E+00
          2   -1    0    0  502    0  0.00000000000E+00  0.00000000000E+00  0.35514400886E+03  0.35514400886E+03  0.00000000000E+00 0. -1.
          1   -1    0    0  501    0 -0.00000000000E+00 -0.00000000000E+00 -0.13710356827E+03  0.13710356827E+03  0.00000000000E+00 0. -1.
         25    2    1    2    0    0 -0.12422063799E+02  0.19624143732E+01  0.25766689831E+03  0.28665754343E+03  0.12498863141E+03 0.  0.
          2    1    1    2  501    0  0.94414689508E+01 -0.29974837236E+02 -0.11810182957E+03  0.12221159663E+03  0.00000000000E+00 0. -1.
          1    1    1    2  502    0  0.29805948482E+01  0.28012422862E+02  0.78475371848E+02  0.83378437062E+02  0.00000000000E+00 0. -1.
         22    1    3    3    0    0 -0.35886194158E+02 -0.45750348578E+02  0.19972584932E+03  0.20801761515E+03  0.00000000000E+00 0.  1.
         22    1    3    3    0    0  0.23464130359E+02  0.47712762952E+02  0.57941048990E+02  0.78639928281E+02  0.00000000000E+00 0.  1.
</event>
<event>
 7    1  0.5064652E-006  0.1654516E+03  0.7818608E-02  0.1251980E+00
          2   -1    0    0  502    0  0.00000000000E+00  0.00000000000E+00  0.13601054104E+04  0.13601054104E+04  0.00000000000E+00 0. -1.
          1   -1    0    0  501    0 -0.00000000000E+00 -0.00000000000E+00 -0.28588823055E+03  0.28588823055E+03  0.00000000000E+00 0. -1.
         25    2    1    2    0    0 -0.13994741413E+01 -0.89975273282E+02 -0.72218502160E+02  0.17011082128E+03  0.12499868452E+03 0.  0.
          2    1    1    2  501    0  0.13426881238E+02 -0.78475309714E+02 -0.14929282754E+03  0.16919516461E+03  0.00000000000E+00 0. -1.
          1    1    1    2  502    0 -0.12027407096E+02  0.16845058300E+03  0.12957285096E+04  0.13066876551E+04  0.00000000000E+00 0. -1.
         22    1    3    3    0    0 -0.60196269496E+02 -0.37654345770E+02 -0.54313090795E+02  0.89394364746E+02  0.00000000000E+00 0. -1.
         22    1    3    3    0    0  0.58796795354E+02 -0.52320927511E+02 -0.17905411365E+02  0.80716456536E+02  0.00000000000E+00 0. -1.
</event>
<event>
 7    1  0.5064652E-006  0.9361471E+02  0.7818608E-02  0.1457555E+00
          2   -1    0    0  502    0  0.00000000000E+00  0.00000000000E+00  0.32463173084E+04  0.32463173084E+04  0.00000000000E+00 0. -1.
          1   -1    0    0  501    0 -0.00000000000E+00 -0.00000000000E+00 -0.92310125923E+03  0.92310125923E+03  0.00000000000E+00 0. -1.
         25    2    1    2    0    0  0.33162769284E+02 -0.11172700682E+03  0.39165613531E+03  0.42732011085E+03  0.12500102194E+03 0.  0.
          2    1    1    2  501    0 -0.11089140155E+02  0.21747640104E+02 -0.90434808052E+03  0.90467750034E+03  0.00000000000E+00 0. -1.
          1    1    1    2  502    0 -0.22073629130E+02  0.89979366711E+02  0.28359079944E+04  0.28374209565E+04  0.00000000000E+00 0. -1.
         22    1    3    3    0    0  0.26569095091E+02  0.10313120521E+02  0.18535936847E+03  0.18753765688E+03  0.00000000000E+00 0. -1.
         22    1    3    3    0    0  0.65936741929E+01 -0.12204012734E+03  0.20629676684E+03  0.23978245397E+03  0.00000000000E+00 0. -1.
</event>
<event>
 7    1  0.7324469E-006  0.1730843E+03  0.7818608E-02  0.1234881E+00
          2   -1    0    0  502    0  0.00000000000E+00  0.00000000000E+00  0.76155093413E+03  0.76155093413E+03  0.00000000000E+00 0. -1.
          1   -1    0    0  501    0 -0.00000000000E+00 -0.00000000000E+00 -0.17593424271E+04  0.17593424271E+04  0.00000000000E+00 0. -1.
         25    2    1    2    0    0  0.75277552842E+02 -0.43071540887E+02 -0.20072906340E+03  0.25187361193E+03  0.12500516748E+03 0.  0.
          2    1    1    2  501    0  0.77260508617E+02 -0.47028167465E+02 -0.15210168945E+04  0.15237037862E+04  0.00000000000E+00 0. -1.
          1    1    1    2  502    0 -0.15253806146E+03  0.90099708352E+02  0.72395446490E+03  0.74531596313E+03  0.00000000000E+00 0. -1.
         22    1    3    3    0    0 -0.33545752854E+02 -0.68314369704E+00 -0.29918336704E+02  0.44954322273E+02  0.00000000000E+00 0. -1.
         22    1    3    3    0    0  0.10882330570E+03 -0.42388397190E+02 -0.17081072669E+03  0.20691928966E+03  0.00000000000E+00 0. -1.
</event>
<event>
 7    1  0.5064652E-006  0.8315695E+02  0.7818608E-02  0.1352022E+00
          2   -1    0    0  502    0  0.00000000000E+00  0.00000000000E+00  0.17953932512E+04  0.17953932512E+04  0.00000000000E+00 0. -1.
          1   -1    0    0  501    0 -0.00000000000E+00 -0.00000000000E+00 -0.51924496344E+02  0.51924496344E+02  0.00000000000E+00 0. -1.
         25    2    1    2    0    0 -0.56195821376E+02 -0.11514730328E+02  0.39961576672E+03  0.42262196916E+03  0.12500403375E+03 0.  0.
          2    1    1    2  501    0 -0.17234423405E+02  0.60685683741E+02 -0.13462888426E+02  0.64506022401E+02  0.00000000000E+00 0. -1.
          1    1    1    2  502    0  0.73430244781E+02 -0.49170953413E+02  0.13573158765E+04  0.13601897559E+04  0.00000000000E+00 0. -1.
         22    1    3    3    0    0 -0.81984506703E+02 -0.46091631218E+02  0.25959551179E+03  0.27610818088E+03  0.00000000000E+00 0.  1.
         22    1    3    3    0    0  0.25788685327E+02  0.34576900890E+02  0.14002025493E+03  0.14651378828E+03  0.00000000000E+00 0.  1.
</event>
<event>
 7    1  0.5064652E-006  0.2193675E+03  0.7818608E-02  0.1209992E+00
          2   -1    0    0  502    0  0.00000000000E+00  0.00000000000E+00  0.10058755952E+04  0.10058755952E+04  0.00000000000E+00 0. -1.
          1   -1    0    0  501    0 -0.00000000000E+00 -0.00000000000E+00 -0.27513100055E+03  0.27513100055E+03  0.00000000000E+00 0. -1.
         25    2    1    2    0    0 -0.10160331817E+03 -0.26605181182E+03  0.17742348433E+03  0.35806469919E+03  0.12499774071E+03 0.  0.
          2    1    1    2  501    0 -0.14022720233E+02  0.91510886981E+02 -0.15707969374E+03  0.18233186585E+03  0.00000000000E+00 0. -1.
          1    1    1    2  502    0  0.11562603840E+03  0.17454092484E+03  0.71040080408E+03  0.74061003074E+03  0.00000000000E+00 0. -1.
         22    1    3    3    0    0 -0.40870650369E+01 -0.12144824197E+03  0.20074354809E+02  0.12316395292E+03  0.00000000000E+00 0.  1.
         22    1    3    3    0    0 -0.97516253132E+02 -0.14460356984E+03  0.15734912952E+03  0.23490074627E+03  0.00000000000E+00 0.  1.
</event>
<event>
 7    1  0.5064652E-006  0.1915700E+03  0.7818608E-02  0.1276189E+00
          2   -1    0    0  502    0  0.00000000000E+00  0.00000000000E+00  0.12624030842E+04  0.12624030842E+04  0.00000000000E+00 0. -1.
          1   -1    0    0  501    0 -0.00000000000E+00 -0.00000000000E+00 -0.12856585441E+04  0.12856585441E+04  0.00000000000E+00 0. -1.
         25    2    1    2    0    0  0.23096573306E+03  0.33852295609E+02  0.98676872509E+02  0.28258307382E+03  0.12499968269E+03 0.  0.
          2    1    1    2  501    0 -0.18150463663E+03 -0.56226871977E+02 -0.11854471295E+04  0.12005791482E+04  0.00000000000E+00 0. -1.
          1    1    1    2  502    0 -0.49461096435E+02  0.22374576368E+02  0.10635147971E+04  0.10648994063E+04  0.00000000000E+00 0. -1.
         22    1    3    3    0    0  0.13112942144E+03 -0.42901847595E+02  0.63167241045E+02  0.15174186645E+03  0.00000000000E+00 0. -1.
         22    1    3    3    0    0  0.99836311624E+02  0.76754143204E+02  0.35509631464E+02  0.13084120736E+03  0.00000000000E+00 0. -1.
</event>
<event>
 7    1  0.5064652E-006  0.1246430E+03  0.7818608E-02  0.1409260E+00
          2   -1    0    0  502    0  0.00000000000E+00  0.00000000000E+00  0.44233054574E+03  0.44233054574E+03  0.00000000000E+00 0. -1.
          1   -1    0    0  501    0 -0.00000000000E+00 -0.00000000000E+00 -0.29822612816E+03  0.29822612816E+03  0.00000000000E+00 0. -1.
         25    2    1    2    0    0 -0.10285142266E+03 -0.64303836268E+02  0.98506189359E+02  0.20010400979E+03  0.12499898756E+03 0.  0.
          2    1    1    2  501    0 -0.15675289325E+02  0.21237544754E+02 -0.23307950933E+03  0.23456940481E+03  0.00000000000E+00 0. -1.
          1    1    1    2  502    0  0.11852671198E+03  0.43066291513E+02  0.27867773755E+03  0.30588325931E+03  0.00000000000E+00 0. -1.
         22    1    3    3    0    0  0.45195033301E+01 -0.46942886872E+02  0.75364866564E+02  0.88904013692E+02  0.00000000000E+00 0.  1.
         22    1    3    3    0    0 -0.10737092599E+03 -0.17360949395E+02  0.23141322795E+02  0.11119999610E+03  0.00000000000E+00 0.  1.
</event>
<event>
 7    1  0.5064652E-006  0.1656456E+03  0.7818608E-02  0.1281625E+00
          2   -1    0    0  502    0  0.00000000000E+00  0.00000000000E+00  0.81985454368E+03  0.81985454368E+03  0.00000000000E+00 0. -1.
          1   -1    0    0  501    0 -0.00000000000E+00 -0.00000000000E+00 -0.36138162060E+03  0.36138162060E+03  0.00000000000E+00 0. -1.
         25    2    1    2    0    0 -0.15935687503E+03  0.92571438148E+02  0.45585165745E+03  0.50733482017E+03  0.12499520544E+03 0.  0.
          2    1    1    2  501    0  0.54910554112E+02  0.23204967030E+02 -0.31472295678E+03  0.32031887077E+03  0.00000000000E+00 0. -1.
          1    1    1    2  502    0  0.10444632092E+03 -0.11577640518E+03  0.31734422242E+03  0.35358247334E+03  0.00000000000E+00 0. -1.
         22    1    3    3    0    0 -0.16378964924E+03  0.50516737767E+02  0.41288388018E+03  0.44704819484E+03  0.00000000000E+00 0. -1.
         22    1    3    3    0    0  0.44327742071E+01  0.42054700381E+02  0.42967777264E+02  0.60286625335E+02  0.00000000000E+00 0. -1.
</event>
<event>
 7    1  0.5064652E-006  0.1241868E+03  0.7818608E-02  0.1365477E+00
          2   -1    0    0  502    0  0.00000000000E+00  0.00000000000E+00  0.86760245060E+03  0.86760245060E+03  0.00000000000E+00 0. -1.
          1   -1    0    0  501    0 -0.00000000000E+00 -0.00000000000E+00 -0.64445244030E+03  0.64445244030E+03  0.00000000000E+00 0. -1.
         25    2    1    2    0    0  0.82816737099E+02  0.27292294272E+02 -0.21107863791E+03  0.26035117676E+03  0.12500025035E+03 0.  0.
          2    1    1    2  501    0  0.35644279584E+02  0.12336217154E+02 -0.40322500579E+03  0.40498531111E+03  0.00000000000E+00 0. -1.
          1    1    1    2  502    0 -0.11846101668E+03 -0.39628511426E+02  0.83745365401E+03  0.84671840302E+03  0.00000000000E+00 0. -1.
         22    1    3    3    0    0  0.56106007285E+02 -0.30866516253E+02 -0.17617669697E+03  0.18745360608E+03  0.00000000000E+00 0. -1.
         22    1    3    3    0    0  0.26710729814E+02  0.58158810525E+02 -0.34901940944E+02  0.72897570676E+02  0.00000000000E+00 0. -1.
</event>
<event>
 7    1  0.5385314E-006  0.4159307E+02  0.7818608E-02  0.1581071E+00
          2   -1    0    0  502    0  0.00000000000E+00  0.00000000000E+00  0.91109357000E+03  0.91109357000E+03  0.00000000000E+00 0. -1.
          1   -1    0    0  501    0 -0.00000000000E+00 -0.00000000000E+00 -0.12476815706E+04  0.12476815706E+04  0.00000000000E+00 0. -1.
         25    2    1    2    0    0 -0.44002073991E+02  0.25942360266E+02 -0.69179198715E+03  0.70484778097E+03  0.12500020915E+03 0.  0.
          2    1    1    2  501    0  0.24627758540E+01 -0.23877770168E+02 -0.54862103192E+03  0.54914592763E+03  0.00000000000E+00 0. -1.
          1    1    1    2  502    0  0.41539298137E+02 -0.20645900983E+01  0.90382501842E+03  0.90478143203E+03  0.00000000000E+00 0. -1.
         22    1    3    3    0    0 -0.70913927878E+02  0.80609436926E+01 -0.63885371865E+03  0.64282800018E+03  0.00000000000E+00 0.  1.
         22    1    3    3    0    0  0.26911853886E+02  0.17881416574E+02 -0.52938268498E+02  0.62019780795E+02  0.00000000000E+00 0.  1.
</event>
<event>
 7    1  0.5064652E-006  0.9576761E+02  0.7818608E-02  0.1361330E+00
          2   -1    0    0  502    0  0.00000000000E+00  0.00000000000E+00  0.17920562889E+04  0.17920562889E+04  0.00000000000E+00 0. -1.
          1   -1    0    0  501    0 -0.00000000000E+00 -0.00000000000E+00 -0.52478250998E+03  0.52478250998E+03  0.00000000000E+00 0. -1.
         25    2    1    2    0    0  0.74276820915E+02  0.12040475306E+02  0.21783200245E+03  0.26217874171E+03  0.12499956857E+03 0.  0.
          2    1    1    2  501    0 -0.73215119286E+02 -0.62666166181E+02 -0.49757143518E+03  0.50681834535E+03  0.00000000000E+00 0. -1.
          1    1    1    2  502    0 -0.10617016295E+01  0.50625690875E+02  0.15470132116E+04  0.15478417118E+04  0.00000000000E+00 0. -1.
         22    1    3    3    0    0 -0.38836137468E+00 -0.49280296014E+02  0.73693873531E+02  0.88653738758E+02  0.00000000000E+00 0. -1.
         22    1    3    3    0    0  0.74665182290E+02  0.61320771320E+02  0.14413812892E+03  0.17352500295E+03  0.00000000000E+00 0. -1.
</event>
<event>
 7    1  0.5064652E-006  0.9610524E+02  0.7818608E-02  0.1369263E+00
          2   -1    0    0  502    0  0.00000000000E+00  0.00000000000E+00  0.46616272309E+03  0.46616272309E+03  0.00000000000E+00 0. -1.
          1   -1    0    0  501    0 -0.00000000000E+00 -0.00000000000E+00 -0.75768627855E+03  0.75768627855E+03  0.00000000000E+00 0. -1.
         25    2    1    2    0    0  0.56243801750E+02  0.62181565578E+02  0.10780172739E+03  0.18513838583E+03  0.12500038859E+03 0.  0.
          2    1    1    2  501    0 -0.31630993653E+02  0.35073784803E+02 -0.71034402141E+03  0.71191243766E+03  0.00000000000E+00 0. -1.
          1    1    1    2  502    0 -0.24612808097E+02 -0.97255350380E+02  0.31101873857E+03  0.32679817815E+03  0.00000000000E+00 0. -1.
         22    1    3    3    0    0  0.14405423280E+02  0.95676187287E+02  0.73516334453E+02  0.12151584450E+03  0.00000000000E+00 0. -1.
         22    1    3    3    0    0  0.41838378470E+02 -0.33494621709E+02  0.34285392939E+02  0.63622541331E+02  0.00000000000E+00 0. -1.
</event>
<event>
 7    1  0.5064652E-006  0.9949317E+02  0.7818608E-02  0.1384886E+00
          2   -1    0    0  502    0  0.00000000000E+00  0.00000000000E+00  0.35389754471E+03  0.35389754471E+03  0.00000000000E+00 0. -1.
          1   -1    0    0  501    0 -0.00000000000E+00 -0.00000000000E+00 -0.77217143899E+03  0.77217143899E+03  0.00000000000E+00 0. -1.
         25    2    1    2    0    0 -0.12500743586E+03  0.43063406771E+02 -0.18498475895E+03  0.25947125943E+03  0.12499862959E+03 0.  0.
          2    1    1    2  501    0  0.84900041358E+02 -0.44719359296E+02 -0.54445853552E+03  0.55284983044E+03  0.00000000000E+00 0. -1.
          1    1    1    2  502    0  0.40107394502E+02  0.16559525257E+01  0.31116940019E+03  0.31374789384E+03  0.00000000000E+00 0. -1.
         22    1    3    3    0    0 -0.70845779667E+02  0.18913669808E+02 -0.18624087971E+03  0.20015623067E+03  0.00000000000E+00 0. -1.
         22    1    3    3    0    0 -0.54161656193E+02  0.24149736962E+02  0.12561207545E+01  0.59315028755E+02  0.00000000000E+00 0. -1.
</event>
<event>
 7    1  0.5064652E-006  0.8813401E+02  0.7818608E-02  0.1477542E+00
          2   -1    0    0  502    0  0.00000000000E+00  0.00000000000E+00  0.13423200501E+04  0.13423200501E+04  0.00000000000E+00 0. -1.
          1   -1    0    0  501    0 -0.00000000000E+00 -0.00000000000E+00 -0.16428819991E+03  0.16428819991E+03  0.00000000000E+00 0. -1.
         25    2    1    2    0    0 -0.78056454137E+02  0.66809835259E+01 -0.30093331745E+02  0.15055994673E+03  0.12500097348E+03 0.  0.
          2    1    1    2  501    0  0.89818232340E+02 -0.25814896296E+02 -0.44299473977E+02  0.10342227577E+03  0.00000000000E+00 0. -1.
          1    1    1    2  502    0 -0.11761778203E+02  0.19133912770E+02  0.12524246559E+04  0.12526260275E+04  0.00000000000E+00 0. -1.
         22    1    3    3    0    0  0.27889874472E+02 -0.23851181028E+02 -0.13283362060E+02  0.39027831634E+02  0.00000000000E+00 0. -1.
         22    1    3    3    0    0 -0.10594632861E+03  0.30532164553E+02 -0.16809969685E+02  0.11153211510E+03  0.00000000000E+00 0. -1.
</event>
<event>
 7    1  0.5064652E-006  0.3700300E+02  0.7818608E-02  0.1534394E+00
          2   -1    0    0  502    0  0.00000000000E+00  0.00000000000E+00  0.92466913037E+03  0.92466913037E+03  0.00000000000E+00 0. -1.
          1   -1    0    0  501    0 -0.00000000000E+00 -0.00000000000E+00 -0.36939928282E+03  0.36939928282E+03  0.00000000000E+00 0. -1.
         25    2    1    2    0    0 -0.58778954350E+02 -0.10018090676E+02 -0.49464646983E+02  0.14706261753E+03  0.12500133823E+03 0.  0.
          2    1    1    2  501    0  0.32571562576E+02 -0.16038105489E+02 -0.26952815189E+03  0.27196240950E+03  0.00000000000E+00 0. -1.
          1    1    1    2  502    0  0.26207391774E+02  0.26056196165E+02  0.87426264643E+03  0.87504338617E+03  0.00000000000E+00 0. -1.
         22    1    3    3    0    0 -0.51601270254E+02  0.36352239178E+02 -0.71370818802E+02  0.95278382446E+02  0.00000000000E+00 0. -1.
         22    1    3    3    0    0 -0.71776840955E+01 -0.46370329854E+02  0.21906171819E+02  0.51784235086E+02  0.00000000000E+00 0. -1.
</event>
<event>
 7    1  0.7319656E-006  0.9081862E+02  0.7818608E-02  0.1331263E+00
          2   -1    0    0  502    0  0.00000000000E+00  0.00000000000E+00  0.23322101839E+04  0.23322101839E+04  0.00000000000E+00 0. -1.
          1   -1    0    0  501    0 -0.00000000000E+00 -0.00000000000E+00 -0.75958171405E+03  0.75958171405E+03  0.00000000000E+00 0. -1.
         25    2    1    2    0    0 -0.15284778585E+03  0.42013806243E+02 -0.13709443376E+03  0.24402366418E+03  0.12500023742E+03 0.  0.
          2    1    1    2  501    0  0.63584640022E+02 -0.27084597436E+02 -0.56602131528E+03  0.57022514081E+03  0.00000000000E+00 0. -1.
          1    1    1    2  502    0  0.89263145830E+02 -0.14929208807E+02  0.22757442189E+04  0.22775430930E+04  0.00000000000E+00 0. -1.
         22    1    3    3    0    0 -0.80590911633E+02  0.12720194135E+01 -0.13941756342E+03  0.16103965369E+03  0.00000000000E+00 0.  1.
         22    1    3    3    0    0 -0.72256874219E+02  0.40741786829E+02  0.23231296514E+01  0.82984010492E+02  0.00000000000E+00 0.  1.
</event>
<event>
 7    1  0.5064652E-006  0.1337603E+03  0.7818608E-02  0.1224222E+00
          2   -1    0    0  502    0  0.00000000000E+00  0.00000000000E+00  0.90460240791E+03  0.90460240791E+03  0.00000000000E+00 0. -1.
          1   -1    0    0  501    0 -0.00000000000E+00 -0.00000000000E+00 -0.65397132768E+03  0.65397132768E+03  0.00000000000E+00 0. -1.
         25    2    1    2    0    0 -0.28871597817E+02 -0.77083965959E+02  0.49795113463E+02  0.15773243622E+03  0.12499784455E+03 0.  0.
          2    1    1    2  501    0 -0.11304573329E+03  0.71501637299E+02 -0.58611108420E+03  0.60118052611E+03  0.00000000000E+00 0. -1.
          1    1    1    2  502    0  0.14191733111E+03  0.55823286601E+01  0.78694705097E+03  0.79966077326E+03  0.00000000000E+00 0. -1.
         22    1    3    3    0    0 -0.23018579097E+02 -0.65562539394E+02  0.91030154237E+02  0.11451982595E+03  0.00000000000E+00 0. -1.
         22    1    3    3    0    0 -0.58530187194E+01 -0.11521426565E+02 -0.41235040774E+02  0.43212610264E+02  0.00000000000E+00 0. -1.
</event>
<event>
 7    1  0.5064652E-006  0.1256773E+03  0.7818608E-02  0.1260294E+00
          2   -1    0    0  502    0  0.00000000000E+00  0.00000000000E+00  0.66747846420E+03  0.66747846420E+03  0.00000000000E+00 0. -1.
          1   -1    0    0  501    0 -0.00000000000E+00 -0.00000000000E+00 -0.94650668674E+03  0.94650668674E+03  0.00000000000E+00 0. -1.
         25    2    1    2    0    0 -0.89490704834E+01  0.10069862929E+03  0.42372225005E+03  0.45319509695E+03  0.12499980361E+03 0.  0.
          2    1    1    2  501    0 -0.10639185536E+02  0.95951782764E+02 -0.88602169791E+03  0.89126560915E+03  0.00000000000E+00 0. -1.
          1    1    1    2  502    0  0.19588256020E+02 -0.19665041206E+03  0.18327122532E+03  0.26952444484E+03  0.00000000000E+00 0. -1.
         22    1    3    3    0    0 -0.60952103885E+02  0.19347446796E+02  0.18166012663E+03  0.19258734193E+03  0.00000000000E+00 0.  1.
         22    1    3    3    0    0  0.52003033402E+02  0.81351182497E+02  0.24206212343E+03  0.26060775502E+03  0.00000000000E+00 0.  1.
</event>
<event>
 7    1  0.5064652E-006  0.3931885E+02  0.7818608E-02  0.1543126E+00
          2   -1    0    0  502    0  0.00000000000E+00  0.00000000000E+00  0.31005139986E+04  0.31005139986E+04  0.00000000000E+00 0. -1.
          1   -1    0    0  501    0 -0.00000000000E+00 -0.00000000000E+00 -0.67424171252E+02  0.67424171252E+02  0.00000000000E+00 0. -1.
         25    2    1    2    0    0  0.72779972451E+01  0.51722143952E+02  0.33851237245E+03  0.36459449065E+03  0.12494145385E+03 0.  0.
          2    1    1    2  501    0 -0.26978473472E+02 -0.17718785622E+02 -0.49440856838E+02  0.59043981232E+02  0.00000000000E+00 0. -1.
          1    1    1    2  502    0  0.19700476227E+02 -0.34003358330E+02  0.27440183118E+04  0.27442996980E+04  0.00000000000E+00 0. -1.
         22    1    3    3    0    0  0.41492231480E+02  0.47633053095E+02  0.31858924815E+03  0.32479165947E+03  0.00000000000E+00 0.  1.
         22    1    3    3    0    0 -0.34214234235E+02  0.40890908566E+01  0.19923124296E+02  0.39802831181E+02  0.00000000000E+00 0.  1.
</event>
<event>
 7    1  0.5064652E-006  0.7946642E+02  0.7818608E-02  0.1478697E+00
          2   -1    0    0  502    0  0.00000000000E+00  0.00000000000E+00  0.50851963980E+02  0.50851963980E+02  0.00000000000E+00 0. -1.
          1   -1    0    0  501    0 -0.00000000000E+00 -0.00000000000E+00 -0.16553230703E+04  0.16553230703E+04  0.00000000000E+00 0. -1.
         25    2    1    2    0    0  0.82814693487E+02  0.54878909079E+02 -0.61045620033E+03  0.63099192289E+03  0.12499626441E+03 0.  0.
          2    1    1    2  501    0 -0.68445968839E+02 -0.34780064469E+02 -0.10292717319E+04  0.10321311940E+04  0.00000000000E+00 0. -1.
          1    1    1    2  502    0 -0.14368724648E+02 -0.20098844610E+02  0.35256826006E+02  0.43051917294E+02  0.00000000000E+00 0. -1.
         22    1    3    3    0    0 -0.24562481844E+02  0.41070407706E+02 -0.25358164689E+03  0.25805763997E+03  0.00000000000E+00 0. -1.
         22    1    3    3    0    0  0.10737717533E+03  0.13808501373E+02 -0.35687455344E+03  0.37293428293E+03  0.00000000000E+00 0. -1.
</event>
<event>
 7    1  0.5064652E-006  0.4528478E+02  0.7818608E-02  0.1492194E+00
          2   -1    0    0  502    0  0.00000000000E+00  0.00000000000E+00  0.11209708169E+02  0.11209708169E+02  0.00000000000E+00 0. -1.
          1   -1    0    0  501    0 -0.00000000000E+00 -0.00000000000E+00 -0.19108544853E+04  0.19108544853E+04  0.00000000000E+00 0. -1.
         25    2    1    2    0    0 -0.35320086078E+02  0.35417810367E+02 -0.47817962015E+03  0.49677240059E+03  0.12500055636E+03 0.  0.
          2    1    1    2  501    0  0.38144565194E+02  0.10031245173E+02 -0.26388072620E+03  0.26681205256E+03  0.00000000000E+00 0. -1.
          1    1    1    2  502    0 -0.28244791164E+01 -0.45449055540E+02 -0.11575844307E+04  0.11584797403E+04  0.00000000000E+00 0. -1.
         22    1    3    3    0    0  0.39343601233E+02  0.23790751427E+02 -0.87416018612E+02  0.98769829004E+02  0.00000000000E+00 0. -1.
         22    1    3    3    0    0 -0.74663687311E+02  0.11627058941E+02 -0.39076360154E+03  0.39800257159E+03  0.00000000000E+00 0. -1.
</event>
<event>
 7    1  0.5064652E-006  0.9523752E+02  0.7818608E-02  0.1313586E+00
          2   -1    0    0  502    0  0.00000000000E+00  0.00000000000E+00  0.84655312276E+03  0.84655312276E+03  0.00000000000E+00 0. -1.
          1   -1    0    0  501    0 -0.00000000000E+00 -0.00000000000E+00 -0.67924053242E+03  0.67924053242E+03  0.00000000000E+00 0. -1.
         25    2    1    2    0    0  0.26796640467E+02  0.10490938253E+03 -0.92431505738E+02  0.18944857071E+03  0.12499255661E+03 0.  0.
          2    1    1    2  501    0 -0.81974313940E+02 -0.51007727287E+02 -0.53208207798E+03  0.54077066682E+03  0.00000000000E+00 0. -1.
          1    1    1    2  502    0  0.55177673473E+02 -0.53901655246E+02  0.79182617406E+03  0.79557441765E+03  0.00000000000E+00 0. -1.
         22    1    3    3    0    0  0.58984925447E+02  0.44777148321E+02  0.64345582160E+00  0.74058277573E+02  0.00000000000E+00 0.  1.
         22    1    3    3    0    0 -0.32188284979E+02  0.60132234213E+02 -0.93074961560E+02  0.11539029314E+03  0.00000000000E+00 0.  1.
</event>
<event>
 7    1  0.5064652E-006  0.6718089E+02  0.7818608E-02  0.1399239E+00
          2   -1    0    0  502    0  0.00000000000E+00  0.00000000000E+00  0.52475109596E+03  0.52475109596E+03  0.00000000000E+00 0. -1.
          1   -1    0    0  501    0 -0.00000000000E+00 -0.00000000000E+00 -0.14950123384E+03  0.14950123384E+03  0.00000000000E+00 0. -1.
         25    2    1    2    0    0  0.53710068956E+01  0.95159652825E+02  0.32604827030E+03  0.36196186477E+03  0.12499883897E+03 0.  0.
          2    1    1    2  501    0 -0.33972055400E+02 -0.40669791377E+02 -0.12057425836E+03  0.13170529321E+03  0.00000000000E+00 0. -1.
          1    1    1    2  502    0  0.28601048505E+02 -0.54489861448E+02  0.16977585019E+03  0.18058517183E+03  0.00000000000E+00 0. -1.
         22    1    3    3    0    0  0.39358643606E+02  0.99261968420E+02  0.15958034109E+03  0.19201022490E+03  0.00000000000E+00 0.  1.
         22    1    3    3    0    0 -0.33987636710E+02 -0.41023155951E+01  0.16646792920E+03  0.16995163987E+03  0.00000000000E+00 0.  1.
</event>
<event>
 7    1  0.5064652E-006  0.1157108E+03  0.7818608E-02  0.1291031E+00
          2   -1    0    0  502    0  0.00000000000E+00  0.00000000000E+00  0.41269726251E+04  0.41269726251E+04  0.00000000000E+00 0. -1.
          1   -1    0    0  501    0 -0.00000000000E+00 -0.00000000000E+00 -0.14281142236E+03  0.14281142236E+03  0.00000000000E+00 0. -1.
         25    2    1    2    0    0 -0.89314193507E+01  0.15946278881E+03  0.21811485733E+03  0.29783810345E+03  0.12500117445E+03 0.  0.
          2    1    1    2  501    0 -0.44885714482E+02 -0.10286210705E+03 -0.71847874171E+02  0.13325711034E+03  0.00000000000E+00 0. -1.
          1    1    1    2  502    0  0.53817133833E+02 -0.56600681758E+02  0.38378942196E+04  0.38386888337E+04  0.00000000000E+00 0. -1.
         22    1    3    3    0    0 -0.45542258094E+02  0.21267426509E+02  0.21323861843E+02  0.54599521853E+02  0.00000000000E+00 0.  1.
         22    1    3    3    0    0  0.36610838744E+02  0.13819536230E+03  0.19679099548E+03  0.24323858160E+03  0.00000000000E+00 0.  1.
</event>
<event>
 7    1  0.5064652E-006  0.1643374E+03  0.7818608E-02  0.1351054E+00
          2   -1    0    0  502    0  0.00000000000E+00  0.00000000000E+00  0.55133104154E+03  0.55133104154E+03  0.00000000000E+00 0. -1.
          1   -1    0    0  501    0 -0.00000000000E+00 -0.00000000000E+00 -0.15105948060E+04  0.15105948060E+04  0.00000000000E+00 0. -1.
         25    2    1    2    0    0 -0.73737723203E+02  0.14916955996E+03 -0.12417194130E+03  0.24234728193E+03  0.12499889844E+03 0.  0.
          2    1    1    2  501    0  0.99971498103E+02 -0.13052164578E+03 -0.13217104485E+04  0.13318966589E+04  0.00000000000E+00 0. -1.
          1    1    1    2  502    0 -0.26233774900E+02 -0.18647914182E+02  0.48661862529E+03  0.48768190670E+03  0.00000000000E+00 0. -1.
         22    1    3    3    0    0 -0.13985707371E+02 -0.18855192569E+02 -0.37073579643E+02  0.43881301314E+02  0.00000000000E+00 0. -1.
         22    1    3    3    0    0 -0.59752015832E+02  0.16802475253E+03 -0.87098361658E+02  0.19846598062E+03  0.00000000000E+00 0. -1.
</event>
<event>
 7    1  0.5064652E-006  0.1710212E+03  0.7818608E-02  0.1237034E+00
          2   -1    0    0  502    0  0.00000000000E+00  0.00000000000E+00  0.31320852079E+04  0.31320852079E+04  0.00000000000E+00 0. -1.
          1   -1    0    0  501    0 -0.00000000000E+00 -0.00000000000E+00 -0.77667597358E+03  0.77667597358E+03  0.00000000000E+00 0. -1.
         25    2    1    2    0    0  0.19146457297E+03  0.42399540062E+02  0.16891830811E+03  0.28742797763E+03  0.12500017523E+03 0.  0.
          2    1    1    2  501    0 -0.59895873173E+02  0.66566374466E+02 -0.71210217359E+03  0.71771032003E+03  0.00000000000E+00 0. -1.
          1    1    1    2  502    0 -0.13156869980E+03 -0.10896591453E+03  0.28985930998E+04  0.29036228838E+04  0.00000000000E+00 0. -1.
         22    1    3    3    0    0  0.17195490180E+03  0.44301371447E+02  0.77178268735E+02  0.19361710908E+03  0.00000000000E+00 0. -1.
         22    1    3    3    0    0  0.19509671171E+02 -0.19018313851E+01  0.91740039380E+02  0.93810868545E+02  0.00000000000E+00 0. -1.
</event>
<event>
 7    1  0.5064652E-006  0.1046172E+03  0.7818608E-02  0.1407291E+00
          2   -1    0    0  502    0  0.00000000000E+00  0.00000000000E+00  0.59746062436E+03  0.59746062436E+03  0.00000000000E+00 0. -1.
          1   -1    0    0  501    0 -0.00000000000E+00 -0.00000000000E+00 -0.13112102072E+03  0.13112102072E+03  0.00000000000E+00 0. -1.
         25    2    1    2    0    0 -0.10583710477E+03  0.78658240043E+02  0.14888529115E+03  0.23490530715E+03  0.12500024774E+03 0.  0.
          2    1    1    2  501    0  0.77344648638E+02 -0.64230652618E+02 -0.58532897945E+02  0.11633516902E+03  0.00000000000E+00 0. -1.
          1    1    1    2  502    0  0.28492456133E+02 -0.14427587425E+02  0.37598721044E+03  0.37734116890E+03  0.00000000000E+00 0. -1.
         22    1    3    3    0    0  0.23858978528E+02 -0.82624746143E+01  0.16092720738E+02  0.29941526412E+02  0.00000000000E+00 0.  1.
         22    1    3    3    0    0 -0.12969608330E+03  0.86920714657E+02  0.13279257041E+03  0.20496378074E+03  0.00000000000E+00 0.  1.
</event>
<event>
 7    1  0.5064652E-006  0.8583263E+02  0.7818608E-02  0.1393692E+00
          2   -1    0    0  502    0  0.00000000000E+00  0.00000000000E+00  0.77712546777E+03  0.77712546777E+03  0.00000000000E+00 0. -1.
          1   -1    0    0  501    0 -0.00000000000E+00 -0.00000000000E+00 -0.12593610336E+04  0.12593610336E+04  0.00000000000E+00 0. -1.
         25    2    1    2    0    0 -0.45510013944E+02  0.86010573821E+01 -0.89157570143E+02  0.16036649931E+03  0.12499280871E+03 0.  0.
          2    1    1    2  501    0 -0.32989850815E+02  0.28120328952E+02 -0.11316504229E+04  0.11324803587E+04  0.00000000000E+00 0. -1.
          1    1    1    2  502    0  0.78499864759E+02 -0.36721386335E+02  0.73857242720E+03  0.74363964338E+03  0.00000000000E+00 0. -1.
         22    1    3    3    0    0  0.12508575600E+02  0.47607872275E+02 -0.28642985387E+01  0.49306978940E+02  0.00000000000E+00 0. -1.
         22    1    3    3    0    0 -0.58018589543E+02 -0.39006814893E+02 -0.86293271605E+02  0.11105952037E+03  0.00000000000E+00 0. -1.
</event>
<event>
 7    1  0.5064652E-006  0.7452803E+02  0.7818608E-02  0.1353752E+00
          2   -1    0    0  502    0  0.00000000000E+00  0.00000000000E+00  0.31553043102E+03  0.31553043102E+03  0.00000000000E+00 0. -1.
          1   -1    0    0  501    0 -0.00000000000E+00 -0.00000000000E+00 -0.12144810983E+04  0.12144810983E+04  0.00000000000E+00 0. -1.
         25    2    1    2    0    0  0.71815120979E+02 -0.11649979475E+03 -0.24292312614E+03  0.30555895340E+03  0.12500006004E+03 0.  0.
          2    1    1    2  501    0 -0.51583834027E+02  0.50152971231E+02 -0.93460476726E+03  0.93736987548E+03  0.00000000000E+00 0. -1.
          1    1    1    2  502    0 -0.20231286952E+02  0.66346823519E+02  0.27857722614E+03  0.28708270043E+03  0.00000000000E+00 0. -1.
         22    1    3    3    0    0  0.34808191247E+02 -0.36180760154E+02 -0.35028284144E+01  0.50328196770E+02  0.00000000000E+00 0.  1.
         22    1    3    3    0    0  0.37006929732E+02 -0.80319034596E+02 -0.23942029772E+03  0.25523075663E+03  0.00000000000E+00 0.  1.
</event>
<event>
 7    1  0.5064652E-006  0.9687571E+02  0.7818608E-02  0.1290268E+00
          2   -1    0    0  502    0  0.00000000000E+00  0.00000000000E+00  0.71689873131E+03  0.71689873131E+03  0.00000000000E+00 0. -1.
          1   -1    0    0  501    0 -0.00000000000E+00 -0.00000000000E+00 -0.40469838864E+03  0.40469838864E+03  0.00000000000E+00 0. -1.
         25    2    1    2    0    0  0.17609276404E+03 -0.66562451158E+02 -0.30476152515E+02  0.22802086618E+03  0.12500199235E+03 0.  0.
          2    1    1    2  501    0 -0.88021920776E+02  0.32859765995E+02 -0.26368608800E+03  0.27992494666E+03  0.00000000000E+00 0. -1.
          1    1    1    2  502    0 -0.88070843262E+02  0.33702685163E+02  0.60636258319E+03  0.61365130710E+03  0.00000000000E+00 0. -1.
         22    1    3    3    0    0  0.44466877234E+02 -0.60453232602E+00  0.44405299592E+02  0.62845041667E+02  0.00000000000E+00 0. -1.
         22    1    3    3    0    0  0.13162588680E+03 -0.65957918832E+02 -0.74881452107E+02  0.16517582451E+03  0.00000000000E+00 0. -1.
</event>
<event>
 7    1  0.5064652E-006  0.4714260E+02  0.7818608E-02  0.1525243E+00
          2   -1    0    0  502    0  0.00000000000E+00  0.00000000000E+00  0.38524085381E+03  0.38524085381E+03  0.00000000000E+00 0. -1.
          1   -1    0    0  501    0 -0.00000000000E+00 -0.00000000000E+00 -0.15553574655E+04  0.15553574655E+04  0.00000000000E+00 0. -1.
         25    2    1    2    0    0  0.66249709139E+02 -0.21692308291E+02  0.93107772806E+01  0.14339259465E+03  0.12496065552E+03 0.  0.
          2    1    1    2  501    0 -0.19615929796E+02  0.23055421923E+02 -0.14863999645E+04  0.14867081730E+04  0.00000000000E+00 0. -1.
          1    1    1    2  502    0 -0.46633779343E+02 -0.13631136318E+01  0.30697257553E+03  0.31049755166E+03  0.00000000000E+00 0. -1.
         22    1    3    3    0    0  0.97079391315E+02 -0.39591891233E+01 -0.17666098284E+02  0.98753098307E+02  0.00000000000E+00 0.  1.
         22    1    3    3    0    0 -0.30829682177E+02 -0.17733119168E+02  0.26976875564E+02  0.44639496343E+02  0.00000000000E+00 0.  1.
</event>
<event>
 7    1  0.5064652E-006  0.1854896E+03  0.7818608E-02  0.1341137E+00
          2   -1    0    0  502    0  0.00000000000E+00  0.00000000000E+00  0.13306757693E+04  0.13306757693E+04  0.00000000000E+00 0. -1.
          1   -1    0    0  501    0 -0.00000000000E+00 -0.00000000000E+00 -0.50450512599E+03  0.50450512599E+03  0.00000000000E+00 0. -1.
         25    2    1    2    0    0 -0.20569160743E+03  0.49774857699E+02  0.13221819844E+03  0.27909344941E+03  0.12499971072E+03 0.  0.
          2    1    1    2  501    0  0.25698486914E+02 -0.17425279500E+02 -0.42306294674E+03  0.42420078913E+03  0.00000000000E+00 0. -1.
          1    1    1    2  502    0  0.17999312052E+03 -0.32349578199E+02  0.11170153916E+04  0.11318866567E+04  0.00000000000E+00 0. -1.
         22    1    3    3    0    0 -0.21325378259E+03  0.60734221523E+02  0.14134287958E+03  0.26295176566E+03  0.00000000000E+00 0. -1.
         22    1    3    3    0    0  0.75621751617E+01 -0.10959363824E+02 -0.91246811374E+01  0.16141683755E+02  0.00000000000E+00 0. -1.
</event>
<event>
 7    1  0.5064652E-006  0.9761528E+02  0.7818608E-02  0.1419446E+00
          2   -1    0    0  502    0  0.00000000000E+00  0.00000000000E+00  0.97866885415E+03  0.97866885415E+03  0.00000000000E+00 0. -1.
          1   -1    0    0  501    0 -0.00000000000E+00 -0.00000000000E+00 -0.55830202183E+03  0.55830202183E+03  0.00000000000E+00 0. -1.
         25    2    1    2    0    0 -0.47696393461E+01  0.82263395978E+02 -0.17035393861E+03  0.22679352729E+03  0.12499929536E+03 0.  0.
          2    1    1    2  501    0  0.32258548383E+02 -0.96904836485E+02 -0.35221666229E+03  0.36672569923E+03  0.00000000000E+00 0. -1.
          1    1    1    2  502    0 -0.27488909037E+02  0.14641440507E+02  0.94293743322E+03  0.94345164946E+03  0.00000000000E+00 0. -1.
         22    1    3    3    0    0  0.54917286004E+02  0.13130477080E+02 -0.83182922231E+02  0.10053713882E+03  0.00000000000E+00 0.  1.
         22    1    3    3    0    0 -0.59686925350E+02  0.69132918899E+02 -0.87171016381E+02  0.12625638847E+03  0.00000000000E+00 0.  1.
</event>
<event>
 7    1  0.5064652E-006  0.3353599E+02  0.7818608E-02  0.1567147E+00
          2   -1    0    0  502    0  0.00000000000E+00  0.00000000000E+00  0.35140119343E+04  0.35140119343E+04  0.00000000000E+00 0. -1.
          1   -1    0    0  501    0 -0.00000000000E+00 -0.00000000000E+00 -0.31161580196E+02  0.31161580196E+02  0.00000000000E+00 0. -1.
         25    2    1    2    0    0  0.17799295548E+02  0.75710166180E+01  0.16770007964E+04  0.16817637809E+04  0.12499443259E+03 0.  0.
          2    1    1    2  501    0 -0.20502588371E+02  0.26538779701E+02 -0.18795482651E+02  0.38443895822E+02  0.00000000000E+00 0. -1.
          1    1    1    2  502    0  0.27032928223E+01 -0.34109796319E+02  0.18246450403E+04  0.18249658378E+04  0.00000000000E+00 0. -1.
         22    1    3    3    0    0  0.37052424924E+02  0.18467025622E+02  0.16213303832E+04  0.16218588485E+04  0.00000000000E+00 0.  1.
         22    1    3    3    0    0 -0.19253129376E+02 -0.10896009004E+02  0.55670413269E+02  0.59904932322E+02  0.00000000000E+00 0.  1.
</event>
<event>
 7    1  0.5064652E-006  0.9976609E+02  0.7818608E-02  0.1347831E+00
          2   -1    0    0  502    0  0.00000000000E+00  0.00000000000E+00  0.58049031616E+03  0.58049031616E+03  0.00000000000E+00 0. -1.
          1   -1    0    0  501    0 -0.00000000000E+00 -0.00000000000E+00 -0.21387627222E+04  0.21387627222E+04  0.00000000000E+00 0. -1.
         25    2    1    2    0    0  0.13521516900E+03 -0.62980831542E+02 -0.29837604133E+03  0.35623544023E+03  0.12500279903E+03 0.  0.
          2    1    1    2  501    0 -0.54177121529E+02  0.58969921379E+01 -0.18065891643E+04  0.18074109504E+04  0.00000000000E+00 0. -1.
          1    1    1    2  502    0 -0.81038047472E+02  0.57083839404E+02  0.54669279960E+03  0.55560664773E+03  0.00000000000E+00 0. -1.
         22    1    3    3    0    0  0.47065002587E+01 -0.62718923267E+02 -0.79069277665E+02  0.10103348530E+03  0.00000000000E+00 0. -1.
         22    1    3    3    0    0  0.13050866874E+03 -0.26190827517E+00 -0.21930676366E+03  0.25520195493E+03  0.00000000000E+00 0. -1.
</event>
<event>
 7    1  0.5064652E-006  0.3436167E+02  0.7818608E-02  0.1562967E+00
          2   -1    0    0  502    0  0.00000000000E+00  0.00000000000E+00  0.15720361565E+04  0.15720361565E+04  0.00000000000E+00 0. -1.
          1   -1    0    0  501    0 -0.00000000000E+00 -0.00000000000E+00 -0.32602193154E+03  0.32602193154E+03  0.00000000000E+00 0. -1.
         25    2    1    2    0    0  0.17583563650E+02 -0.64384594001E+02  0.18661650838E+03  0.23431779363E+03  0.12499819822E+03 0.  0.
          2    1    1    2  501    0 -0.91776923167E+01  0.32958627283E+02 -0.30100781123E+03  0.30294587564E+03  0.00000000000E+00 0. -1.
          1    1    1    2  502    0 -0.84058713335E+01  0.31425966717E+02  0.13604055278E+04  0.13607944188E+04  0.00000000000E+00 0. -1.
         22    1    3    3    0    0 -0.43704868847E+02 -0.35878645190E+02  0.30613401412E+02  0.64300646091E+02  0.00000000000E+00 0.  1.
         22    1    3    3    0    0  0.61288432497E+02 -0.28505948811E+02  0.15600310697E+03  0.17001714754E+03  0.00000000000E+00 0.  1.
</event>
<event>
 7    1  0.5064652E-006  0.6587910E+02  0.7818608E-02  0.1390729E+00
          2   -1    0    0  502    0  0.00000000000E+00  0.00000000000E+00  0.57256578820E+03  0.57256578820E+03  0.00000000000E+00 0. -1.
          1   -1    0    0  501    0 -0.00000000000E+00 -0.00000000000E+00 -0.12373178886E+04  0.12373178886E+04  0.00000000000E+00 0. -1.
         25    2    1    2    0    0 -0.42805008272E+02 -0.10213335451E+03  0.61540389372E+02  0.17797804084E+03  0.12500189063E+03 0.  0.
          2    1    1    2  501    0  0.43868211087E+02  0.37687687326E+02 -0.11760912113E+04  0.11775123435E+04  0.00000000000E+00 0. -1.
          1    1    1    2  502    0 -0.10632028151E+01  0.64445667187E+02  0.44979872150E+03  0.45439329252E+03  0.00000000000E+00 0. -1.
         22    1    3    3    0    0  0.91006173463E+01 -0.11003678136E+03  0.22833941681E+02  0.11274885091E+03  0.00000000000E+00 0. -1.
         22    1    3    3    0    0 -0.51905625618E+02  0.79034268453E+01  0.38706447690E+02  0.65229189934E+02  0.00000000000E+00 0. -1.
</event>
<event>
 7    1  0.5064652E-006  0.7510203E+02  0.7818608E-02  0.1410519E+00
          2   -1    0    0  502    0  0.00000000000E+00  0.00000000000E+00  0.24558575504E+04  0.24558575504E+04  0.00000000000E+00 0. -1.
          1   -1    0    0  501    0 -0.00000000000E+00 -0.00000000000E+00 -0.83629781522E+03  0.83629781522E+03  0.00000000000E+00 0. -1.
         25    2    1    2    0    0  0.64129705685E+02  0.87274606159E+01  0.23370545384E+03  0.27282117867E+03  0.12499747460E+03 0.  0.
          2    1    1    2  501    0 -0.66844086830E+02  0.34567563837E+02 -0.81479230793E+03  0.81826007691E+03  0.00000000000E+00 0. -1.
          1    1    1    2  502    0  0.27143811450E+01 -0.43295024452E+02  0.22006465892E+04  0.22010741100E+04  0.00000000000E+00 0. -1.
         22    1    3    3    0    0 -0.67609678798E+01  0.10099569283E+02 -0.12006142224E+02  0.17083894096E+02  0.00000000000E+00 0. -1.
         22    1    3    3    0    0  0.70890673565E+02 -0.13721086675E+01  0.24571159606E+03  0.25573728457E+03  0.00000000000E+00 0. -1.
</event>
<event>
 7    1  0.5064652E-006  0.2900483E+02  0.7818608E-02  0.1632177E+00
          2   -1    0    0  502    0  0.00000000000E+00  0.00000000000E+00  0.56507506532E+03  0.56507506532E+03  0.00000000000E+00 0. -1.
          1   -1    0    0  501    0 -0.00000000000E+00 -0.00000000000E+00 -0.13236300840E+03  0.13236300840E+03  0.00000000000E+00 0. -1.
         25    2    1    2    0    0  0.10169871386E+02  0.33996724173E+02  0.13568456938E+03  0.18787092185E+03  0.12500390942E+03 0.  0.
          2    1    1    2  501    0  0.13768819574E+02 -0.25580991438E+02 -0.10387575392E+03  0.10786166959E+03  0.00000000000E+00 0. -1.
          1    1    1    2  502    0 -0.23938690961E+02 -0.84157327345E+01  0.40090324146E+03  0.40170548228E+03  0.00000000000E+00 0. -1.
         22    1    3    3    0    0 -0.44865316099E+02  0.53759487471E+02  0.59884771417E+02  0.92136664415E+02  0.00000000000E+00 0.  1.
         22    1    3    3    0    0  0.55035187486E+02 -0.19762763299E+02  0.75799797964E+02  0.95734257432E+02  0.00000000000E+00 0.  1.
</event>
<event>
 7    1  0.5064652E-006  0.1572259E+03  0.7818608E-02  0.1265659E+00
          2   -1    0    0  502    0  0.00000000000E+00  0.00000000000E+00  0.30138683267E+03  0.30138683267E+03  0.00000000000E+00 0. -1.
          1   -1    0    0  501    0 -0.00000000000E+00 -0.00000000000E+00 -0.50579588361E+03  0.50579588361E+03  0.00000000000E+00 0. -1.
         25    2    1    2    0    0  0.99729698847E+02 -0.89551522357E+02 -0.29510156931E+02  0.18563758349E+03  0.12499990021E+03 0.  0.
          2    1    1    2  501    0 -0.15843313133E+03  0.45783911964E+02 -0.37435617111E+03  0.40907183544E+03  0.00000000000E+00 0. -1.
          1    1    1    2  502    0  0.58703432481E+02  0.43767610393E+02  0.19945727710E+03  0.21247329736E+03  0.00000000000E+00 0. -1.
         22    1    3    3    0    0 -0.17736458302E+02 -0.15070728224E+02  0.26876719850E+02  0.35553718121E+02  0.00000000000E+00 0.  1.
         22    1    3    3    0    0  0.11746615715E+03 -0.74480794133E+02 -0.56386876781E+02  0.15008386537E+03  0.00000000000E+00 0.  1.
</event>
<event>
 7    1  0.5064652E-006  0.8643897E+02  0.7818608E-02  0.1375740E+00
          2   -1    0    0  502    0  0.00000000000E+00  0.00000000000E+00  0.11616969724E+04  0.11616969724E+04  0.00000000000E+00 0. -1.
          1   -1    0    0  501    0 -0.00000000000E+00 -0.00000000000E+00 -0.16904809466E+04  0.16904809466E+04  0.00000000000E+00 0. -1.
         25    2    1    2    0    0 -0.64201794159E+02 -0.49564828197E+02  0.47919341940E+03  0.50182631367E+03  0.12499909333E+03 0.  0.
          2    1    1    2  501    0 -0.26296837028E+02  0.42267523806E+02 -0.16757227875E+04  0.16764620269E+04  0.00000000000E+00 0. -1.
          1    1    1    2  502    0  0.90498631188E+02  0.72973043910E+01  0.66774539390E+03  0.67388957847E+03  0.00000000000E+00 0. -1.
         22    1    3    3    0    0  0.12492966351E+02 -0.66011624337E+02  0.16887679666E+03  0.18174977636E+03  0.00000000000E+00 0. -1.
         22    1    3    3    0    0 -0.76694760510E+02  0.16446796140E+02  0.31031662273E+03  0.32007653731E+03  0.00000000000E+00 0. -1.
</event>
<event>
 7    1  0.5064652E-006  0.4730477E+02  0.7818608E-02  0.1563113E+00
          2   -1    0    0  502    0  0.00000000000E+00  0.00000000000E+00  0.28893748151E+03  0.28893748151E+03  0.00000000000E+00 0. -1.
          1   -1    0    0  501    0 -0.00000000000E+00 -0.00000000000E+00 -0.86378104484E+03  0.86378104484E+03  0.00000000000E+00 0. -1.
         25    2    1    2    0    0 -0.15024140061E+02 -0.44821790085E+02  0.15865219109E+03  0.20743834171E+03  0.12500172087E+03 0.  0.
          2    1    1    2  501    0 -0.85204034293E+01  0.46553006098E+02 -0.83739564794E+03  0.83873193027E+03  0.00000000000E+00 0. -1.
          1    1    1    2  502    0  0.23544543491E+02 -0.17312160135E+01  0.10389989352E+03  0.10654825437E+03  0.00000000000E+00 0. -1.
         22    1    3    3    0    0 -0.31526499504E+02 -0.96238320006E+01  0.16481455240E+03  0.16807847868E+03  0.00000000000E+00 0. -1.
         22    1    3    3    0    0  0.16502359442E+02 -0.35197958084E+02 -0.61623613086E+01  0.39359863025E+02  0.00000000000E+00 0. -1.
</event>
<event>
 7    1  0.5064652E-006  0.7149575E+02  0.7818608E-02  0.1420213E+00
          2   -1    0    0  502    0  0.00000000000E+00  0.00000000000E+00  0.35639284982E+03  0.35639284982E+03  0.00000000000E+00 0. -1.
          1   -1    0    0  501    0 -0.00000000000E+00 -0.00000000000E+00 -0.10130234021E+04  0.10130234021E+04  0.00000000000E+00 0. -1.
         25    2    1    2    0    0  0.21239221404E+02  0.62227551616E+02 -0.89115853779E+02  0.16700094746E+03  0.12499723337E+03 0.  0.
          2    1    1    2  501    0 -0.58493970206E+02 -0.42249945538E+02 -0.88207791307E+03  0.88502432010E+03  0.00000000000E+00 0. -1.
          1    1    1    2  502    0  0.37254748802E+02 -0.19977606078E+02  0.31456321452E+03  0.31739098441E+03  0.00000000000E+00 0. -1.
         22    1    3    3    0    0 -0.47991232358E-01 -0.27596560892E+02  0.11993343261E+02  0.30090077415E+02  0.00000000000E+00 0.  1.
         22    1    3    3    0    0  0.21287212636E+02  0.89824112509E+02 -0.10110919704E+03  0.13691087004E+03  0.00000000000E+00 0.  1.
</event>
<event>
 7    1  0.5064652E-006  0.1030192E+03  0.7818608E-02  0.1316720E+00
          2   -1    0    0  502    0  0.00000000000E+00  0.00000000000E+00  0.10652388818E+04  0.10652388818E+04  0.00000000000E+00 0. -1.
          1   -1    0    0  501    0 -0.00000000000E+00 -0.00000000000E+00 -0.97463917626E+03  0.97463917626E+03  0.00000000000E+00 0. -1.
         25    2    1    2    0    0 -0.16024527602E+03 -0.36045842182E+02 -0.11570339740E+02  0.20672837886E+03  0.12499959456E+03 0.  0.
          2    1    1    2  501    0  0.58626964394E+02  0.36999381661E+02 -0.86142533596E+03  0.86421044001E+03  0.00000000000E+00 0. -1.
          1    1    1    2  502    0  0.10161831163E+03 -0.95353947872E+00  0.96359538119E+03  0.96893923914E+03  0.00000000000E+00 0. -1.
         22    1    3    3    0    0 -0.13116919408E+03  0.28858822834E+02 -0.17116341477E+02  0.13539260791E+03  0.00000000000E+00 0.  1.
         22    1    3    3    0    0 -0.29076081942E+02 -0.64904665017E+02  0.55460017371E+01  0.71335770952E+02  0.00000000000E+00 0.  1.
</event>
<event>
 7    1  0.5064652E-006  0.4726341E+02  0.7818608E-02  0.1478533E+00
          2   -1    0    0  502    0  0.00000000000E+00  0.00000000000E+00  0.58735365851E+03  0.58735365851E+03  0.00000000000E+00 0. -1.
          1   -1    0    0  501    0 -0.00000000000E+00 -0.00000000000E+00 -0.39196424485E+03  0.39196424485E+03  0.00000000000E+00 0. -1.
         25    2    1    2    0    0  0.43053107623E+02 -0.25803976850E+02  0.24887587933E+03  0.28299010811E+03  0.12499913072E+03 0.  0.
          2    1    1    2  501    0 -0.71559331649E+01  0.46805078029E+02 -0.37205510733E+03  0.37505589663E+03  0.00000000000E+00 0. -1.
          1    1    1    2  502    0 -0.35897174458E+02 -0.21001101178E+02  0.31856864166E+03  0.32127189861E+03  0.00000000000E+00 0. -1.
         22    1    3    3    0    0  0.44544318364E+02 -0.53772829145E+02  0.60043949684E+02  0.92092287117E+02  0.00000000000E+00 0.  1.
         22    1    3    3    0    0 -0.14912107409E+01  0.27968852295E+02  0.18883192964E+03  0.19089782100E+03  0.00000000000E+00 0.  1.
</event>
<event>
 7    1  0.5064652E-006  0.7783233E+02  0.7818608E-02  0.1387367E+00
          2   -1    0    0  502    0  0.00000000000E+00  0.00000000000E+00  0.10847546880E+03  0.10847546880E+03  0.00000000000E+00 0. -1.
          1   -1    0    0  501    0 -0.00000000000E+00 -0.00000000000E+00 -0.39043629588E+04  0.39043629588E+04  0.00000000000E+00 0. -1.
         25    2    1    2    0    0  0.52006741305E+02  0.78227940994E+02 -0.19805286073E+04  0.19866910278E+04  0.12499345513E+03 0.  0.
          2    1    1    2  501    0 -0.69976401315E+02 -0.31252949246E+02 -0.19139420484E+04  0.19154758177E+04  0.00000000000E+00 0. -1.
          1    1    1    2  502    0  0.17969660010E+02 -0.46974991747E+02  0.98583165671E+02  0.11067158210E+03  0.00000000000E+00 0. -1.
         22    1    3    3    0    0 -0.22887386648E+02  0.13166572020E+01 -0.82416633833E+02  0.85545704662E+02  0.00000000000E+00 0. -1.
         22    1    3    3    0    0  0.74894127954E+02  0.76911283792E+02 -0.18981119734E+04  0.19011453231E+04  0.00000000000E+00 0. -1.
</event>
<event>
 7    1  0.5064652E-006  0.5058038E+02  0.7818608E-02  0.1488884E+00
          2   -1    0    0  502    0  0.00000000000E+00  0.00000000000E+00  0.89728149851E+03  0.89728149851E+03  0.00000000000E+00 0. -1.
          1   -1    0    0  501    0 -0.00000000000E+00 -0.00000000000E+00 -0.96519154058E+02  0.96519154058E+02  0.00000000000E+00 0. -1.
         25    2    1    2    0    0  0.15727453189E+02 -0.70238580062E+02  0.50169977252E+03  0.52202326559E+03  0.12499926863E+03 0.  0.
          2    1    1    2  501    0  0.13228400602E+02  0.48621133755E+02 -0.78069272156E+02  0.92918332342E+02  0.00000000000E+00 0. -1.
          1    1    1    2  502    0 -0.28955853790E+02  0.21617446307E+02  0.37713184409E+03  0.37885905464E+03  0.00000000000E+00 0. -1.
         22    1    3    3    0    0  0.54977318201E+02  0.73459099405E+01  0.15637066004E+03  0.16591639832E+03  0.00000000000E+00 0.  1.
         22    1    3    3    0    0 -0.39249865013E+02 -0.77584490003E+02  0.34532911248E+03  0.35610686728E+03  0.00000000000E+00 0.  1.
</event>
<event>
 7    1  0.5064652E-006  0.8306771E+02  0.7818608E-02  0.1382127E+00
          2   -1    0    0  502    0  0.00000000000E+00  0.00000000000E+00  0.44059266410E+03  0.44059266410E+03  0.00000000000E+00 0. -1.
          1   -1    0    0  501    0 -0.00000000000E+00 -0.00000000000E+00 -0.83216638310E+03  0.83216638310E+03  0.00000000000E+00 0. -1.
         25    2    1    2    0    0  0.62552046132E+02 -0.74730003462E+02 -0.52401865288E+02  0.16694718470E+03  0.12501229980E+03 0.  0.
          2    1    1    2  501    0 -0.78101728261E+02  0.28086180104E+02 -0.71851641461E+03  0.72329423579E+03  0.00000000000E+00 0. -1.
          1    1    1    2  502    0  0.15549682129E+02  0.46643823358E+02  0.37934456089E+03  0.38251762672E+03  0.00000000000E+00 0. -1.
         22    1    3    3    0    0  0.91410084880E+02 -0.87265853257E+02 -0.35683955603E+02  0.13131822969E+03  0.00000000000E+00 0. -1.
         22    1    3    3    0    0 -0.28858038748E+02  0.12535849795E+02 -0.16717909685E+02  0.35628955005E+02  0.00000000000E+00 0. -1.
</event>
<event>
 7    1  0.5064652E-006  0.1432911E+03  0.7818608E-02  0.1324085E+00
          2   -1    0    0  502    0  0.00000000000E+00  0.00000000000E+00  0.20886585525E+04  0.20886585525E+04  0.00000000000E+00 0. -1.
          1   -1    0    0  501    0 -0.00000000000E+00 -0.00000000000E+00 -0.95946742892E+03  0.95946742892E+03  0.00000000000E+00 0. -1.
         25    2    1    2    0    0 -0.97185491506E+02 -0.17128944015E+02  0.42296438598E+02  0.16478220644E+03  0.12500306540E+03 0.  0.
          2    1    1    2  501    0 -0.46498931194E+02 -0.39888955996E+01 -0.89495955970E+03  0.89617558290E+03  0.00000000000E+00 0. -1.
          1    1    1    2  502    0  0.14368442270E+03  0.21117839614E+02  0.19818542447E+04  0.19871681921E+04  0.00000000000E+00 0. -1.
         22    1    3    3    0    0 -0.11901646818E+03  0.13507699083E+02  0.42691391863E+02  0.12716104975E+03  0.00000000000E+00 0.  1.
         22    1    3    3    0    0  0.21830976677E+02 -0.30636643098E+02 -0.39495326513E+00  0.37621156695E+02  0.00000000000E+00 0.  1.
</event>
<event>
 7    1  0.5064652E-006  0.1766392E+03  0.7818608E-02  0.1319924E+00
          2   -1    0    0  502    0  0.00000000000E+00  0.00000000000E+00  0.35898322623E+03  0.35898322623E+03  0.00000000000E+00 0. -1.
          1   -1    0    0  501    0 -0.00000000000E+00 -0.00000000000E+00 -0.11942518561E+04  0.11942518561E+04  0.00000000000E+00 0. -1.
         25    2    1    2    0    0  0.18756227973E+03 -0.39044040807E+02 -0.26403643835E+03  0.34934666658E+03  0.12499522700E+03 0.  0.
          2    1    1    2  501    0 -0.16057791755E+03  0.67599055095E+02 -0.87774428299E+03  0.89486866421E+03  0.00000000000E+00 0. -1.
          1    1    1    2  502    0 -0.26984362182E+02 -0.28555014287E+02  0.30651209146E+03  0.30901975156E+03  0.00000000000E+00 0. -1.
         22    1    3    3    0    0  0.15392658727E+03 -0.80993935794E+02 -0.21526362723E+03  0.27675231004E+03  0.00000000000E+00 0.  1.
         22    1    3    3    0    0  0.33635692457E+02  0.41949894987E+02 -0.48772811126E+02  0.72594356541E+02  0.00000000000E+00 0.  1.
</event>
<event>
 7    1  0.5064652E-006  0.7917113E+02  0.7818608E-02  0.1475419E+00
          2   -1    0    0  502    0  0.00000000000E+00  0.00000000000E+00  0.81406105476E+03  0.81406105476E+03  0.00000000000E+00 0. -1.
          1   -1    0    0  501    0 -0.00000000000E+00 -0.00000000000E+00 -0.10823517905E+03  0.10823517905E+03  0.00000000000E+00 0. -1.
         25    2    1    2    0    0  0.89172592043E+02  0.50929034290E+02  0.27868654670E+03  0.32223650023E+03  0.12499861225E+03 0.  0.
          2    1    1    2  501    0 -0.69609928718E+02 -0.34756141339E+02 -0.68565699775E+02  0.10370528782E+03  0.00000000000E+00 0. -1.
          1    1    1    2  502    0 -0.19562663326E+02 -0.16172892952E+02  0.49570502878E+03  0.49635444576E+03  0.00000000000E+00 0. -1.
         22    1    3    3    0    0  0.68760972400E+01  0.27224474472E+02  0.21157795325E+03  0.21343308793E+03  0.00000000000E+00 0.  1.
         22    1    3    3    0    0  0.82296494803E+02  0.23704559818E+02  0.67108593457E+02  0.10880341230E+03  0.00000000000E+00 0.  1.
</event>
<event>
 7    1  0.5064652E-006  0.5646398E+02  0.7818608E-02  0.1515220E+00
          2   -1    0    0  502    0  0.00000000000E+00  0.00000000000E+00  0.23817169006E+03  0.23817169006E+03  0.00000000000E+00 0. -1.
          1   -1    0    0  501    0 -0.00000000000E+00 -0.00000000000E+00 -0.66532025443E+03  0.66532025443E+03  0.00000000000E+00 0. -1.
         25    2    1    2    0    0 -0.38812529176E+02  0.50103275093E+00  0.11494729140E+02  0.13139129151E+03  0.12499951692E+03 0.  0.
          2    1    1    2  501    0  0.51949175088E+02  0.23116436084E+02 -0.60293038487E+03  0.60560559394E+03  0.00000000000E+00 0. -1.
          1    1    1    2  502    0 -0.13136645912E+02 -0.23617468835E+02  0.16428709136E+03  0.16649505905E+03  0.00000000000E+00 0. -1.
         22    1    3    3    0    0  0.21508952750E+02 -0.46234930166E+02  0.19650859606E+02  0.54648514153E+02  0.00000000000E+00 0. -1.
         22    1    3    3    0    0 -0.60321481926E+02  0.46735962917E+02 -0.81561304663E+01  0.76742777352E+02  0.00000000000E+00 0. -1.
</event>
<event>
 7    1  0.5064652E-006  0.7351338E+02  0.7818608E-02  0.1407027E+00
          2   -1    0    0  502    0  0.00000000000E+00  0.00000000000E+00  0.30796421308E+03  0.30796421308E+03  0.00000000000E+00 0. -1.
          1   -1    0    0  501    0 -0.00000000000E+00 -0.00000000000E+00 -0.87394750826E+02  0.87394750826E+02  0.00000000000E+00 0. -1.
         25    2    1    2    0    0  0.21631427873E+02 -0.52337677122E+02  0.42714122858E+02  0.14372407179E+03  0.12499984561E+03 0.  0.
          2    1    1    2  501    0 -0.67115667029E+02  0.54666103062E+02  0.22072898543E+02  0.89331452663E+02  0.00000000000E+00 0. -1.
          1    1    1    2  502    0  0.45484239155E+02 -0.23284259405E+01  0.15578244085E+03  0.16230343945E+03  0.00000000000E+00 0. -1.
         22    1    3    3    0    0  0.49891237674E+01  0.37673355941E+02  0.35333223600E+02  0.51890363207E+02  0.00000000000E+00 0.  1.
         22    1    3    3    0    0  0.16642304106E+02 -0.90011033062E+02  0.73808992580E+01  0.91833708587E+02  0.00000000000E+00 0.  1.
</event>
<event>
 7    1  0.5270192E-006  0.7614970E+02  0.7818608E-02  0.1429703E+00
          2   -1    0    0  502    0  0.00000000000E+00  0.00000000000E+00  0.77570941658E+03  0.77570941658E+03  0.00000000000E+00 0. -1.
          1   -1    0    0  501    0 -0.00000000000E+00 -0.00000000000E+00 -0.29049936203E+04  0.29049936203E+04  0.00000000000E+00 0. -1.
         25    2    1    2    0    0  0.52412564351E+02 -0.75159832843E+01 -0.53318862410E+03  0.55019875306E+03  0.12499996836E+03 0.  0.
          2    1    1    2  501    0 -0.66170413876E+02  0.41771717038E+02 -0.23622076168E+04  0.23635033795E+04  0.00000000000E+00 0. -1.
          1    1    1    2  502    0  0.13757849525E+02 -0.34255733754E+02  0.76611203718E+03  0.76700090432E+03  0.00000000000E+00 0. -1.
         22    1    3    3    0    0 -0.26139400124E+02 -0.30312268085E+02 -0.30849849531E+03  0.31108427064E+03  0.00000000000E+00 0. -1.
         22    1    3    3    0    0  0.78551964475E+02  0.22796284801E+02 -0.22469012879E+03  0.23911448242E+03  0.00000000000E+00 0. -1.
</event>
<event>
 7    1  0.5064652E-006  0.1007512E+03  0.7818608E-02  0.1341043E+00
          2   -1    0    0  502    0  0.00000000000E+00  0.00000000000E+00  0.15001540981E+04  0.15001540981E+04  0.00000000000E+00 0. -1.
          1   -1    0    0  501    0 -0.00000000000E+00 -0.00000000000E+00 -0.16422464543E+03  0.16422464543E+03  0.00000000000E+00 0. -1.
         25    2    1    2    0    0  0.75693982731E+02  0.11996173774E+03  0.68591606607E+03  0.71149511181E+03  0.12499618752E+03 0.  0.
          2    1    1    2  501    0 -0.23198405304E+02 -0.97219683836E+02 -0.13378629882E+03  0.16699882241E+03  0.00000000000E+00 0. -1.
          1    1    1    2  502    0 -0.52495577427E+02 -0.22742053904E+02  0.78379968540E+03  0.78588480931E+03  0.00000000000E+00 0. -1.
         22    1    3    3    0    0  0.10166249095E+03  0.11113014802E+03  0.64417304881E+03  0.66154673960E+03  0.00000000000E+00 0.  1.
         22    1    3    3    0    0 -0.25968508223E+02  0.88315897181E+01  0.41743017259E+02  0.49948372207E+02  0.00000000000E+00 0.  1.
</event>
<event>
 7    1  0.5064652E-006  0.5050644E+02  0.7818608E-02  0.1548405E+00
          2   -1    0    0  502    0  0.00000000000E+00  0.00000000000E+00  0.49480625410E+03  0.49480625410E+03  0.00000000000E+00 0. -1.
          1   -1    0    0  501    0 -0.00000000000E+00 -0.00000000000E+00 -0.11624013658E+04  0.11624013658E+04  0.00000000000E+00 0. -1.
         25    2    1    2    0    0  0.11850630153E+01  0.30879417824E+02  0.46973332029E+02  0.13706158160E+03  0.12499776162E+03 0.  0.
          2    1    1    2  501    0  0.15987157753E+02 -0.48051242197E+02 -0.11164166951E+04  0.11175646505E+04  0.00000000000E+00 0. -1.
          1    1    1    2  502    0 -0.17172220769E+02  0.17171824372E+02  0.40184825132E+03  0.40258138780E+03  0.00000000000E+00 0. -1.
         22    1    3    3    0    0  0.97178065982E+01  0.33191450108E+02 -0.38142743737E+02  0.51487639537E+02  0.00000000000E+00 0.  1.
         22    1    3    3    0    0 -0.85327435829E+01 -0.23120322831E+01  0.85116075766E+02  0.85573942062E+02  0.00000000000E+00 0.  1.
</event>
<event>
 7    1  0.5064652E-006  0.6266190E+02  0.7818608E-02  0.1510862E+00
          2   -1    0    0  502    0  0.00000000000E+00  0.00000000000E+00  0.45229136776E+03  0.45229136776E+03  0.00000000000E+00 0. -1.
          1   -1    0    0  501    0 -0.00000000000E+00 -0.00000000000E+00 -0.49413569074E+03  0.49413569074E+03  0.00000000000E+00 0. -1.
         25    2    1    2    0    0 -0.48818989702E+02 -0.12715985853E+02  0.78599191835E+02  0.15603654104E+03  0.12499831652E+03 0.  0.
          2    1    1    2  501    0 -0.14603013438E+02  0.20388776774E+02 -0.45202033531E+03  0.45271551084E+03  0.00000000000E+00 0. -1.
          1    1    1    2  502    0  0.63422003139E+02 -0.76727909211E+01  0.33157682050E+03  0.33767500662E+03  0.00000000000E+00 0. -1.
         22    1    3    3    0    0  0.26362922664E+02 -0.42986602588E+02  0.47353011586E+02  0.69174846583E+02  0.00000000000E+00 0. -1.
         22    1    3    3    0    0 -0.75181912366E+02  0.30270616735E+02  0.31246180249E+02  0.86861694461E+02  0.00000000000E+00 0. -1.
</event>
<event>
 7    1  0.5064652E-006  0.3564562E+02  0.7818608E-02  0.1543214E+00
          2   -1    0    0  502    0  0.00000000000E+00  0.00000000000E+00  0.85167377141E+03  0.85167377141E+03  0.00000000000E+00 0. -1.
          1   -1    0    0  501    0 -0.00000000000E+00 -0.00000000000E+00 -0.35354142651E+03  0.35354142651E+03  0.00000000000E+00 0. -1.
         25    2    1    2    0    0 -0.32811371498E+02 -0.32840325482E+02 -0.26626703509E+03  0.29778961129E+03  0.12500178215E+03 0.  0.
          2    1    1    2  501    0  0.35874655853E+02 -0.26734237874E+01 -0.66582586268E+02  0.75679448475E+02  0.00000000000E+00 0. -1.
          1    1    1    2  502    0 -0.30632843546E+01  0.35513749270E+02  0.83098196626E+03  0.83174613816E+03  0.00000000000E+00 0. -1.
         22    1    3    3    0    0  0.66828846634E+01  0.43672711607E+02 -0.12233116007E+03  0.13006490461E+03  0.00000000000E+00 0.  1.
         22    1    3    3    0    0 -0.39494256161E+02 -0.76513037089E+02 -0.14393587502E+03  0.16772470668E+03  0.00000000000E+00 0.  1.
</event>
<event>
 7    1  0.5064652E-006  0.7451735E+02  0.7818608E-02  0.1349983E+00
          2   -1    0    0  502    0  0.00000000000E+00  0.00000000000E+00  0.60100615663E+02  0.60100615663E+02  0.00000000000E+00 0. -1.
          1   -1    0    0  501    0 -0.00000000000E+00 -0.00000000000E+00 -0.85599889691E+03  0.85599889691E+03  0.00000000000E+00 0. -1.
         25    2    1    2    0    0  0.62927025421E+02  0.35655847931E+01 -0.18560816778E+03  0.23248351968E+03  0.12500268418E+03 0.  0.
          2    1    1    2  501    0 -0.20765499197E+02 -0.71565556906E+02 -0.59805075685E+03  0.60267532110E+03  0.00000000000E+00 0. -1.
          1    1    1    2  502    0 -0.42161526224E+02  0.67999972112E+02 -0.12239356617E+02  0.80940671799E+02  0.00000000000E+00 0. -1.
         22    1    3    3    0    0 -0.33069693051E+02 -0.11344933537E+02 -0.19445055689E+02  0.40005278479E+02  0.00000000000E+00 0. -1.
         22    1    3    3    0    0  0.95996718472E+02  0.14910518330E+02 -0.16616311209E+03  0.19247824120E+03  0.00000000000E+00 0. -1.
</event>
<event>
 7    1  0.5064652E-006  0.9778200E+02  0.7818608E-02  0.1303131E+00
          2   -1    0    0  502    0  0.00000000000E+00  0.00000000000E+00  0.79363970673E+03  0.79363970673E+03  0.00000000000E+00 0. -1.
          1   -1    0    0  501    0 -0.00000000000E+00 -0.00000000000E+00 -0.53822230840E+03  0.53822230840E+03  0.00000000000E+00 0. -1.
         25    2    1    2    0    0  0.84294442499E+02 -0.13609853976E+02  0.42617761874E+01  0.15144034706E+03  0.12500093927E+03 0.  0.
          2    1    1    2  501    0 -0.48842553931E+02  0.88242879279E+02 -0.45672834179E+03  0.46773195209E+03  0.00000000000E+00 0. -1.
          1    1    1    2  502    0 -0.35451888568E+02 -0.74633025303E+02  0.70788396393E+03  0.71268971598E+03  0.00000000000E+00 0. -1.
         22    1    3    3    0    0  0.70207576077E+02 -0.47604121994E+02  0.45429440040E+02  0.96224166361E+02  0.00000000000E+00 0.  1.
         22    1    3    3    0    0  0.14086866422E+02  0.33994268018E+02 -0.41167663853E+02  0.55216180697E+02  0.00000000000E+00 0.  1.
</event>
<event>
 7    1  0.5064652E-006  0.1374541E+03  0.7818608E-02  0.1265783E+00
          2   -1    0    0  502    0  0.00000000000E+00  0.00000000000E+00  0.19685075620E+03  0.19685075620E+03  0.00000000000E+00 0. -1.
          1   -1    0    0  501    0 -0.00000000000E+00 -0.00000000000E+00 -0.29060076821E+03  0.29060076821E+03  0.00000000000E+00 0. -1.
         25    2    1    2    0    0 -0.13483075295E+03 -0.85413061913E+02  0.37135508348E+02  0.20610452759E+03  0.12500122891E+03 0.  0.
          2    1    1    2  501    0  0.13671694544E+03  0.17789941772E+01 -0.14180072154E+03  0.19698256933E+03  0.00000000000E+00 0. -1.
          1    1    1    2  502    0 -0.18861924982E+01  0.83634067736E+02  0.10915201175E+02  0.84364427485E+02  0.00000000000E+00 0. -1.
         22    1    3    3    0    0  0.23337914131E+02 -0.11904222773E+02  0.15268769624E+02  0.30323325702E+02  0.00000000000E+00 0. -1.
         22    1    3    3    0    0 -0.15816866708E+03 -0.73508839140E+02  0.21866738724E+02  0.17578120189E+03  0.00000000000E+00 0. -1.
</event>
<event>
 7    1  0.5064652E-006  0.1928997E+03  0.7818608E-02  0.1267006E+00
          2   -1    0    0  502    0  0.00000000000E+00  0.00000000000E+00  0.14947500024E+03  0.14947500024E+03  0.00000000000E+00 0. -1.
          1   -1    0    0  501    0 -0.00000000000E+00 -0.00000000000E+00 -0.11400212067E+04  0.11400212067E+04  0.00000000000E+00 0. -1.
         25    2    1    2    0    0 -0.20904897577E+03  0.12457733126E+03 -0.23750713437E+03  0.36229784967E+03  0.12501642797E+03 0.  0.
          2    1    1    2  501    0  0.15669152142E+03 -0.97586070993E+02 -0.81854570261E+03  0.83910210427E+03  0.00000000000E+00 0. -1.
          1    1    1    2  502    0  0.52357454344E+02 -0.26991260265E+02  0.65506630505E+02  0.88096253020E+02  0.00000000000E+00 0. -1.
         22    1    3    3    0    0  0.13541650996E+02 -0.65640824998E+01 -0.10141215630E+02  0.18146838436E+02  0.00000000000E+00 0.  1.
         22    1    3    3    0    0 -0.22259062676E+03  0.13114141376E+03 -0.22736591874E+03  0.34415101123E+03  0.00000000000E+00 0.  1.
</event>
<event>
 7    1  0.5064652E-006  0.8757160E+02  0.7818608E-02  0.1462069E+00
          2   -1    0    0  502    0  0.00000000000E+00  0.00000000000E+00  0.92591088723E+03  0.92591088723E+03  0.00000000000E+00 0. -1.
          1   -1    0    0  501    0 -0.00000000000E+00 -0.00000000000E+00 -0.62896365847E+03  0.62896365847E+03  0.00000000000E+00 0. -1.
         25    2    1    2    0    0 -0.75428748960E+02  0.90711159726E+00 -0.14709872036E+03  0.20724668932E+03  0.12499135043E+03 0.  0.
          2    1    1    2  501    0 -0.93789488668E+01 -0.23448009861E+02 -0.44928655029E+03  0.44999575345E+03  0.00000000000E+00 0. -1.
          1    1    1    2  502    0  0.84807697827E+02  0.22540898264E+02  0.89333249941E+03  0.89763210293E+03  0.00000000000E+00 0. -1.
         22    1    3    3    0    0 -0.63569964216E+02 -0.64974805733E+01 -0.46029501255E+01  0.64066721112E+02  0.00000000000E+00 0.  1.
         22    1    3    3    0    0 -0.11858784744E+02  0.74045921706E+01 -0.14249577024E+03  0.14317996821E+03  0.00000000000E+00 0.  1.
</event>
<event>
 7    1  0.5064652E-006  0.5705348E+02  0.7818608E-02  0.1544662E+00
          2   -1    0    0  502    0  0.00000000000E+00  0.00000000000E+00  0.12954912215E+04  0.12954912215E+04  0.00000000000E+00 0. -1.
          1   -1    0    0  501    0 -0.00000000000E+00 -0.00000000000E+00 -0.82479079037E+03  0.82479079037E+03  0.00000000000E+00 0. -1.
         25    2    1    2    0    0  0.34824008105E+02 -0.58398846917E+01 -0.53760841509E+02  0.14057784396E+03  0.12500034535E+03 0.  0.
          2    1    1    2  501    0  0.20995752908E+02 -0.66500138505E+01 -0.72680127656E+03  0.72713488428E+03  0.00000000000E+00 0. -1.
          1    1    1    2  502    0 -0.55819761013E+02  0.12489898542E+02  0.12512625492E+04  0.12525692837E+04  0.00000000000E+00 0. -1.
         22    1    3    3    0    0 -0.27509829063E+01  0.11303167124E+02 -0.86869163757E+02  0.87644629647E+02  0.00000000000E+00 0.  1.
         22    1    3    3    0    0  0.37574991012E+02 -0.17143051816E+02  0.33108322249E+02  0.52933214310E+02  0.00000000000E+00 0.  1.
</event>
<event>
 7    1  0.5064652E-006  0.1504192E+03  0.7818608E-02  0.1323677E+00
          2   -1    0    0  502    0  0.00000000000E+00  0.00000000000E+00  0.73750788959E+03  0.73750788959E+03  0.00000000000E+00 0. -1.
          1   -1    0    0  501    0 -0.00000000000E+00 -0.00000000000E+00 -0.13341758952E+03  0.13341758952E+03  0.00000000000E+00 0. -1.
         25    2    1    2    0    0 -0.15127482544E+03 -0.22818160086E+02  0.19158257466E+03  0.27519464954E+03  0.12499388377E+03 0.  0.
          2    1    1    2  501    0  0.14955015244E+03 -0.21768108117E+02 -0.27379644509E+02  0.15358627399E+03  0.00000000000E+00 0. -1.
          1    1    1    2  502    0  0.17246730008E+01  0.44586268203E+02  0.43988736992E+03  0.44214455557E+03  0.00000000000E+00 0. -1.
         22    1    3    3    0    0 -0.12401548997E+03  0.29893018373E+02  0.16890724690E+03  0.21166740976E+03  0.00000000000E+00 0.  1.
         22    1    3    3    0    0 -0.27259335468E+02 -0.52711178459E+02  0.22675327765E+02  0.63527239779E+02  0.00000000000E+00 0.  1.
</event>
<event>
 7    1  0.5064652E-006  0.5040428E+02  0.7818608E-02  0.1537098E+00
          2   -1    0    0  502    0  0.00000000000E+00  0.00000000000E+00  0.16236935266E+04  0.16236935266E+04  0.00000000000E+00 0. -1.
          1   -1    0    0  501    0 -0.00000000000E+00 -0.00000000000E+00 -0.17157299490E+03  0.17157299490E+03  0.00000000000E+00 0. -1.
         25    2    1    2    0    0 -0.27885651989E+02  0.46497345162E+02  0.32825442825E+03  0.35540234042E+03  0.12498096342E+03 0.  0.
          2    1    1    2  501    0  0.43520618919E+02 -0.25491784502E+02 -0.15383632490E+03  0.16189345326E+03  0.00000000000E+00 0. -1.
          1    1    1    2  502    0 -0.15634966930E+02 -0.21005560660E+02  0.12777024284E+04  0.12779707278E+04  0.00000000000E+00 0. -1.
         22    1    3    3    0    0 -0.13493971734E+02  0.84816335600E+02  0.15324582252E+03  0.17567065827E+03  0.00000000000E+00 0.  1.
         22    1    3    3    0    0 -0.14391680254E+02 -0.38318990438E+02  0.17500860572E+03  0.17973168214E+03  0.00000000000E+00 0.  1.
</event>
<event>
 7    1  0.5064652E-006  0.1681713E+03  0.7818608E-02  0.1291958E+00
          2   -1    0    0  502    0  0.00000000000E+00  0.00000000000E+00  0.17577402444E+04  0.17577402444E+04  0.00000000000E+00 0. -1.
          1   -1    0    0  501    0 -0.00000000000E+00 -0.00000000000E+00 -0.85060069498E+03  0.85060069498E+03  0.00000000000E+00 0. -1.
         25    2    1    2    0    0  0.67149438043E+02 -0.19762454319E+03  0.40567838305E+03  0.47303807274E+03  0.12500224271E+03 0.  0.
          2    1    1    2  501    0 -0.24548329174E+02  0.16563427427E+03 -0.80779323833E+03  0.82496499876E+03  0.00000000000E+00 0. -1.
          1    1    1    2  502    0 -0.42601108869E+02  0.31990268921E+02  0.13092544047E+04  0.13103378679E+04  0.00000000000E+00 0. -1.
         22    1    3    3    0    0  0.10161437684E+03 -0.13994214880E+03  0.32404307516E+03  0.36730532415E+03  0.00000000000E+00 0. -1.
         22    1    3    3    0    0 -0.34464938794E+02 -0.57682394391E+02  0.81635307890E+02  0.10573274858E+03  0.00000000000E+00 0. -1.
</event>
<event>
 7    1  0.5064652E-006  0.1374905E+03  0.7818608E-02  0.1361388E+00
          2   -1    0    0  502    0  0.00000000000E+00  0.00000000000E+00  0.13830732416E+04  0.13830732416E+04  0.00000000000E+00 0. -1.
          1   -1    0    0  501    0 -0.00000000000E+00 -0.00000000000E+00 -0.16037418113E+04  0.16037418113E+04  0.00000000000E+00 0. -1.
         25    2    1    2    0    0  0.94376844092E+02 -0.13521810452E+03  0.15768717500E+02  0.20751793763E+03  0.12499646993E+03 0.  0.
          2    1    1    2  501    0 -0.14590848034E+01  0.35223347764E+02 -0.15039963274E+04  0.15044094410E+04  0.00000000000E+00 0. -1.
          1    1    1    2  502    0 -0.92917759289E+02  0.99994756759E+02  0.12675590403E+04  0.12748876743E+04  0.00000000000E+00 0. -1.
         22    1    3    3    0    0  0.13990219788E+02 -0.42107287216E+02  0.61884152452E+02  0.76147214074E+02  0.00000000000E+00 0.  1.
         22    1    3    3    0    0  0.80386624304E+02 -0.93110817307E+02 -0.46115434952E+02  0.13137072356E+03  0.00000000000E+00 0.  1.
</event>
<event>
 7    1  0.5064652E-006  0.1439975E+03  0.7818608E-02  0.1425004E+00
          2   -1    0    0  502    0  0.00000000000E+00  0.00000000000E+00  0.38458996698E+03  0.38458996698E+03  0.00000000000E+00 0. -1.
          1   -1    0    0  501    0 -0.00000000000E+00 -0.00000000000E+00 -0.42563813475E+03  0.42563813475E+03  0.00000000000E+00 0. -1.
         25    2    1    2    0    0  0.19419334055E+02 -0.14901631515E+03  0.33166717983E+02  0.19826267212E+03  0.12500033303E+03 0.  0.
          2    1    1    2  501    0 -0.36729436970E+02  0.13854193082E+03 -0.32770043006E+03  0.35767372003E+03  0.00000000000E+00 0. -1.
          1    1    1    2  502    0  0.17310102915E+02  0.10474384327E+02  0.25348554431E+03  0.25429170958E+03  0.00000000000E+00 0. -1.
         22    1    3    3    0    0 -0.73064866859E+01 -0.40283537448E+02 -0.45661877338E+02  0.61328257590E+02  0.00000000000E+00 0.  1.
         22    1    3    3    0    0  0.26725820741E+02 -0.10873277770E+03  0.78828595321E+02  0.13693441453E+03  0.00000000000E+00 0.  1.
</event>
<event>
 7    1  0.5064652E-006  0.1079364E+03  0.7818608E-02  0.1291261E+00
          2   -1    0    0  502    0  0.00000000000E+00  0.00000000000E+00  0.12366247522E+04  0.12366247522E+04  0.00000000000E+00 0. -1.
          1   -1    0    0  501    0 -0.00000000000E+00 -0.00000000000E+00 -0.57796443106E+03  0.57796443106E+03  0.00000000000E+00 0. -1.
         25    2    1    2    0    0 -0.10362310527E+03  0.37122382830E+02  0.60309968251E+02  0.17713766855E+03  0.12499856838E+03 0.  0.
          2    1    1    2  501    0  0.99032596999E+02  0.46299075199E+02 -0.51221338380E+03  0.52374956819E+03  0.00000000000E+00 0. -1.
          1    1    1    2  502    0  0.45905082712E+01 -0.83421458030E+02  0.11105637367E+04  0.11137019465E+04  0.00000000000E+00 0. -1.
         22    1    3    3    0    0 -0.56404390601E+02 -0.22399931518E+02  0.78293774575E+02  0.99061230298E+02  0.00000000000E+00 0. -1.
         22    1    3    3    0    0 -0.47218714670E+02  0.59522314348E+02 -0.17983806324E+02  0.78076438253E+02  0.00000000000E+00 0. -1.
</event>
<event>
 7    1  0.5064652E-006  0.1257154E+03  0.7818608E-02  0.1354174E+00
          2   -1    0    0  502    0  0.00000000000E+00  0.00000000000E+00  0.20766787563E+04  0.20766787563E+04  0.00000000000E+00 0. -1.
          1   -1    0    0  501    0 -0.00000000000E+00 -0.00000000000E+00 -0.45924703351E+03  0.45924703351E+03  0.00000000000E+00 0. -1.
         25    2    1    2    0    0  0.94578174940E+01 -0.91746169599E+02  0.14420840712E+03  0.21196081280E+03  0.12499804611E+03 0.  0.
          2    1    1    2  501    0 -0.19997786581E+02 -0.35761902729E+02 -0.42222252981E+03  0.42420595214E+03  0.00000000000E+00 0. -1.
          1    1    1    2  502    0  0.10539969087E+02  0.12750807233E+03  0.18954458454E+04  0.18997590248E+04  0.00000000000E+00 0. -1.
         22    1    3    3    0    0 -0.54973727682E+02 -0.24081041327E+02  0.72883672260E+02  0.94414177795E+02  0.00000000000E+00 0. -1.
         22    1    3    3    0    0  0.64431545176E+02 -0.67665128273E+02  0.71324734865E+02  0.11754663501E+03  0.00000000000E+00 0. -1.
</event>
<event>
 7    1  0.5064652E-006  0.7198008E+02  0.7818608E-02  0.1480538E+00
          2   -1    0    0  502    0  0.00000000000E+00  0.00000000000E+00  0.24416143874E+04  0.24416143874E+04  0.00000000000E+00 0. -1.
          1   -1    0    0  501    0 -0.00000000000E+00 -0.00000000000E+00 -0.93188175883E+01  0.93188175883E+01  0.00000000000E+00 0. -1.
         25    2    1    2    0    0 -0.93248649000E+02  0.10852262267E+02  0.17703502195E+04  0.17772387903E+04  0.12499894423E+03 0.  0.
          2    1    1    2  501    0  0.67137742933E+02 -0.17418118121E+02  0.21440648216E+03  0.22534641545E+03  0.00000000000E+00 0. -1.
          1    1    1    2  502    0  0.26110906067E+02  0.65658558533E+01  0.44753886819E+03  0.44834799924E+03  0.00000000000E+00 0. -1.
         22    1    3    3    0    0 -0.61371918504E+02  0.11716618030E+02  0.16844863702E+04  0.16856447203E+04  0.00000000000E+00 0.  1.
         22    1    3    3    0    0 -0.31876730496E+02 -0.86435576323E+00  0.85863849265E+02  0.91594070051E+02  0.00000000000E+00 0.  1.
</event>
<event>
 7    1  0.5064652E-006  0.1276424E+03  0.7818608E-02  0.1272926E+00
          2   -1    0    0  502    0  0.00000000000E+00  0.00000000000E+00  0.61962376894E+03  0.61962376894E+03  0.00000000000E+00 0. -1.
          1   -1    0    0  501    0 -0.00000000000E+00 -0.00000000000E+00 -0.25804738522E+03  0.25804738522E+03  0.00000000000E+00 0. -1.
         25    2    1    2    0    0 -0.12192396120E+02  0.91270103953E+02  0.71563403724E+02  0.17095488399E+03  0.12500146083E+03 0.  0.
          2    1    1    2  501    0 -0.66720209394E+02 -0.12025375249E+03 -0.18152873783E+03  0.22773939928E+03  0.00000000000E+00 0. -1.
          1    1    1    2  502    0  0.78912605515E+02  0.28983648537E+02  0.47154171782E+03  0.47897687088E+03  0.00000000000E+00 0. -1.
         22    1    3    3    0    0  0.39086965589E+02 -0.11018292197E+02  0.14767752725E+02  0.43212037240E+02  0.00000000000E+00 0.  1.
         22    1    3    3    0    0 -0.51279361709E+02  0.10228839615E+03  0.56795650998E+02  0.12774284675E+03  0.00000000000E+00 0.  1.
</event>
<event>
 7    1  0.5064652E-006  0.9223512E+02  0.7818608E-02  0.1407136E+00
          2   -1    0    0  502    0  0.00000000000E+00  0.00000000000E+00  0.59091718407E+03  0.59091718407E+03  0.00000000000E+00 0. -1.
          1   -1    0    0  501    0 -0.00000000000E+00 -0.00000000000E+00 -0.17337308207E+04  0.17337308207E+04  0.00000000000E+00 0. -1.
         25    2    1    2    0    0 -0.11867358471E+03  0.37313899843E+02 -0.12306539129E+04  0.12432277146E+04  0.12502139915E+03 0.  0.
          2    1    1    2  501    0  0.27558068843E+02 -0.23578653957E+02 -0.49248823564E+03  0.49382189332E+03  0.00000000000E+00 0. -1.
          1    1    1    2  502    0  0.91115515866E+02 -0.13735245885E+02  0.58032851191E+03  0.58759839682E+03  0.00000000000E+00 0. -1.
         22    1    3    3    0    0 -0.10078365346E+03  0.39215894393E+02 -0.12136959614E+04  0.12185044595E+04  0.00000000000E+00 0. -1.
         22    1    3    3    0    0 -0.17889931253E+02 -0.19019945502E+01 -0.16957951510E+02  0.24723255103E+02  0.00000000000E+00 0. -1.
</event>
<event>
 7    1  0.5064652E-006  0.9626312E+02  0.7818608E-02  0.1427326E+00
          2   -1    0    0  502    0  0.00000000000E+00  0.00000000000E+00  0.74252780043E+03  0.74252780043E+03  0.00000000000E+00 0. -1.
          1   -1    0    0  501    0 -0.00000000000E+00 -0.00000000000E+00 -0.30693231687E+03  0.30693231687E+03  0.00000000000E+00 0. -1.
         25    2    1    2    0    0  0.80938430540E+02 -0.28661372678E+02 -0.20609853372E+03  0.25587012411E+03  0.12498164261E+03 0.  0.
          2    1    1    2  501    0 -0.10476427367E+03  0.46450599053E+02 -0.32201801247E+02  0.11903851139E+03  0.00000000000E+00 0. -1.
          1    1    1    2  502    0  0.23825843130E+02 -0.17789226375E+02  0.67389581852E+03  0.67455148180E+03  0.00000000000E+00 0. -1.
         22    1    3    3    0    0  0.71354290944E+02  0.17716557477E+02 -0.41140655237E+02  0.84248826450E+02  0.00000000000E+00 0.  1.
         22    1    3    3    0    0  0.95841395958E+01 -0.46377930155E+02 -0.16495787848E+03  0.17162129766E+03  0.00000000000E+00 0.  1.
</event>
<event>
 7    1  0.5064652E-006  0.1130728E+03  0.7818608E-02  0.1267981E+00
          2   -1    0    0  502    0  0.00000000000E+00  0.00000000000E+00  0.53256906618E+03  0.53256906618E+03  0.00000000000E+00 0. -1.
          1   -1    0    0  501    0 -0.00000000000E+00 -0.00000000000E+00 -0.88300717479E+02  0.88300717479E+02  0.00000000000E+00 0. -1.
         25    2    1    2    0    0  0.93045395695E+02  0.84542152996E+02  0.26392072958E+03  0.31793440021E+03  0.12499323998E+03 0.  0.
          2    1    1    2  501    0  0.27983540627E+02 -0.95530165496E+02  0.19659381927E+02  0.10146714918E+03  0.00000000000E+00 0. -1.
          1    1    1    2  502    0 -0.12102893632E+03  0.10988012500E+02  0.16068823719E+03  0.20146823426E+03  0.00000000000E+00 0. -1.
         22    1    3    3    0    0  0.18361368680E+02  0.81557552027E+02  0.20924641552E+03  0.22532828620E+03  0.00000000000E+00 0. -1.
         22    1    3    3    0    0  0.74684027015E+02  0.29846009696E+01  0.54674314054E+02  0.92606114006E+02  0.00000000000E+00 0. -1.
</event>
<event>
 7    1  0.5064652E-006  0.1591660E+03  0.7818608E-02  0.1208990E+00
          2   -1    0    0  502    0  0.00000000000E+00  0.00000000000E+00  0.60657401189E+03  0.60657401189E+03  0.00000000000E+00 0. -1.
          1   -1    0    0  501    0 -0.00000000000E+00 -0.00000000000E+00 -0.63023794203E+03  0.63023794203E+03  0.00000000000E+00 0. -1.
         25    2    1    2    0    0 -0.12905491658E+03 -0.71858460156E+01 -0.29298476781E+03  0.34376154876E+03  0.12500048143E+03 0.  0.
          2    1    1    2  501    0  0.19715867265E+03 -0.10233608993E+03 -0.26361718810E+03  0.34472922615E+03  0.00000000000E+00 0. -1.
          1    1    1    2  502    0 -0.68103756066E+02  0.10952193594E+03  0.53293802577E+03  0.54832117902E+03  0.00000000000E+00 0. -1.
         22    1    3    3    0    0  0.36289850360E+01 -0.41867429566E+02 -0.81619309811E+02  0.91802848131E+02  0.00000000000E+00 0.  1.
         22    1    3    3    0    0 -0.13268390162E+03  0.34681583551E+02 -0.21136545800E+03  0.25195870062E+03  0.00000000000E+00 0.  1.
</event>
<event>
 7    1  0.5064652E-006  0.1406543E+03  0.7818608E-02  0.1304767E+00
          2   -1    0    0  502    0  0.00000000000E+00  0.00000000000E+00  0.17306373131E+04  0.17306373131E+04  0.00000000000E+00 0. -1.
          1   -1    0    0  501    0 -0.00000000000E+00 -0.00000000000E+00 -0.65756767127E+03  0.65756767127E+03  0.00000000000E+00 0. -1.
         25    2    1    2    0    0  0.34225274834E+02 -0.19026634754E+03  0.25728529210E+03  0.34524399681E+03  0.12500017344E+03 0.  0.
          2    1    1    2  501    0 -0.10270953108E+02  0.55646177276E+02 -0.60900366675E+03  0.61162689251E+03  0.00000000000E+00 0. -1.
          1    1    1    2  502    0 -0.23954321726E+02  0.13462017026E+03  0.14247880164E+04  0.14313340950E+04  0.00000000000E+00 0. -1.
         22    1    3    3    0    0  0.38089238085E+02 -0.61435160732E+02  0.19653972966E+02  0.74908929277E+02  0.00000000000E+00 0. -1.
         22    1    3    3    0    0 -0.38639632513E+01 -0.12883118680E+03  0.23763131913E+03  0.27033506753E+03  0.00000000000E+00 0. -1.
</event>
<event>
 7    1  0.5064652E-006  0.7739540E+02  0.7818608E-02  0.1502033E+00
          2   -1    0    0  502    0  0.00000000000E+00  0.00000000000E+00  0.45090742015E+03  0.45090742015E+03  0.00000000000E+00 0. -1.
          1   -1    0    0  501    0 -0.00000000000E+00 -0.00000000000E+00 -0.52617740540E+03  0.52617740540E+03  0.00000000000E+00 0. -1.
         25    2    1    2    0    0 -0.54070492081E+02 -0.64708566982E+02  0.43916704900E+02  0.15705161742E+03  0.12500286720E+03 0.  0.
          2    1    1    2  501    0  0.33117110376E+02  0.69800440654E+02 -0.46609536915E+03  0.47245501125E+03  0.00000000000E+00 0. -1.
          1    1    1    2  502    0  0.20953381705E+02 -0.50918736722E+01  0.34690867900E+03  0.34757819688E+03  0.00000000000E+00 0. -1.
         22    1    3    3    0    0  0.29267397455E+02 -0.34993905217E+02 -0.18020447590E+02  0.49049877548E+02  0.00000000000E+00 0. -1.
         22    1    3    3    0    0 -0.83337889536E+02 -0.29714661765E+02  0.61937152490E+02  0.10800173987E+03  0.00000000000E+00 0. -1.
</event>
<event>
 7    1  0.5064652E-006  0.1268327E+03  0.7818608E-02  0.1321222E+00
          2   -1    0    0  502    0  0.00000000000E+00  0.00000000000E+00  0.30602200152E+03  0.30602200152E+03  0.00000000000E+00 0. -1.
          1   -1    0    0  501    0 -0.00000000000E+00 -0.00000000000E+00 -0.26276603764E+04  0.26276603764E+04  0.00000000000E+00 0. -1.
         25    2    1    2    0    0  0.78673161777E+02  0.67277767897E+01  0.14224917736E+03  0.20517462470E+03  0.12500827491E+03 0.  0.
          2    1    1    2  501    0 -0.12048977602E+03 -0.41030769235E+02 -0.25890406856E+04  0.25921676223E+04  0.00000000000E+00 0. -1.
          1    1    1    2  502    0  0.41816614243E+02  0.34302992445E+02  0.12515313337E+03  0.13634013096E+03  0.00000000000E+00 0. -1.
         22    1    3    3    0    0  0.33037756581E+02 -0.12533256510E+02  0.15082086410E+03  0.15490483830E+03  0.00000000000E+00 0.  1.
         22    1    3    3    0    0  0.45635405196E+02  0.19261033300E+02 -0.85716867469E+01  0.50269786402E+02  0.00000000000E+00 0.  1.
</event>
<event>
 7    1  0.5064652E-006  0.1368291E+03  0.7818608E-02  0.1224981E+00
          2   -1    0    0  502    0  0.00000000000E+00  0.00000000000E+00  0.95031061409E+03  0.95031061409E+03  0.00000000000E+00 0. -1.
          1   -1    0    0  501    0 -0.00000000000E+00 -0.00000000000E+00 -0.13417263162E+04  0.13417263162E+04  0.00000000000E+00 0. -1.
         25    2    1    2    0    0  0.17099778732E+03 -0.84567145860E+02 -0.26456666821E+03  0.34930289028E+03  0.12500056720E+03 0.  0.
          2    1    1    2  501    0 -0.13084992168E+03 -0.35634237691E+02 -0.10258850966E+04  0.10348099982E+04  0.00000000000E+00 0. -1.
          1    1    1    2  502    0 -0.40147865640E+02  0.12020138355E+03  0.89903606270E+03  0.90792404185E+03  0.00000000000E+00 0. -1.
         22    1    3    3    0    0  0.10442504162E+03 -0.59567708353E+02 -0.24900602663E+03  0.27650841307E+03  0.00000000000E+00 0. -1.
         22    1    3    3    0    0  0.66572745702E+02 -0.24999437507E+02 -0.15560641575E+02  0.72794477210E+02  0.00000000000E+00 0. -1.
</event>
<event>
 7    1  0.5064652E-006  0.4697274E+02  0.7818608E-02  0.1463104E+00
          2   -1    0    0  502    0  0.00000000000E+00  0.00000000000E+00  0.28897868032E+03  0.28897868032E+03  0.00000000000E+00 0. -1.
          1   -1    0    0  501    0 -0.00000000000E+00 -0.00000000000E+00 -0.30500199618E+03  0.30500199618E+03  0.00000000000E+00 0. -1.
         25    2    1    2    0    0 -0.29583223976E+02  0.24892441422E+02 -0.32204879991E+02  0.13474546670E+03  0.12499754285E+03 0.  0.
          2    1    1    2  501    0 -0.12003028265E+02 -0.46733266931E+02 -0.21652464542E+03  0.22183550888E+03  0.00000000000E+00 0. -1.
          1    1    1    2  502    0  0.41586252241E+02  0.21840825509E+02  0.23270620955E+03  0.23739970092E+03  0.00000000000E+00 0. -1.
         22    1    3    3    0    0 -0.50251051562E+02  0.65111634248E+02 -0.59627441981E+01  0.82463612678E+02  0.00000000000E+00 0.  1.
         22    1    3    3    0    0  0.20667827586E+02 -0.40219192826E+02 -0.26242135793E+02  0.52281854019E+02  0.00000000000E+00 0.  1.
</event>
<event>
 7    1  0.5064652E-006  0.9855488E+02  0.7818608E-02  0.1344135E+00
          2   -1    0    0  502    0  0.00000000000E+00  0.00000000000E+00  0.77622001971E+03  0.77622001971E+03  0.00000000000E+00 0. -1.
          1   -1    0    0  501    0 -0.00000000000E+00 -0.00000000000E+00 -0.69495765697E+03  0.69495765697E+03  0.00000000000E+00 0. -1.
         25    2    1    2    0    0 -0.77498434287E+02  0.41970098669E+02  0.12216801019E+03  0.19574873111E+03  0.12500018607E+03 0.  0.
          2    1    1    2  501    0 -0.23315462750E+02 -0.51953258480E+02 -0.65276264459E+03  0.65524180425E+03  0.00000000000E+00 0. -1.
          1    1    1    2  502    0  0.10081389704E+03  0.99831598113E+01  0.61185699713E+03  0.62018714132E+03  0.00000000000E+00 0. -1.
         22    1    3    3    0    0 -0.69078368160E+02  0.74012054573E+02  0.43123225230E+02  0.11004189077E+03  0.00000000000E+00 0.  1.
         22    1    3    3    0    0 -0.84200661270E+01 -0.32041955904E+02  0.79044784962E+02  0.85706840342E+02  0.00000000000E+00 0.  1.
</event>
<event>
 7    1  0.5064652E-006  0.7950186E+02  0.7818608E-02  0.1339624E+00
          2   -1    0    0  502    0  0.00000000000E+00  0.00000000000E+00  0.20454381100E+03  0.20454381100E+03  0.00000000000E+00 0. -1.
          1   -1    0    0  501    0 -0.00000000000E+00 -0.00000000000E+00 -0.56070026740E+03  0.56070026740E+03  0.00000000000E+00 0. -1.
         25    2    1    2    0    0 -0.60255280714E+02 -0.26279456170E+02 -0.15282743963E+03  0.20809110100E+03  0.12499748534E+03 0.  0.
          2    1    1    2  501    0 -0.69179559184E+01  0.73070267805E+02 -0.36693775949E+03  0.37420641562E+03  0.00000000000E+00 0. -1.
          1    1    1    2  502    0  0.67173236633E+02 -0.46790811635E+02  0.16360874272E+03  0.18294656178E+03  0.00000000000E+00 0. -1.
         22    1    3    3    0    0 -0.16952533892E+02  0.13367614978E+02  0.17587524384E+02  0.27846050878E+02  0.00000000000E+00 0.  1.
         22    1    3    3    0    0 -0.43302746822E+02 -0.39647071148E+02 -0.17041496401E+03  0.18024505012E+03  0.00000000000E+00 0.  1.
</event>
<event>
 7    1  0.5064652E-006  0.8499143E+02  0.7818608E-02  0.1322935E+00
          2   -1    0    0  502    0  0.00000000000E+00  0.00000000000E+00  0.20973108344E+04  0.20973108344E+04  0.00000000000E+00 0. -1.
          1   -1    0    0  501    0 -0.00000000000E+00 -0.00000000000E+00 -0.74552007363E+03  0.74552007363E+03  0.00000000000E+00 0. -1.
         25    2    1    2    0    0  0.13314860858E+03  0.80566894793E+02  0.20231463113E+02  0.20063236182E+03  0.12499782401E+03 0.  0.
          2    1    1    2  501    0 -0.77643519655E+02 -0.17037520509E+02 -0.65200918135E+03  0.65683694005E+03  0.00000000000E+00 0. -1.
          1    1    1    2  502    0 -0.55505088920E+02 -0.63529374284E+02  0.19835684790E+04  0.19853616061E+04  0.00000000000E+00 0. -1.
         22    1    3    3    0    0  0.56999430435E+02  0.94869548117E+02  0.44726584287E+02  0.11937182905E+03  0.00000000000E+00 0.  1.
         22    1    3    3    0    0  0.76149178140E+02 -0.14302653324E+02 -0.24495121174E+02  0.81260532763E+02  0.00000000000E+00 0.  1.
</event>
<event>
 7    1  0.5064652E-006  0.1840323E+03  0.7818608E-02  0.1385099E+00
          2   -1    0    0  502    0  0.00000000000E+00  0.00000000000E+00  0.37666355759E+03  0.37666355759E+03  0.00000000000E+00 0. -1.
          1   -1    0    0  501    0 -0.00000000000E+00 -0.00000000000E+00 -0.20038299004E+04  0.20038299004E+04  0.00000000000E+00 0. -1.
         25    2    1    2    0    0  0.16081604782E+03  0.51116002330E+02 -0.14644197517E+03  0.25601742858E+03  0.12500009887E+03 0.  0.
          2    1    1    2  501    0 -0.18054581252E+03 -0.42167308650E+02 -0.17974618000E+04  0.18069985597E+04  0.00000000000E+00 0. -1.
          1    1    1    2  502    0  0.19729764696E+02 -0.89486936797E+01  0.31673743234E+03  0.31747746972E+03  0.00000000000E+00 0. -1.
         22    1    3    3    0    0  0.16408637627E+03  0.43376814925E+02 -0.77525503310E+02  0.18659070345E+03  0.00000000000E+00 0.  1.
         22    1    3    3    0    0 -0.32703284484E+01  0.77391874044E+01 -0.68916471857E+02  0.69426725135E+02  0.00000000000E+00 0.  1.
</event>
<event>
 7    1  0.5064652E-006  0.8461249E+02  0.7818608E-02  0.1367004E+00
          2   -1    0    0  502    0  0.00000000000E+00  0.00000000000E+00  0.31593319911E+03  0.31593319911E+03  0.00000000000E+00 0. -1.
          1   -1    0    0  501    0 -0.00000000000E+00 -0.00000000000E+00 -0.39573020806E+03  0.39573020806E+03  0.00000000000E+00 0. -1.
         25    2    1    2    0    0  0.37718622719E+02 -0.37684450837E+01 -0.71810852306E+02  0.14906055324E+03  0.12500141737E+03 0.  0.
          2    1    1    2  501    0  0.46327578487E+02  0.29009319902E+02 -0.27560002541E+03  0.28096825297E+03  0.00000000000E+00 0. -1.
          1    1    1    2  502    0 -0.84046201206E+02 -0.25240874818E+02  0.26761386878E+03  0.28163460096E+03  0.00000000000E+00 0. -1.
         22    1    3    3    0    0  0.32270074378E+02 -0.53785021839E+02 -0.16756333139E+01  0.62745470128E+02  0.00000000000E+00 0. -1.
         22    1    3    3    0    0  0.54485483416E+01  0.50016576756E+02 -0.70135218992E+02  0.86315083111E+02  0.00000000000E+00 0. -1.
</event>
<event>
 7    1  0.5064652E-006  0.1738010E+03  0.7818608E-02  0.1340293E+00
          2   -1    0    0  502    0  0.00000000000E+00  0.00000000000E+00  0.18106294662E+04  0.18106294662E+04  0.00000000000E+00 0. -1.
          1   -1    0    0  501    0 -0.00000000000E+00 -0.00000000000E+00 -0.61190155981E+03  0.61190155981E+03  0.00000000000E+00 0. -1.
         25    2    1    2    0    0  0.14301853573E+03 -0.14867699022E+03  0.10096674067E+04  0.10380819803E+04  0.12500710616E+03 0.  0.
          2    1    1    2  501    0 -0.12390191848E+03  0.12131281754E+03 -0.58475001181E+03  0.60991889741E+03  0.00000000000E+00 0. -1.
          1    1    1    2  502    0 -0.19116617251E+02  0.27364172685E+02  0.77381051147E+03  0.77453014833E+03  0.00000000000E+00 0. -1.
         22    1    3    3    0    0  0.10949420255E+03 -0.96565371695E+02  0.40991078597E+03  0.43513297261E+03  0.00000000000E+00 0. -1.
         22    1    3    3    0    0  0.33524333177E+02 -0.52111618530E+02  0.59975662073E+03  0.60294900764E+03  0.00000000000E+00 0. -1.
</event>
<event>
 7    1  0.5064652E-006  0.6688495E+02  0.7818608E-02  0.1462596E+00
          2   -1    0    0  502    0  0.00000000000E+00  0.00000000000E+00  0.86202089961E+02  0.86202089961E+02  0.00000000000E+00 0. -1.
          1   -1    0    0  501    0 -0.00000000000E+00 -0.00000000000E+00 -0.47179267560E+03  0.47179267560E+03  0.00000000000E+00 0. -1.
         25    2    1    2    0    0 -0.48318198451E+02  0.62078640641E+02 -0.13756221744E+03  0.20183474450E+03  0.12500197797E+03 0.  0.
          2    1    1    2  501    0  0.15461996775E+02 -0.64414116518E+02 -0.29301151172E+03  0.30040638767E+03  0.00000000000E+00 0. -1.
          1    1    1    2  502    0  0.32856201676E+02  0.23354758769E+01  0.44983143515E+02  0.55753633394E+02  0.00000000000E+00 0. -1.
         22    1    3    3    0    0  0.27608563145E+01  0.62552802565E+02 -0.13713349912E+03  0.15075168993E+03  0.00000000000E+00 0. -1.
         22    1    3    3    0    0 -0.51079054765E+02 -0.47416192390E+00 -0.42871832109E+00  0.51083054574E+02  0.00000000000E+00 0. -1.
</event>
<event>
 7    1  0.5064652E-006  0.3987750E+02  0.7818608E-02  0.1547550E+00
          2   -1    0    0  502    0  0.00000000000E+00  0.00000000000E+00  0.13920070559E+03  0.13920070559E+03  0.00000000000E+00 0. -1.
          1   -1    0    0  501    0 -0.00000000000E+00 -0.00000000000E+00 -0.93683131244E+03  0.93683131244E+03  0.00000000000E+00 0. -1.
         25    2    1    2    0    0  0.38713028185E+02  0.30971413882E+02  0.57272123371E+02  0.14615751849E+03  0.12499598820E+03 0.  0.
          2    1    1    2  501    0 -0.88178027313E+01 -0.38895170935E+02 -0.88548332392E+03  0.88638101565E+03  0.00000000000E+00 0. -1.
          1    1    1    2  502    0 -0.29895225453E+02  0.79237570528E+01  0.30580593695E+02  0.43493483897E+02  0.00000000000E+00 0. -1.
         22    1    3    3    0    0 -0.20386631528E+02  0.63482740463E+02  0.23268031936E+02  0.70619221122E+02  0.00000000000E+00 0. -1.
         22    1    3    3    0    0  0.59099659713E+02 -0.32511326581E+02  0.34004091435E+02  0.75538297364E+02  0.00000000000E+00 0. -1.
</event>
<event>
 7    1  0.5064652E-006  0.1237201E+03  0.7818608E-02  0.1346367E+00
          2   -1    0    0  502    0  0.00000000000E+00  0.00000000000E+00  0.21968815753E+03  0.21968815753E+03  0.00000000000E+00 0. -1.
          1   -1    0    0  501    0 -0.00000000000E+00 -0.00000000000E+00 -0.10220287625E+04  0.10220287625E+04  0.00000000000E+00 0. -1.
         25    2    1    2    0    0  0.17884301847E+02 -0.14463584522E+03  0.31175568644E+02  0.19452475555E+03  0.12501435303E+03 0.  0.
          2    1    1    2  501    0  0.20117450462E+02  0.12148077202E+03 -0.93148588409E+03  0.93958940077E+03  0.00000000000E+00 0. -1.
          1    1    1    2  502    0 -0.38001752309E+02  0.23155073204E+02  0.97969710464E+02  0.10760276373E+03  0.00000000000E+00 0. -1.
         22    1    3    3    0    0 -0.21863274776E+02  0.95707972297E+01 -0.15645583724E+02  0.28537470694E+02  0.00000000000E+00 0.  1.
         22    1    3    3    0    0  0.39747576623E+02 -0.15420664245E+03  0.46821152368E+02  0.16598728485E+03  0.00000000000E+00 0.  1.
</event>
<event>
 7    1  0.5064652E-006  0.7537279E+02  0.7818608E-02  0.1433772E+00
          2   -1    0    0  502    0  0.00000000000E+00  0.00000000000E+00  0.10695515782E+04  0.10695515782E+04  0.00000000000E+00 0. -1.
          1   -1    0    0  501    0 -0.00000000000E+00 -0.00000000000E+00 -0.16966169607E+03  0.16966169607E+03  0.00000000000E+00 0. -1.
         25    2    1    2    0    0  0.41351629615E+02  0.84836743093E+02  0.20348043810E+02  0.15794527554E+03  0.12500174770E+03 0.  0.
          2    1    1    2  501    0 -0.34748103761E+02 -0.10025969458E+02 -0.96131038784E+02  0.10270894506E+03  0.00000000000E+00 0. -1.
          1    1    1    2  502    0 -0.66035258537E+01 -0.74810773635E+02  0.97567287707E+03  0.97855905363E+03  0.00000000000E+00 0. -1.
         22    1    3    3    0    0  0.24819412188E+02 -0.75544723475E+00  0.57920602037E+02  0.63018807210E+02  0.00000000000E+00 0. -1.
         22    1    3    3    0    0  0.16532217427E+02  0.85592190328E+02 -0.37572558227E+02  0.94926468332E+02  0.00000000000E+00 0. -1.
</event>
<event>
 7    1  0.5064652E-006  0.7702430E+02  0.7818608E-02  0.1390791E+00
          2   -1    0    0  502    0  0.00000000000E+00  0.00000000000E+00  0.76114282705E+03  0.76114282705E+03  0.00000000000E+00 0. -1.
          1   -1    0    0  501    0 -0.00000000000E+00 -0.00000000000E+00 -0.27419049173E+02  0.27419049173E+02  0.00000000000E+00 0. -1.
         25    2    1    2    0    0 -0.70643045320E+02  0.38594114432E+02  0.42592061969E+03  0.45112369918E+03  0.12499708862E+03 0.  0.
          2    1    1    2  501    0  0.79010039112E+02  0.10134069654E+02  0.12630082644E+03  0.14932241763E+03  0.00000000000E+00 0. -1.
          1    1    1    2  502    0 -0.83669937920E+01 -0.48728184087E+02  0.18150233175E+03  0.18811575941E+03  0.00000000000E+00 0. -1.
         22    1    3    3    0    0 -0.31337757695E+02 -0.40039482419E+02  0.84957273424E+02  0.99009865758E+02  0.00000000000E+00 0. -1.
         22    1    3    3    0    0 -0.39305287625E+02  0.78633596852E+02  0.34096334627E+03  0.35211383342E+03  0.00000000000E+00 0. -1.
</event>
<event>
 7    1  0.5064652E-006  0.1164411E+03  0.7818608E-02  0.1344537E+00
          2   -1    0    0  502    0  0.00000000000E+00  0.00000000000E+00  0.35560862973E+03  0.35560862973E+03  0.00000000000E+00 0. -1.
          1   -1    0    0  501    0 -0.00000000000E+00 -0.00000000000E+00 -0.46543645747E+03  0.46543645747E+03  0.00000000000E+00 0. -1.
         25    2    1    2    0    0 -0.99955732900E+02  0.61039220607E+02  0.35967937298E+02  0.17503093122E+03  0.12500079751E+03 0.  0.
          2    1    1    2  501    0  0.11606965137E+03 -0.15791344645E+02 -0.38479839195E+03  0.40223293374E+03  0.00000000000E+00 0. -1.
          1    1    1    2  502    0 -0.16113918466E+02 -0.45247875962E+02  0.23900262691E+03  0.24378122224E+03  0.00000000000E+00 0. -1.
         22    1    3    3    0    0 -0.11729774642E+03  0.72255962833E+02  0.53647890687E+02  0.14784377449E+03  0.00000000000E+00 0. -1.
         22    1    3    3    0    0  0.17342013520E+02 -0.11216742227E+02 -0.17679953390E+02  0.27187156728E+02  0.00000000000E+00 0. -1.
</event>
<event>
 7    1  0.5064652E-006  0.1575671E+03  0.7818608E-02  0.1375571E+00
          2   -1    0    0  502    0  0.00000000000E+00  0.00000000000E+00  0.24901925631E+04  0.24901925631E+04  0.00000000000E+00 0. -1.
          1   -1    0    0  501    0 -0.00000000000E+00 -0.00000000000E+00 -0.70176043613E+03  0.70176043613E+03  0.00000000000E+00 0. -1.
         25    2    1    2    0    0  0.17272479291E+03 -0.61195782503E+02  0.19716777487E+04  0.19841162332E+04  0.12500121630E+03 0.  0.
          2    1    1    2  501    0 -0.14538850372E+03  0.60444132308E+02 -0.68625422636E+03  0.70408534521E+03  0.00000000000E+00 0. -1.
          1    1    1    2  502    0 -0.27336289194E+02  0.75165019548E+00  0.50300860462E+03  0.50375142085E+03  0.00000000000E+00 0. -1.
         22    1    3    3    0    0  0.16069743136E+03 -0.83930237745E+02  0.18851311144E+04  0.18938287324E+04  0.00000000000E+00 0. -1.
         22    1    3    3    0    0  0.12027361554E+02  0.22734455242E+02  0.86546634306E+02  0.90287500745E+02  0.00000000000E+00 0. -1.
</event>
<event>
 7    1  0.5064652E-006  0.1849400E+03  0.7818608E-02  0.1215345E+00
          2   -1    0    0  502    0  0.00000000000E+00  0.00000000000E+00  0.77199139386E+03  0.77199139386E+03  0.00000000000E+00 0. -1.
          1   -1    0    0  501    0 -0.00000000000E+00 -0.00000000000E+00 -0.87501719599E+03  0.87501719599E+03  0.00000000000E+00 0. -1.
         25    2    1    2    0    0  0.19802485396E+03  0.18489157547E+03 -0.80665729736E+02  0.30908491828E+03  0.12501115666E+03 0.  0.
          2    1    1    2  501    0 -0.15044246764E+03 -0.92707347224E+02 -0.66442947396E+03  0.68752753702E+03  0.00000000000E+00 0. -1.
          1    1    1    2  502    0 -0.47582386321E+02 -0.92184228249E+02  0.64206940156E+03  0.65039613456E+03  0.00000000000E+00 0. -1.
         22    1    3    3    0    0  0.20042900961E+03  0.14743587383E+03 -0.37075429324E+02  0.25156254142E+03  0.00000000000E+00 0.  1.
         22    1    3    3    0    0 -0.24041556541E+01  0.37455701642E+02 -0.43590300412E+02  0.57522376862E+02  0.00000000000E+00 0.  1.
</event>
<event>
 7    1  0.5064652E-006  0.9941755E+02  0.7818608E-02  0.1284531E+00
          2   -1    0    0  502    0  0.00000000000E+00  0.00000000000E+00  0.10909048977E+04  0.10909048977E+04  0.00000000000E+00 0. -1.
          1   -1    0    0  501    0 -0.00000000000E+00 -0.00000000000E+00 -0.34927636478E+03  0.34927636478E+03  0.00000000000E+00 0. -1.
         25    2    1    2    0    0 -0.24856931117E+02 -0.10146578411E+03  0.55775469841E+02  0.17218998312E+03  0.12500125952E+03 0.  0.
          2    1    1    2  501    0  0.95902144848E+02  0.35971143756E+02 -0.27957113262E+03  0.29774345125E+03  0.00000000000E+00 0. -1.
          1    1    1    2  502    0 -0.71045213731E+02  0.65494640351E+02  0.96542419570E+03  0.97024782811E+03  0.00000000000E+00 0. -1.
         22    1    3    3    0    0 -0.15877217406E+02 -0.10891425386E+03 -0.51224439622E+01  0.11018457315E+03  0.00000000000E+00 0. -1.
         22    1    3    3    0    0 -0.89797137112E+01  0.74484697566E+01  0.60897913803E+02  0.62005409970E+02  0.00000000000E+00 0. -1.
</event>
<event>
 7    1  0.5064652E-006  0.1038342E+03  0.7818608E-02  0.1381346E+00
          2   -1    0    0  502    0  0.00000000000E+00  0.00000000000E+00  0.30975403829E+03  0.30975403829E+03  0.00000000000E+00 0. -1.
          1   -1    0    0  501    0 -0.00000000000E+00 -0.00000000000E+00 -0.85049560413E+03  0.85049560413E+03  0.00000000000E+00 0. -1.
         25    2    1    2    0    0 -0.14867033955E+02 -0.84741151595E+02  0.23782381262E+02  0.15359760580E+03  0.12499812549E+03 0.  0.
          2    1    1    2  501    0  0.32830889134E+02 -0.22115626589E+02 -0.77177229325E+03  0.77278680168E+03  0.00000000000E+00 0. -1.
          1    1    1    2  502    0 -0.17963855179E+02  0.10685677818E+03  0.20724834615E+03  0.23386523495E+03  0.00000000000E+00 0. -1.
         22    1    3    3    0    0 -0.14058466578E+02  0.23373397680E+02  0.35587141867E+02  0.44837493996E+02  0.00000000000E+00 0.  1.
         22    1    3    3    0    0 -0.80856737648E+00 -0.10811454928E+03 -0.11804760605E+02  0.10876011180E+03  0.00000000000E+00 0.  1.
</event>
<event>
 7    1  0.5064652E-006  0.9461499E+02  0.7818608E-02  0.1394358E+00
          2   -1    0    0  502    0  0.00000000000E+00  0.00000000000E+00  0.11099968350E+04  0.11099968350E+04  0.00000000000E+00 0. -1.
          1   -1    0    0  501    0 -0.00000000000E+00 -0.00000000000E+00 -0.44841909543E+02  0.44841909543E+02  0.00000000000E+00 0. -1.
         25    2    1    2    0    0 -0.39366672283E+02  0.84040921810E+02  0.55517027712E+03  0.57658811372E+03  0.12500881915E+03 0.  0.
          2    1    1    2  501    0 -0.33940603042E+02 -0.19444984874E+02 -0.16734761725E+02  0.42545554663E+02  0.00000000000E+00 0. -1.
          1    1    1    2  502    0  0.73307275325E+02 -0.64595936936E+02  0.52671941005E+03  0.53570507615E+03  0.00000000000E+00 0. -1.
         22    1    3    3    0    0  0.30968919525E+02  0.67680776690E+02  0.37814859496E+03  0.38540384194E+03  0.00000000000E+00 0. -1.
         22    1    3    3    0    0 -0.70335591808E+02  0.16360145119E+02  0.17702168215E+03  0.19118427178E+03  0.00000000000E+00 0. -1.
</event>
<event>
 7    1  0.5064652E-006  0.8547143E+02  0.7818608E-02  0.1390117E+00
          2   -1    0    0  502    0  0.00000000000E+00  0.00000000000E+00  0.20978049270E+04  0.20978049270E+04  0.00000000000E+00 0. -1.
          1   -1    0    0  501    0 -0.00000000000E+00 -0.00000000000E+00 -0.68484187662E+02  0.68484187662E+02  0.00000000000E+00 0. -1.
         25    2    1    2    0    0 -0.11182453952E+02 -0.42431807033E+02  0.25325004785E+03  0.28581558312E+03  0.12501781990E+03 0.  0.
          2    1    1    2  501    0 -0.24292750896E+01 -0.44730871115E+02 -0.41319748255E+02  0.60943201459E+02  0.00000000000E+00 0. -1.
          1    1    1    2  502    0  0.13611729042E+02  0.87162678148E+02  0.18173904398E+04  0.18195303301E+04  0.00000000000E+00 0. -1.
         22    1    3    3    0    0 -0.48283110588E+02 -0.41778374455E+02  0.23674538471E+03  0.24520413643E+03  0.00000000000E+00 0. -1.
         22    1    3    3    0    0  0.37100656636E+02 -0.65343257801E+00  0.16504663142E+02  0.40611446692E+02  0.00000000000E+00 0. -1.
</event>
<event>
 7    1  0.5064652E-006  0.6651148E+02  0.7818608E-02  0.1446539E+00
          2   -1    0    0  502    0  0.00000000000E+00  0.00000000000E+00  0.27901102688E+03  0.27901102688E+03  0.00000000000E+00 0. -1.
          1   -1    0    0  501    0 -0.00000000000E+00 -0.00000000000E+00 -0.37489939110E+03  0.37489939110E+03  0.00000000000E+00 0. -1.
         25    2    1    2    0    0  0.22880178308E+02  0.25183451623E+02 -0.99219293260E+02  0.16318014137E+03  0.12500232633E+03 0.  0.
          2    1    1    2  501    0  0.38380231360E+01  0.37057107838E+02 -0.23757767035E+03  0.24048099532E+03  0.00000000000E+00 0. -1.
          1    1    1    2  502    0 -0.26718201444E+02 -0.62240559461E+02  0.24090859939E+03  0.25024928130E+03  0.00000000000E+00 0. -1.
         22    1    3    3    0    0  0.85245881912E+01  0.72988723552E+02 -0.33779083151E+02  0.80876750850E+02  0.00000000000E+00 0.  1.
         22    1    3    3    0    0  0.14355590117E+02 -0.47805271929E+02 -0.65440210109E+02  0.82303390519E+02  0.00000000000E+00 0.  1.
</event>
<event>
 7    1  0.5064652E-006  0.1550226E+03  0.7818608E-02  0.1299604E+00
          2   -1    0    0  502    0  0.00000000000E+00  0.00000000000E+00  0.61902623758E+03  0.61902623758E+03  0.00000000000E+00 0. -1.
          1   -1    0    0  501    0 -0.00000000000E+00 -0.00000000000E+00 -0.12132405522E+04  0.12132405522E+04  0.00000000000E+00 0. -1.
         25    2    1    2    0    0  0.51111143831E+02 -0.12457663256E+03 -0.12696114866E+03  0.22332473389E+03  0.12499246816E+03 0.  0.
          2    1    1    2  501    0 -0.43325410577E+02 -0.31954978696E+02 -0.10266218192E+04  0.10280323786E+04  0.00000000000E+00 0. -1.
          1    1    1    2  502    0 -0.77857332538E+01  0.15653161125E+03  0.55936865321E+03  0.58090967728E+03  0.00000000000E+00 0. -1.
         22    1    3    3    0    0  0.51681631125E+02 -0.14752817570E+03 -0.91646774495E+02  0.18120343511E+03  0.00000000000E+00 0. -1.
         22    1    3    3    0    0 -0.57048729481E+00  0.22951543143E+02 -0.35314374163E+02  0.42121298780E+02  0.00000000000E+00 0. -1.
</event>
<event>
 7    1  0.5064652E-006  0.6185329E+02  0.7818608E-02  0.1527608E+00
          2   -1    0    0  502    0  0.00000000000E+00  0.00000000000E+00  0.54367600218E+03  0.54367600218E+03  0.00000000000E+00 0. -1.
          1   -1    0    0  501    0 -0.00000000000E+00 -0.00000000000E+00 -0.18027883807E+04  0.18027883807E+04  0.00000000000E+00 0. -1.
         25    2    1    2    0    0 -0.35681111778E+02 -0.16649937886E+02  0.32550008733E+03  0.35089299598E+03  0.12500090244E+03 0.  0.
          2    1    1    2  501    0  0.57567648116E+02  0.22720271226E+02 -0.17889275354E+04  0.17899977575E+04  0.00000000000E+00 0. -1.
          1    1    1    2  502    0 -0.21886536338E+02 -0.60703333397E+01  0.20431506961E+03  0.20557362936E+03  0.00000000000E+00 0. -1.
         22    1    3    3    0    0 -0.35596238575E+02 -0.69563469077E+02  0.19387633174E+03  0.20903157762E+03  0.00000000000E+00 0.  1.
         22    1    3    3    0    0 -0.84873202660E-01  0.52913531191E+02  0.13162375558E+03  0.14186141836E+03  0.00000000000E+00 0.  1.
</event>
<event>
 7    1  0.5064652E-006  0.1019000E+03  0.7818608E-02  0.1401379E+00
          2   -1    0    0  502    0  0.00000000000E+00  0.00000000000E+00  0.38795815572E+03  0.38795815572E+03  0.00000000000E+00 0. -1.
          1   -1    0    0  501    0 -0.00000000000E+00 -0.00000000000E+00 -0.11376390358E+03  0.11376390358E+03  0.00000000000E+00 0. -1.
         25    2    1    2    0    0  0.61869102509E+01  0.75267506988E+02  0.99041857697E+02  0.17646399792E+03  0.12500710988E+03 0.  0.
          2    1    1    2  501    0 -0.53653430590E+01 -0.10960743554E+03 -0.32762399615E+02  0.11452489537E+03  0.00000000000E+00 0. -1.
          1    1    1    2  502    0 -0.82156719189E+00  0.34339928550E+02  0.20791479406E+03  0.21073316601E+03  0.00000000000E+00 0. -1.
         22    1    3    3    0    0 -0.22505902093E+02 -0.23218305111E+02  0.57141152677E+02  0.65656048088E+02  0.00000000000E+00 0.  1.
         22    1    3    3    0    0  0.28692812344E+02  0.98485812099E+02  0.41900705020E+02  0.11080794983E+03  0.00000000000E+00 0.  1.
</event>
<event>
 7    1  0.5064652E-006  0.4712031E+02  0.7818608E-02  0.1479404E+00
          2   -1    0    0  502    0  0.00000000000E+00  0.00000000000E+00  0.20316199623E+03  0.20316199623E+03  0.00000000000E+00 0. -1.
          1   -1    0    0  501    0 -0.00000000000E+00 -0.00000000000E+00 -0.37313619443E+03  0.37313619443E+03  0.00000000000E+00 0. -1.
         25    2    1    2    0    0 -0.11272534462E+02  0.49171896978E+01  0.14132687862E+03  0.18907352808E+03  0.12499705441E+03 0.  0.
          2    1    1    2  501    0  0.41073857645E+02  0.23905156985E+02 -0.33574794144E+03  0.33909467482E+03  0.00000000000E+00 0. -1.
          1    1    1    2  502    0 -0.29801323183E+02 -0.28822346683E+02  0.24446864625E+02  0.48129987760E+02  0.00000000000E+00 0. -1.
         22    1    3    3    0    0 -0.32671031915E+00  0.56307348748E+02  0.25353885252E+02  0.61753087049E+02  0.00000000000E+00 0.  1.
         22    1    3    3    0    0 -0.10945824143E+02 -0.51390159051E+02  0.11597299337E+03  0.12732044103E+03  0.00000000000E+00 0.  1.
</event>
<event>
 7    1  0.5064652E-006  0.1158600E+03  0.7818608E-02  0.1342022E+00
          2   -1    0    0  502    0  0.00000000000E+00  0.00000000000E+00  0.32752703711E+03  0.32752703711E+03  0.00000000000E+00 0. -1.
          1   -1    0    0  501    0 -0.00000000000E+00 -0.00000000000E+00 -0.91575950495E+03  0.91575950495E+03  0.00000000000E+00 0. -1.
         25    2    1    2    0    0  0.54694441881E+02  0.46518353402E+02  0.13229753000E+03  0.19565980748E+03  0.12499873856E+03 0.  0.
          2    1    1    2  501    0 -0.10333208224E+03 -0.54755401471E+02 -0.87638412796E+03  0.88415203045E+03  0.00000000000E+00 0. -1.
          1    1    1    2  502    0  0.48637640357E+02  0.82370480689E+01  0.15585413011E+03  0.16347470414E+03  0.00000000000E+00 0. -1.
         22    1    3    3    0    0 -0.28601884193E+02  0.23956313810E+02 -0.46796778400E+00  0.37312085772E+02  0.00000000000E+00 0. -1.
         22    1    3    3    0    0  0.83296326074E+02  0.22562039592E+02  0.13276549778E+03  0.15834772170E+03  0.00000000000E+00 0. -1.
</event>
<event>
 7    1  0.5064652E-006  0.8025842E+02  0.7818608E-02  0.1485796E+00
          2   -1    0    0  502    0  0.00000000000E+00  0.00000000000E+00  0.71607496921E+03  0.71607496921E+03  0.00000000000E+00 0. -1.
          1   -1    0    0  501    0 -0.00000000000E+00 -0.00000000000E+00 -0.98725380972E+03  0.98725380972E+03  0.00000000000E+00 0. -1.
         25    2    1    2    0    0 -0.10100507838E+03 -0.16169531810E+02  0.68534667116E+02  0.17546007846E+03  0.12500303564E+03 0.  0.
          2    1    1    2  501    0  0.22492070454E+02  0.59670221196E+01 -0.93100721040E+03  0.93129797831E+03  0.00000000000E+00 0. -1.
          1    1    1    2  502    0  0.78513007924E+02  0.10202509691E+02  0.59129370277E+03  0.59657072217E+03  0.00000000000E+00 0. -1.
         22    1    3    3    0    0 -0.45792826511E+02  0.24259666752E+02  0.89903310578E+02  0.10376955066E+03  0.00000000000E+00 0.  1.
         22    1    3    3    0    0 -0.55212251868E+02 -0.40429198562E+02 -0.21368643462E+02  0.71690527799E+02  0.00000000000E+00 0.  1.
</event>
<event>
 7    1  0.5064652E-006  0.1099631E+03  0.7818608E-02  0.1334817E+00
          2   -1    0    0  502    0  0.00000000000E+00  0.00000000000E+00  0.23762691827E+04  0.23762691827E+04  0.00000000000E+00 0. -1.
          1   -1    0    0  501    0 -0.00000000000E+00 -0.00000000000E+00 -0.28602506387E+03  0.28602506387E+03  0.00000000000E+00 0. -1.
         25    2    1    2    0    0  0.41555728880E+02 -0.96100360544E+02  0.86531589679E+02  0.18459400476E+03  0.12500029073E+03 0.  0.
          2    1    1    2  501    0  0.46712631762E+02  0.29655922539E+02 -0.23238176016E+03  0.23887826641E+03  0.00000000000E+00 0. -1.
          1    1    1    2  502    0 -0.88268360642E+02  0.66444438005E+02  0.22360942893E+04  0.22388219754E+04  0.00000000000E+00 0. -1.
         22    1    3    3    0    0  0.59721017520E+02 -0.96476217099E+02  0.19480642181E+02  0.11512495741E+03  0.00000000000E+00 0. -1.
         22    1    3    3    0    0 -0.18165288640E+02  0.37585655459E+00  0.67050947498E+02  0.69469047351E+02  0.00000000000E+00 0. -1.
</event>
<event>
 7    1  0.5064652E-006  0.1197617E+03  0.7818608E-02  0.1444097E+00
          2   -1    0    0  502    0  0.00000000000E+00  0.00000000000E+00  0.11327325033E+04  0.11327325033E+04  0.00000000000E+00 0. -1.
          1   -1    0    0  501    0 -0.00000000000E+00 -0.00000000000E+00 -0.18914422113E+03  0.18914422113E+03  0.00000000000E+00 0. -1.
         25    2    1    2    0    0 -0.49449156183E+02 -0.88135253824E+02 -0.11252979988E+03  0.19621635368E+03  0.12499943830E+03 0.  0.
          2    1    1    2  501    0 -0.73409563343E+00 -0.21055743387E+02 -0.27922564049E+02  0.34979319734E+02  0.00000000000E+00 0. -1.
          1    1    1    2  502    0  0.50183251817E+02  0.10919099721E+03  0.10840406461E+04  0.10906810510E+04  0.00000000000E+00 0. -1.
         22    1    3    3    0    0 -0.91723314152E+02 -0.66167943262E+02 -0.78754084312E+02  0.13781715739E+03  0.00000000000E+00 0.  1.
         22    1    3    3    0    0  0.42274157969E+02 -0.21967310562E+02 -0.33775715571E+02  0.58399196293E+02  0.00000000000E+00 0.  1.
</event>
<event>
 7    1  0.5064652E-006  0.3357039E+02  0.7818608E-02  0.1564269E+00
          2   -1    0    0  502    0  0.00000000000E+00  0.00000000000E+00  0.22159981486E+04  0.22159981486E+04  0.00000000000E+00 0. -1.
          1   -1    0    0  501    0 -0.00000000000E+00 -0.00000000000E+00 -0.84650614539E+02  0.84650614539E+02  0.00000000000E+00 0. -1.
         25    2    1    2    0    0  0.24259297333E+02  0.34629249112E+02  0.81859402422E+03  0.82916129445E+03  0.12499830928E+03 0.  0.
          2    1    1    2  501    0 -0.32965996549E+02 -0.19749201090E+01 -0.75716956496E+02  0.82605779090E+02  0.00000000000E+00 0. -1.
          1    1    1    2  502    0  0.87066992166E+01 -0.32654329003E+02  0.13884704663E+04  0.13888816896E+04  0.00000000000E+00 0. -1.
         22    1    3    3    0    0  0.61409912723E+01 -0.12845786423E+02  0.68004055774E+01  0.15778831347E+02  0.00000000000E+00 0.  1.
         22    1    3    3    0    0  0.18118306061E+02  0.47475035536E+02  0.81179361864E+03  0.81338246310E+03  0.00000000000E+00 0.  1.
</event>
<event>
 7    1  0.5064652E-006  0.5111137E+02  0.7818608E-02  0.1531456E+00
          2   -1    0    0  502    0  0.00000000000E+00  0.00000000000E+00  0.22637291853E+03  0.22637291853E+03  0.00000000000E+00 0. -1.
          1   -1    0    0  501    0 -0.00000000000E+00 -0.00000000000E+00 -0.12549192795E+04  0.12549192795E+04  0.00000000000E+00 0. -1.
         25    2    1    2    0    0  0.55198825221E+02  0.20502015208E+02 -0.78397845694E+02  0.15886260544E+03  0.12499544898E+03 0.  0.
          2    1    1    2  501    0 -0.50746415721E+02  0.59223873560E+01 -0.11347468563E+04  0.11358964307E+04  0.00000000000E+00 0. -1.
          1    1    1    2  502    0 -0.44524094996E+01 -0.26424402564E+02  0.18459834099E+03  0.18653316193E+03  0.00000000000E+00 0. -1.
         22    1    3    3    0    0  0.39212145017E+01 -0.46312219514E+02 -0.53852484709E+02  0.71135699257E+02  0.00000000000E+00 0. -1.
         22    1    3    3    0    0  0.51277610719E+02  0.66814234722E+02 -0.24545360985E+02  0.87726906183E+02  0.00000000000E+00 0. -1.
</event>
<event>
 7    1  0.5064652E-006  0.2564571E+03  0.7818608E-02  0.1190854E+00
          2   -1    0    0  502    0  0.00000000000E+00  0.00000000000E+00  0.13088189169E+04  0.13088189169E+04  0.00000000000E+00 0. -1.
          1   -1    0    0  501    0 -0.00000000000E+00 -0.00000000000E+00 -0.24314131353E+03  0.24314131353E+03  0.00000000000E+00 0. -1.
         25    2    1    2    0    0  0.16710888371E+03  0.15759225677E+03  0.30225243990E+03  0.39967325966E+03  0.12498591384E+03 0.  0.
          2    1    1    2  501    0 -0.11573796689E+03 -0.24042650711E+03 -0.98824203606E+02  0.28454596381E+03  0.00000000000E+00 0. -1.
          1    1    1    2  502    0 -0.51370916811E+02  0.82834250339E+02  0.86224936712E+03  0.86774100699E+03  0.00000000000E+00 0. -1.
         22    1    3    3    0    0  0.34505808269E+01 -0.78491128560E+01  0.71289348539E+02  0.71803107842E+02  0.00000000000E+00 0.  1.
         22    1    3    3    0    0  0.16365830288E+03  0.16544136963E+03  0.23096309136E+03  0.32787015182E+03  0.00000000000E+00 0.  1.
</event>
<event>
 7    1  0.5064652E-006  0.4231912E+02  0.7818608E-02  0.1496910E+00
          2   -1    0    0  502    0  0.00000000000E+00  0.00000000000E+00  0.27593154372E+03  0.27593154372E+03  0.00000000000E+00 0. -1.
          1   -1    0    0  501    0 -0.00000000000E+00 -0.00000000000E+00 -0.19339468419E+04  0.19339468419E+04  0.00000000000E+00 0. -1.
         25    2    1    2    0    0 -0.90254729662E+01 -0.43213951263E+01 -0.41372956870E+02  0.13204920818E+03  0.12500055281E+03 0.  0.
          2    1    1    2  501    0  0.13014557721E+02 -0.38721244541E+02 -0.18449818436E+04  0.18454340185E+04  0.00000000000E+00 0. -1.
          1    1    1    2  502    0 -0.39890847546E+01  0.43042639668E+02  0.22833950224E+03  0.23239515897E+03  0.00000000000E+00 0. -1.
         22    1    3    3    0    0  0.29790407384E+01 -0.46394612308E+02  0.24821975607E+02  0.52701662288E+02  0.00000000000E+00 0. -1.
         22    1    3    3    0    0 -0.12004513705E+02  0.42073217182E+02 -0.66194932476E+02  0.79347545891E+02  0.00000000000E+00 0. -1.
</event>
<event>
 7    1  0.5064652E-006  0.5371452E+02  0.7818608E-02  0.1460147E+00
          2   -1    0    0  502    0  0.00000000000E+00  0.00000000000E+00  0.43111877015E+02  0.43111877015E+02  0.00000000000E+00 0. -1.
          1   -1    0    0  501    0 -0.00000000000E+00 -0.00000000000E+00 -0.22264671108E+04  0.22264671108E+04  0.00000000000E+00 0. -1.
         25    2    1    2    0    0  0.88742773940E+01  0.30251185756E+02 -0.75550929023E+03  0.76642465922E+03  0.12497433176E+03 0.  0.
          2    1    1    2  501    0  0.28205489540E+02 -0.49439225547E+02 -0.14531961711E+04  0.14543104546E+04  0.00000000000E+00 0. -1.
          1    1    1    2  502    0 -0.37079766934E+02  0.19188039791E+02  0.25350227566E+02  0.48843873972E+02  0.00000000000E+00 0. -1.
         22    1    3    3    0    0  0.42332562893E+02  0.43469951097E+02 -0.68086732124E+03  0.68356564547E+03  0.00000000000E+00 0.  1.
         22    1    3    3    0    0 -0.33458285499E+02 -0.13218765342E+02 -0.74641968993E+02  0.82859013757E+02  0.00000000000E+00 0.  1.
</event>
<event>
 7    1  0.5064652E-006  0.4227371E+02  0.7818608E-02  0.1542066E+00
          2   -1    0    0  502    0  0.00000000000E+00  0.00000000000E+00  0.21043230623E+03  0.21043230623E+03  0.00000000000E+00 0. -1.
          1   -1    0    0  501    0 -0.00000000000E+00 -0.00000000000E+00 -0.35153811587E+03  0.35153811587E+03  0.00000000000E+00 0. -1.
         25    2    1    2    0    0 -0.48683550398E+02 -0.34984433544E+02 -0.71366324386E+02  0.15591243699E+03  0.12498614756E+03 0.  0.
          2    1    1    2  501    0  0.18555947110E+02  0.37444239031E+02 -0.23467935325E+03  0.23837112462E+03  0.00000000000E+00 0. -1.
          1    1    1    2  502    0  0.30127603289E+02 -0.24598054875E+01  0.16493986801E+03  0.16768686049E+03  0.00000000000E+00 0. -1.
         22    1    3    3    0    0  0.19838816948E+01 -0.18245645278E+02  0.33529695673E+02  0.38224074222E+02  0.00000000000E+00 0. -1.
         22    1    3    3    0    0 -0.50667432093E+02 -0.16738788266E+02 -0.10489602006E+03  0.11768836277E+03  0.00000000000E+00 0. -1.
</event>
<event>
 7    1  0.5064652E-006  0.5498465E+02  0.7818608E-02  0.1420506E+00
          2   -1    0    0  502    0  0.00000000000E+00  0.00000000000E+00  0.17503988457E+04  0.17503988457E+04  0.00000000000E+00 0. -1.
          1   -1    0    0  501    0 -0.00000000000E+00 -0.00000000000E+00 -0.81394977929E+02  0.81394977929E+02  0.00000000000E+00 0. -1.
         25    2    1    2    0    0 -0.54157426168E+02  0.11627374600E+02  0.82640800304E+03  0.83764293826E+03  0.12500912722E+03 0.  0.
          2    1    1    2  501    0  0.17539358097E+02 -0.52455441670E+02 -0.64745312639E+02  0.85153731286E+02  0.00000000000E+00 0. -1.
          1    1    1    2  502    0  0.36618068071E+02  0.40828067070E+02  0.90734117738E+03  0.90899715409E+03  0.00000000000E+00 0. -1.
         22    1    3    3    0    0  0.35873151829E+02  0.51416875707E+01  0.40815963673E+03  0.40976530970E+03  0.00000000000E+00 0.  1.
         22    1    3    3    0    0 -0.90030577997E+02  0.64856870296E+01  0.41824836630E+03  0.42787762856E+03  0.00000000000E+00 0.  1.
</event>
<event>
 7    1  0.5064652E-006  0.5160237E+02  0.7818608E-02  0.1482978E+00
          2   -1    0    0  502    0  0.00000000000E+00  0.00000000000E+00  0.55243084735E+02  0.55243084735E+02  0.00000000000E+00 0. -1.
          1   -1    0    0  501    0 -0.00000000000E+00 -0.00000000000E+00 -0.11891412283E+04  0.11891412283E+04  0.00000000000E+00 0. -1.
         25    2    1    2    0    0  0.15555104705E+02 -0.19774494169E+01 -0.55131406344E+03  0.56552351040E+03  0.12499509063E+03 0.  0.
          2    1    1    2  501    0  0.36906623187E+02 -0.81976606824E+00 -0.61566904782E+03  0.61677479463E+03  0.00000000000E+00 0. -1.
          1    1    1    2  502    0 -0.52461727891E+02  0.27972154851E+01  0.33084967665E+02  0.62086008031E+02  0.00000000000E+00 0. -1.
         22    1    3    3    0    0  0.59502958497E+02 -0.36356605021E+02 -0.32967882697E+03  0.33697260089E+03  0.00000000000E+00 0. -1.
         22    1    3    3    0    0 -0.43947853793E+02  0.34379155604E+02 -0.22163523648E+03  0.22855090952E+03  0.00000000000E+00 0. -1.
</event>
<event>
 7    1  0.5064652E-006  0.1326209E+03  0.7818608E-02  0.1239503E+00
          2   -1    0    0  502    0  0.00000000000E+00  0.00000000000E+00  0.86487946807E+03  0.86487946807E+03  0.00000000000E+00 0. -1.
          1   -1    0    0  501    0 -0.00000000000E+00 -0.00000000000E+00 -0.49556337823E+03  0.49556337823E+03  0.00000000000E+00 0. -1.
         25    2    1    2    0    0  0.25916750112E+02  0.21926487614E+03  0.24583276024E+03  0.35327929899E+03  0.12499501286E+03 0.  0.
          2    1    1    2  501    0  0.28215644704E+02 -0.10901511417E+03 -0.42779567633E+03  0.44236812544E+03  0.00000000000E+00 0. -1.
          1    1    1    2  502    0 -0.54132394816E+02 -0.11024976197E+03  0.55127900593E+03  0.56479542186E+03  0.00000000000E+00 0. -1.
         22    1    3    3    0    0 -0.46757322572E+02  0.12883128600E+03  0.14564950968E+03  0.19999381775E+03  0.00000000000E+00 0.  1.
         22    1    3    3    0    0  0.72674072684E+02  0.90433590142E+02  0.10018325056E+03  0.15328548124E+03  0.00000000000E+00 0.  1.
</event>
<event>
 7    1  0.5064652E-006  0.3775644E+02  0.7818608E-02  0.1604919E+00
          2   -1    0    0  502    0  0.00000000000E+00  0.00000000000E+00  0.14617139482E+04  0.14617139482E+04  0.00000000000E+00 0. -1.
          1   -1    0    0  501    0 -0.00000000000E+00 -0.00000000000E+00 -0.13077089000E+02  0.13077089000E+02  0.00000000000E+00 0. -1.
         25    2    1    2    0    0 -0.31288499329E+02 -0.31964546244E+01  0.63513937613E+03  0.64808847051E+03  0.12500980356E+03 0.  0.
          2    1    1    2  501    0  0.28910636201E+02  0.25951668003E+02  0.52245668040E+02  0.65107017952E+02  0.00000000000E+00 0. -1.
          1    1    1    2  502    0  0.23778631281E+01 -0.22755213379E+02  0.76125181500E+03  0.76159554871E+03  0.00000000000E+00 0. -1.
         22    1    3    3    0    0 -0.74328670540E+02 -0.39790824680E+01  0.25869472665E+03  0.26919053838E+03  0.00000000000E+00 0. -1.
         22    1    3    3    0    0  0.43040171211E+02  0.78262784367E+00  0.37644464948E+03  0.37889793212E+03  0.00000000000E+00 0. -1.
</event>
<event>
 7    1  0.5064652E-006  0.1306494E+03  0.7818608E-02  0.1228748E+00
          2   -1    0    0  502    0  0.00000000000E+00  0.00000000000E+00  0.97712101232E+03  0.97712101232E+03  0.00000000000E+00 0. -1.
          1   -1    0    0  501    0 -0.00000000000E+00 -0.00000000000E+00 -0.12012459356E+04  0.12012459356E+04  0.00000000000E+00 0. -1.
         25    2    1    2    0    0 -0.24120001024E+03  0.22951363290E+02 -0.21928911375E+03  0.34988128781E+03  0.12499996054E+03 0.  0.
          2    1    1    2  501    0  0.11583270086E+03 -0.53601433280E+02 -0.90760628798E+03  0.91653668897E+03  0.00000000000E+00 0. -1.
          1    1    1    2  502    0  0.12536730938E+03  0.30650069990E+02  0.90277047849E+03  0.91194897110E+03  0.00000000000E+00 0. -1.
         22    1    3    3    0    0 -0.13585922866E+03 -0.46174136691E+02 -0.14304574199E+03  0.20261259885E+03  0.00000000000E+00 0.  1.
         22    1    3    3    0    0 -0.10534078158E+03  0.69125499981E+02 -0.76243371760E+02  0.14726868896E+03  0.00000000000E+00 0.  1.
</event>
<event>
 7    1  0.5064652E-006  0.1499507E+03  0.7818608E-02  0.1293093E+00
          2   -1    0    0  502    0  0.00000000000E+00  0.00000000000E+00  0.78798183937E+03  0.78798183937E+03  0.00000000000E+00 0. -1.
          1   -1    0    0  501    0 -0.00000000000E+00 -0.00000000000E+00 -0.16105278414E+04  0.16105278414E+04  0.00000000000E+00 0. -1.
         25    2    1    2    0    0  0.13704934369E+03  0.14050932875E+03  0.18966360276E+02  0.23347396247E+03  0.12499989704E+03 0.  0.
          2    1    1    2  501    0 -0.79883252033E+02 -0.12543962483E+03 -0.14982649972E+04  0.15056275886E+04  0.00000000000E+00 0. -1.
          1    1    1    2  502    0 -0.57166091655E+02 -0.15069703919E+02  0.65675263496E+03  0.65940812972E+03  0.00000000000E+00 0. -1.
         22    1    3    3    0    0  0.13167771923E+03  0.14917971447E+03 -0.13504223152E+02  0.19943914609E+03  0.00000000000E+00 0.  1.
         22    1    3    3    0    0  0.53716244617E+01 -0.86703857215E+01  0.32470583428E+02  0.34034816381E+02  0.00000000000E+00 0.  1.
</event>
<event>
 7    1  0.5064652E-006  0.1300787E+03  0.7818608E-02  0.1340938E+00
          2   -1    0    0  502    0  0.00000000000E+00  0.00000000000E+00  0.60792740485E+03  0.60792740485E+03  0.00000000000E+00 0. -1.
          1   -1    0    0  501    0 -0.00000000000E+00 -0.00000000000E+00 -0.20297843667E+03  0.20297843667E+03  0.00000000000E+00 0. -1.
         25    2    1    2    0    0 -0.14107523160E+03 -0.36721492288E+02  0.23316545926E+03  0.30206270275E+03  0.12500022413E+03 0.  0.
          2    1    1    2  501    0  0.12902961986E+03 -0.59630112954E+01 -0.14198950915E+03  0.19195109016E+03  0.00000000000E+00 0. -1.
          1    1    1    2  502    0  0.12045611739E+02  0.42684503583E+02  0.31377301806E+03  0.31689204861E+03  0.00000000000E+00 0. -1.
         22    1    3    3    0    0 -0.64406795756E+02  0.43216688934E+02  0.12590223726E+03  0.14787593073E+03  0.00000000000E+00 0.  1.
         22    1    3    3    0    0 -0.76668435841E+02 -0.79938181222E+02  0.10726322200E+03  0.15418677202E+03  0.00000000000E+00 0.  1.
</event>
<event>
 7    1  0.5064652E-006  0.1477949E+03  0.7818608E-02  0.1261017E+00
          2   -1    0    0  502    0  0.00000000000E+00  0.00000000000E+00  0.13291402126E+04  0.13291402126E+04  0.00000000000E+00 0. -1.
          1   -1    0    0  501    0 -0.00000000000E+00 -0.00000000000E+00 -0.20068706301E+04  0.20068706301E+04  0.00000000000E+00 0. -1.
         25    2    1    2    0    0 -0.89086310709E+01 -0.15411801805E+03 -0.22391067928E+03  0.29932399472E+03  0.12500853701E+03 0.  0.
          2    1    1    2  501    0  0.84202481525E+02  0.12289214878E+03 -0.17407825712E+04  0.17471452425E+04  0.00000000000E+00 0. -1.
          1    1    1    2  502    0 -0.75293850455E+02  0.31225869274E+02  0.12869628330E+04  0.12895416055E+04  0.00000000000E+00 0. -1.
         22    1    3    3    0    0 -0.58277639672E+02 -0.67000265574E+02 -0.15202214336E+03  0.17605695369E+03  0.00000000000E+00 0.  1.
         22    1    3    3    0    0  0.49369008601E+02 -0.87117752477E+02 -0.71888535925E+02  0.12326704103E+03  0.00000000000E+00 0.  1.
</event>
<event>
 7    1  0.5064652E-006  0.1058160E+03  0.7818608E-02  0.1289954E+00
          2   -1    0    0  502    0  0.00000000000E+00  0.00000000000E+00  0.37983364430E+04  0.37983364430E+04  0.00000000000E+00 0. -1.
          1   -1    0    0  501    0 -0.00000000000E+00 -0.00000000000E+00 -0.48480451137E+03  0.48480451137E+03  0.00000000000E+00 0. -1.
         25    2    1    2    0    0  0.18976842392E+02  0.48982697032E+02  0.16633797183E+04  0.16688969840E+04  0.12500252346E+03 0.  0.
          2    1    1    2  501    0  0.10095772597E+03 -0.31694870095E+02 -0.47449165482E+03  0.48614746499E+03  0.00000000000E+00 0. -1.
          1    1    1    2  502    0 -0.11993456836E+03 -0.17287826936E+02  0.21246438682E+04  0.21280965054E+04  0.00000000000E+00 0. -1.
         22    1    3    3    0    0  0.10916911887E+02 -0.36410949914E+02  0.88296904523E+03  0.88378689235E+03  0.00000000000E+00 0.  1.
         22    1    3    3    0    0  0.80599305046E+01  0.85393646946E+02  0.78041067307E+03  0.78511009168E+03  0.00000000000E+00 0.  1.
</event>
<event>
 7    1  0.5064652E-006  0.6194720E+02  0.7818608E-02  0.1399477E+00
          2   -1    0    0  502    0  0.00000000000E+00  0.00000000000E+00  0.17810621109E+04  0.17810621109E+04  0.00000000000E+00 0. -1.
          1   -1    0    0  501    0 -0.00000000000E+00 -0.00000000000E+00 -0.32903849421E+03  0.32903849421E+03  0.00000000000E+00 0. -1.
         25    2    1    2    0    0 -0.14173188268E+02 -0.48277129359E+02  0.40960353255E+03  0.43119861646E+03  0.12500252985E+03 0.  0.
          2    1    1    2  501    0  0.57358272068E+02  0.50581826016E+00 -0.31488663031E+03  0.32006845702E+03  0.00000000000E+00 0. -1.
          1    1    1    2  502    0 -0.43185083800E+02  0.47771311099E+02  0.13573067144E+04  0.13588335316E+04  0.00000000000E+00 0. -1.
         22    1    3    3    0    0 -0.10308987723E+02  0.41106367215E+02  0.17647596828E+03  0.18149318454E+03  0.00000000000E+00 0. -1.
         22    1    3    3    0    0 -0.38642005447E+01 -0.89383496575E+02  0.23312756427E+03  0.24970543191E+03  0.00000000000E+00 0. -1.
</event>
<event>
 7    1  0.6247873E-006  0.6169686E+02  0.7818608E-02  0.1405508E+00
          2   -1    0    0  502    0  0.00000000000E+00  0.00000000000E+00  0.91089829134E+03  0.91089829134E+03  0.00000000000E+00 0. -1.
          1   -1    0    0  501    0 -0.00000000000E+00 -0.00000000000E+00 -0.72870416557E+03  0.72870416557E+03  0.00000000000E+00 0. -1.
         25    2    1    2    0    0 -0.67521256379E+02  0.90167705168E+02 -0.25801582496E+02  0.17023622671E+03  0.12500126442E+03 0.  0.
          2    1    1    2  501    0  0.43012036989E+02 -0.34144476715E+02 -0.62837143139E+03  0.63076662594E+03  0.00000000000E+00 0. -1.
          1    1    1    2  502    0  0.24509219390E+02 -0.56023228453E+02  0.83636713965E+03  0.83859960425E+03  0.00000000000E+00 0. -1.
         22    1    3    3    0    0 -0.26827530135E+02  0.96689495393E+01 -0.65688013299E+02  0.71610893372E+02  0.00000000000E+00 0.  1.
         22    1    3    3    0    0 -0.40693726244E+02  0.80498755628E+02  0.39886430803E+02  0.98625333336E+02  0.00000000000E+00 0.  1.
</event>
<event>
 7    1  0.5064652E-006  0.7391051E+02  0.7818608E-02  0.1470143E+00
          2   -1    0    0  502    0  0.00000000000E+00  0.00000000000E+00  0.46855441391E+03  0.46855441391E+03  0.00000000000E+00 0. -1.
          1   -1    0    0  501    0 -0.00000000000E+00 -0.00000000000E+00 -0.14646229279E+04  0.14646229279E+04  0.00000000000E+00 0. -1.
         25    2    1    2    0    0 -0.27562468917E+02 -0.39165971950E+02 -0.11849018064E+03  0.17874371296E+03  0.12496291035E+03 0.  0.
          2    1    1    2  501    0  0.51215082614E+02  0.54579901104E+02 -0.13144858258E+04  0.13166149538E+04  0.00000000000E+00 0. -1.
          1    1    1    2  502    0 -0.23652613697E+02 -0.15413929154E+02  0.43690749241E+03  0.43781867511E+03  0.00000000000E+00 0. -1.
         22    1    3    3    0    0 -0.60081173217E+02 -0.34799535514E+02 -0.12709493239E+03  0.14482360611E+03  0.00000000000E+00 0. -1.
         22    1    3    3    0    0  0.32518704300E+02 -0.43664364365E+01  0.86047517438E+01  0.33920106855E+02  0.00000000000E+00 0. -1.
</event>
<event>
 7    1  0.5064652E-006  0.5263326E+02  0.7818608E-02  0.1519043E+00
          2   -1    0    0  502    0  0.00000000000E+00  0.00000000000E+00  0.39259409281E+03  0.39259409281E+03  0.00000000000E+00 0. -1.
          1   -1    0    0  501    0 -0.00000000000E+00 -0.00000000000E+00 -0.52894242750E+02  0.52894242750E+02  0.00000000000E+00 0. -1.
         25    2    1    2    0    0 -0.32550560446E+02  0.64561849616E+02  0.20805690906E+03  0.25325882136E+03  0.12499832709E+03 0.  0.
          2    1    1    2  501    0  0.35648836760E+02 -0.36474817159E+02 -0.63290037369E+01  0.51393658533E+02  0.00000000000E+00 0. -1.
          1    1    1    2  502    0 -0.30982763138E+01 -0.28087032457E+02  0.13797194473E+03  0.14083585567E+03  0.00000000000E+00 0. -1.
         22    1    3    3    0    0 -0.45106033385E+02  0.94481274193E+02  0.11913208388E+03  0.15859923969E+03  0.00000000000E+00 0. -1.
         22    1    3    3    0    0  0.12555472938E+02 -0.29919424576E+02  0.88924825182E+02  0.94659581667E+02  0.00000000000E+00 0. -1.
</event>
<event>
 7    1  0.5064652E-006  0.5978561E+02  0.7818608E-02  0.1432004E+00
          2   -1    0    0  502    0  0.00000000000E+00  0.00000000000E+00  0.64311177087E+03  0.64311177087E+03  0.00000000000E+00 0. -1.
          1   -1    0    0  501    0 -0.00000000000E+00 -0.00000000000E+00 -0.29378529293E+03  0.29378529293E+03  0.00000000000E+00 0. -1.
         25    2    1    2    0    0  0.80780601210E+02 -0.66756313201E+02 -0.11758449555E+03  0.20107086842E+03  0.12498587780E+03 0.  0.
          2    1    1    2  501    0 -0.39343186612E+02  0.24232735917E+02 -0.12896832083E+03  0.13699612987E+03  0.00000000000E+00 0. -1.
          1    1    1    2  502    0 -0.41437414598E+02  0.42523577284E+02  0.59587929432E+03  0.59883006551E+03  0.00000000000E+00 0. -1.
         22    1    3    3    0    0  0.10044731671E+03 -0.17407347262E+02 -0.45781532595E+02  0.11175252972E+03  0.00000000000E+00 0. -1.
         22    1    3    3    0    0 -0.19666715500E+02 -0.49348965939E+02 -0.71802962955E+02  0.89318338694E+02  0.00000000000E+00 0. -1.
</event>
<event>
 7    1  0.5064652E-006  0.2240885E+03  0.7818608E-02  0.1217273E+00
          2   -1    0    0  502    0  0.00000000000E+00  0.00000000000E+00  0.80577203289E+03  0.80577203289E+03  0.00000000000E+00 0. -1.
          1   -1    0    0  501    0 -0.00000000000E+00 -0.00000000000E+00 -0.17880910551E+04  0.17880910551E+04  0.00000000000E+00 0. -1.
         25    2    1    2    0    0  0.17849669894E+03 -0.26823453574E+02 -0.80064999477E+03  0.83020842376E+03  0.12500017425E+03 0.  0.
          2    1    1    2  501    0  0.41955884155E+02  0.72644878914E+02 -0.95476145405E+03  0.95843988272E+03  0.00000000000E+00 0. -1.
          1    1    1    2  502    0 -0.22045258310E+03 -0.45821425340E+02  0.77309242657E+03  0.80521478155E+03  0.00000000000E+00 0. -1.
         22    1    3    3    0    0  0.43029501558E+01  0.34345233235E+02 -0.14363988462E+03  0.14775157150E+03  0.00000000000E+00 0.  1.
         22    1    3    3    0    0  0.17419374878E+03 -0.61168686809E+02 -0.65701011015E+03  0.68245685227E+03  0.00000000000E+00 0.  1.
</event>
<event>
 7    1  0.5064652E-006  0.3235341E+02  0.7818608E-02  0.1650066E+00
          2   -1    0    0  502    0  0.00000000000E+00  0.00000000000E+00  0.21616120916E+04  0.21616120916E+04  0.00000000000E+00 0. -1.
          1   -1    0    0  501    0 -0.00000000000E+00 -0.00000000000E+00 -0.56375679574E+02  0.56375679574E+02  0.00000000000E+00 0. -1.
         25    2    1    2    0    0  0.14918593983E+02  0.37002930866E+01  0.88013428286E+03  0.88909983045E+03  0.12500358404E+03 0.  0.
          2    1    1    2  501    0  0.10630766049E+02  0.17574572350E+02 -0.49635180767E+02  0.53717129017E+02  0.00000000000E+00 0. -1.
          1    1    1    2  502    0 -0.25549360032E+02 -0.21274865437E+02  0.12747373099E+04  0.12751708117E+04  0.00000000000E+00 0. -1.
         22    1    3    3    0    0 -0.46707872465E+02  0.30983102411E+02  0.48898014622E+03  0.49218204089E+03  0.00000000000E+00 0.  1.
         22    1    3    3    0    0  0.61626466448E+02 -0.27282809325E+02  0.39115413664E+03  0.39691778955E+03  0.00000000000E+00 0.  1.
</event>
<event>
 7    1  0.5064652E-006  0.1238291E+03  0.7818608E-02  0.1380855E+00
          2   -1    0    0  502    0  0.00000000000E+00  0.00000000000E+00  0.16931976328E+04  0.16931976328E+04  0.00000000000E+00 0. -1.
          1   -1    0    0  501    0 -0.00000000000E+00 -0.00000000000E+00 -0.14116814149E+03  0.14116814149E+03  0.00000000000E+00 0. -1.
         25    2    1    2    0    0 -0.80332032474E+02 -0.11004634721E+03  0.87450705149E+03  0.89384029444E+03  0.12499781951E+03 0.  0.
          2    1    1    2  501    0 -0.96771029910E+01  0.31889860393E+02 -0.12491396755E+03  0.12928305692E+03  0.00000000000E+00 0. -1.
          1    1    1    2  502    0  0.90009135465E+02  0.78156486819E+02  0.80243640737E+03  0.81124242293E+03  0.00000000000E+00 0. -1.
         22    1    3    3    0    0 -0.12970179076E+02 -0.90513429074E+02  0.69711600715E+03  0.70308721636E+03  0.00000000000E+00 0.  1.
         22    1    3    3    0    0 -0.67361853397E+02 -0.19532918139E+02  0.17739104435E+03  0.19075307809E+03  0.00000000000E+00 0.  1.
</event>
<event>
 7    1  0.5064652E-006  0.5399850E+02  0.7818608E-02  0.1466705E+00
          2   -1    0    0  502    0  0.00000000000E+00  0.00000000000E+00  0.64346561919E+02  0.64346561919E+02  0.00000000000E+00 0. -1.
          1   -1    0    0  501    0 -0.00000000000E+00 -0.00000000000E+00 -0.70923067627E+03  0.70923067627E+03  0.00000000000E+00 0. -1.
         25    2    1    2    0    0 -0.34667377121E+01  0.75539829346E+02 -0.39833718717E+03  0.42427962055E+03  0.12498959014E+03 0.  0.
          2    1    1    2  501    0 -0.25394361621E+02 -0.30395985684E+02 -0.28218230604E+03  0.28494849252E+03  0.00000000000E+00 0. -1.
          1    1    1    2  502    0  0.28861099333E+02 -0.45143843663E+02  0.35635378868E+02  0.64349125110E+02  0.00000000000E+00 0. -1.
         22    1    3    3    0    0  0.46829932236E+02  0.56512582807E+02 -0.11899835590E+03  0.13981174226E+03  0.00000000000E+00 0. -1.
         22    1    3    3    0    0 -0.50296669948E+02  0.19027246539E+02 -0.27933883128E+03  0.28446787829E+03  0.00000000000E+00 0. -1.
</event>
<event>
 7    1  0.5064652E-006  0.4999485E+02  0.7818608E-02  0.1466454E+00
          2   -1    0    0  502    0  0.00000000000E+00  0.00000000000E+00  0.16809684284E+04  0.16809684284E+04  0.00000000000E+00 0. -1.
          1   -1    0    0  501    0 -0.00000000000E+00 -0.00000000000E+00 -0.16127672497E+03  0.16127672497E+03  0.00000000000E+00 0. -1.
         25    2    1    2    0    0 -0.11102095765E+02  0.17440393056E+02  0.42202838421E+02  0.13355793741E+03  0.12501687580E+03 0.  0.
          2    1    1    2  501    0 -0.39230972248E+02 -0.17252642095E+02 -0.11121468613E+03  0.11918653134E+03  0.00000000000E+00 0. -1.
          1    1    1    2  502    0  0.50333068012E+02 -0.18775096026E+00  0.15887035511E+04  0.15895006846E+04  0.00000000000E+00 0. -1.
         22    1    3    3    0    0  0.42349235358E+02 -0.41523275500E+01 -0.21472939134E+02  0.47663263365E+02  0.00000000000E+00 0.  1.
         22    1    3    3    0    0 -0.53451331123E+02  0.21592720606E+02  0.63675777555E+02  0.85894674045E+02  0.00000000000E+00 0.  1.
</event>
<event>
 7    1  0.5064652E-006  0.1190980E+03  0.7818608E-02  0.1371558E+00
          2   -1    0    0  502    0  0.00000000000E+00  0.00000000000E+00  0.12839920001E+03  0.12839920001E+03  0.00000000000E+00 0. -1.
          1   -1    0    0  501    0 -0.00000000000E+00 -0.00000000000E+00 -0.95605330819E+03  0.95605330819E+03  0.00000000000E+00 0. -1.
         25    2    1    2    0    0  0.14728865455E+03  0.22062938430E+02 -0.19620839968E+03  0.27623251871E+03  0.12500378906E+03 0.  0.
          2    1    1    2  501    0 -0.11123277578E+03 -0.31981717830E+02 -0.71097691766E+03  0.72033585093E+03  0.00000000000E+00 0. -1.
          1    1    1    2  502    0 -0.36055878766E+02  0.99187794006E+01  0.79531209168E+02  0.87884138558E+02  0.00000000000E+00 0. -1.
         22    1    3    3    0    0  0.86419484903E+01  0.11593957954E+02  0.16608144999E+02  0.22021208302E+02  0.00000000000E+00 0.  1.
         22    1    3    3    0    0  0.13864670606E+03  0.10468980475E+02 -0.21281654468E+03  0.25421131041E+03  0.00000000000E+00 0.  1.
</event>
<event>
 7    1  0.5064652E-006  0.1166686E+03  0.7818608E-02  0.1357915E+00
          2   -1    0    0  502    0  0.00000000000E+00  0.00000000000E+00  0.67187640055E+03  0.67187640055E+03  0.00000000000E+00 0. -1.
          1   -1    0    0  501    0 -0.00000000000E+00 -0.00000000000E+00 -0.89522637354E+03  0.89522637354E+03  0.00000000000E+00 0. -1.
         25    2    1    2    0    0 -0.15951787318E+02  0.73246123816E+02 -0.66897498286E+03  0.68466869054E+03  0.12499693572E+03 0.  0.
          2    1    1    2  501    0  0.87450524656E+00  0.42767425707E+02 -0.21108972119E+03  0.21538033303E+03  0.00000000000E+00 0. -1.
          1    1    1    2  502    0  0.15077282071E+02 -0.11601354952E+03  0.65671473106E+03  0.66705375053E+03  0.00000000000E+00 0. -1.
         22    1    3    3    0    0 -0.45981576594E+02 -0.15811621911E+02 -0.29983860531E+03  0.30375566169E+03  0.00000000000E+00 0. -1.
         22    1    3    3    0    0  0.30029789276E+02  0.89057745728E+02 -0.36913637755E+03  0.38091302885E+03  0.00000000000E+00 0. -1.
</event>
<event>
 7    1  0.5064652E-006  0.5904312E+02  0.7818608E-02  0.1471223E+00
          2   -1    0    0  502    0  0.00000000000E+00  0.00000000000E+00  0.27887057741E+04  0.27887057741E+04  0.00000000000E+00 0. -1.
          1   -1    0    0  501    0 -0.00000000000E+00 -0.00000000000E+00 -0.67494599123E+01  0.67494599123E+01  0.00000000000E+00 0. -1.
         25    2    1    2    0    0 -0.46326991608E+02  0.27087608656E+02  0.20601323555E+04  0.20646186103E+04  0.12499902051E+03 0.  0.
          2    1    1    2  501    0 -0.21105156074E+02 -0.28006880681E+02  0.11371393361E+03  0.11899862048E+03  0.00000000000E+00 0. -1.
          1    1    1    2  502    0  0.67432147682E+02  0.91927202414E+00  0.60811002506E+03  0.61183800322E+03  0.00000000000E+00 0. -1.
         22    1    3    3    0    0  0.28173237832E+02  0.46191385060E+02  0.58993176019E+03  0.59240767810E+03  0.00000000000E+00 0.  1.
         22    1    3    3    0    0 -0.74500229440E+02 -0.19103776403E+02  0.14702005953E+04  0.14722109322E+04  0.00000000000E+00 0.  1.
</event>
<event>
 7    1  0.5064652E-006  0.4700977E+02  0.7818608E-02  0.1555064E+00
          2   -1    0    0  502    0  0.00000000000E+00  0.00000000000E+00  0.87325961081E+03  0.87325961081E+03  0.00000000000E+00 0. -1.
          1   -1    0    0  501    0 -0.00000000000E+00 -0.00000000000E+00 -0.99223443525E+02  0.99223443525E+02  0.00000000000E+00 0. -1.
         25    2    1    2    0    0 -0.38917213673E+02  0.51253288494E+01  0.13619989454E+03  0.18898437130E+03  0.12499545115E+03 0.  0.
          2    1    1    2  501    0  0.36982001872E+02 -0.30051670883E+02 -0.64790366330E+02  0.80427376897E+02  0.00000000000E+00 0. -1.
          1    1    1    2  502    0  0.19352118003E+01  0.24926342034E+02  0.70262663908E+03  0.70307130614E+03  0.00000000000E+00 0. -1.
         22    1    3    3    0    0 -0.67729530540E+02  0.88047899759E+01  0.22924278061E+02  0.72043987662E+02  0.00000000000E+00 0. -1.
         22    1    3    3    0    0  0.28812316867E+02 -0.36794611265E+01  0.11327561647E+03  0.11694038364E+03  0.00000000000E+00 0. -1.
</event>
<event>
 7    1  0.5064652E-006  0.7870081E+02  0.7818608E-02  0.1337221E+00
          2   -1    0    0  502    0  0.00000000000E+00  0.00000000000E+00  0.76165014699E+03  0.76165014699E+03  0.00000000000E+00 0. -1.
          1   -1    0    0  501    0 -0.00000000000E+00 -0.00000000000E+00 -0.30243553655E+03  0.30243553655E+03  0.00000000000E+00 0. -1.
         25    2    1    2    0    0 -0.85958137407E+02  0.61891184449E+02  0.25446291460E+03  0.30264663581E+03  0.12499716460E+03 0.  0.
          2    1    1    2  501    0  0.77636177527E+02  0.13357668552E+02 -0.26970794770E+03  0.28097718844E+03  0.00000000000E+00 0. -1.
          1    1    1    2  502    0  0.83219598791E+01 -0.75248853001E+02  0.47445964353E+03  0.48046185930E+03  0.00000000000E+00 0. -1.
         22    1    3    3    0    0 -0.10516588495E+03  0.58810301486E+02  0.13230736756E+03  0.17895182153E+03  0.00000000000E+00 0.  1.
         22    1    3    3    0    0  0.19207747544E+02  0.30808829634E+01  0.12215554705E+03  0.12369481428E+03  0.00000000000E+00 0.  1.
</event>
<event>
 7    1  0.5064652E-006  0.2065312E+03  0.7818608E-02  0.1243875E+00
          2   -1    0    0  502    0  0.00000000000E+00  0.00000000000E+00  0.58898459569E+03  0.58898459569E+03  0.00000000000E+00 0. -1.
          1   -1    0    0  501    0 -0.00000000000E+00 -0.00000000000E+00 -0.13039064199E+04  0.13039064199E+04  0.00000000000E+00 0. -1.
         25    2    1    2    0    0  0.22138447925E+03  0.19426114871E+02 -0.28521387850E+03  0.38257141196E+03  0.12500186869E+03 0.  0.
          2    1    1    2  501    0 -0.31705991078E+02  0.61483792843E+02 -0.94903280626E+03  0.95155073118E+03  0.00000000000E+00 0. -1.
          1    1    1    2  502    0 -0.18967848817E+03 -0.80909907714E+02  0.51932486054E+03  0.55876887245E+03  0.00000000000E+00 0. -1.
         22    1    3    3    0    0  0.17150437429E+03 -0.35290668849E+02 -0.16045956291E+03  0.23750042745E+03  0.00000000000E+00 0.  1.
         22    1    3    3    0    0  0.49880104955E+02  0.54716783719E+02 -0.12475431559E+03  0.14507098452E+03  0.00000000000E+00 0.  1.
</event>
<event>
 7    1  0.5064652E-006  0.6422964E+02  0.7818608E-02  0.1430776E+00
          2   -1    0    0  502    0  0.00000000000E+00  0.00000000000E+00  0.11634102034E+04  0.11634102034E+04  0.00000000000E+00 0. -1.
          1   -1    0    0  501    0 -0.00000000000E+00 -0.00000000000E+00 -0.22866600075E+03  0.22866600075E+03  0.00000000000E+00 0. -1.
         25    2    1    2    0    0 -0.67581711721E+02  0.73063663051E+02  0.11079130333E+03  0.19442243934E+03  0.12497913990E+03 0.  0.
          2    1    1    2  501    0  0.40497256144E+02 -0.15637986350E+02 -0.18331581580E+03  0.18838594081E+03  0.00000000000E+00 0. -1.
          1    1    1    2  502    0  0.27084455577E+02 -0.57425676701E+02  0.10072687152E+04  0.10092678240E+04  0.00000000000E+00 0. -1.
         22    1    3    3    0    0  0.17653964056E+02 -0.22951655227E+02  0.82466091157E+01  0.30107266340E+02  0.00000000000E+00 0.  1.
         22    1    3    3    0    0 -0.85235675777E+02  0.96015318278E+02  0.10254469421E+03  0.16431517301E+03  0.00000000000E+00 0.  1.
</event>
<event>
 7    1  0.5064652E-006  0.1113041E+03  0.7818608E-02  0.1331000E+00
          2   -1    0    0  502    0  0.00000000000E+00  0.00000000000E+00  0.72265655295E+02  0.72265655295E+02  0.00000000000E+00 0. -1.
          1   -1    0    0  501    0 -0.00000000000E+00 -0.00000000000E+00 -0.12700023685E+04  0.12700023685E+04  0.00000000000E+00 0. -1.
         25    2    1    2    0    0  0.21233621980E+02 -0.63475293017E+02 -0.25736038441E+03  0.29383477411E+03  0.12499810995E+03 0.  0.
          2    1    1    2  501    0 -0.14968104533E+02  0.11965014411E+03 -0.97481521262E+03  0.98224482686E+03  0.00000000000E+00 0. -1.
          1    1    1    2  502    0 -0.62655174472E+01 -0.56174851093E+02  0.34438883785E+02  0.66188422859E+02  0.00000000000E+00 0. -1.
         22    1    3    3    0    0  0.48449109177E+02  0.18293519515E+02 -0.13118718339E+03  0.14103916521E+03  0.00000000000E+00 0. -1.
         22    1    3    3    0    0 -0.27215487197E+02 -0.81768812532E+02 -0.12617320101E+03  0.15279560890E+03  0.00000000000E+00 0. -1.
</event>
<event>
 7    1  0.5922976E-006  0.1590048E+03  0.7818608E-02  0.1272785E+00
          2   -1    0    0  502    0  0.00000000000E+00  0.00000000000E+00  0.91523701209E+03  0.91523701209E+03  0.00000000000E+00 0. -1.
          1   -1    0    0  501    0 -0.00000000000E+00 -0.00000000000E+00 -0.16734712778E+04  0.16734712778E+04  0.00000000000E+00 0. -1.
         25    2    1    2    0    0 -0.13687956668E+02  0.15902581125E+03 -0.29530153766E+03  0.35819664291E+03  0.12500107219E+03 0.  0.
          2    1    1    2  501    0  0.66987615094E+02 -0.89069354907E+01 -0.13386846422E+04  0.13403892141E+04  0.00000000000E+00 0. -1.
          1    1    1    2  502    0 -0.53299658426E+02 -0.15011887576E+03  0.87575191412E+03  0.89012243289E+03  0.00000000000E+00 0. -1.
         22    1    3    3    0    0  0.38469776407E+02  0.16480732695E+02 -0.11574766492E+03  0.12308151844E+03  0.00000000000E+00 0.  1.
         22    1    3    3    0    0 -0.52157733074E+02  0.14254507856E+03 -0.17955387274E+03  0.23511512448E+03  0.00000000000E+00 0.  1.
</event>
<event>
 7    1  0.5064652E-006  0.5883377E+02  0.7818608E-02  0.1405801E+00
          2   -1    0    0  502    0  0.00000000000E+00  0.00000000000E+00  0.38244121103E+03  0.38244121103E+03  0.00000000000E+00 0. -1.
          1   -1    0    0  501    0 -0.00000000000E+00 -0.00000000000E+00 -0.25676444961E+04  0.25676444961E+04  0.00000000000E+00 0. -1.
         25    2    1    2    0    0  0.61579715308E+02  0.30757207334E+02 -0.68700211951E+03  0.70166555578E+03  0.12499829130E+03 0.  0.
          2    1    1    2  501    0 -0.50658241756E+02  0.27112001729E+02 -0.18705554117E+04  0.18714376469E+04  0.00000000000E+00 0. -1.
          1    1    1    2  502    0 -0.10921473552E+02 -0.57869209062E+02  0.37235424619E+03  0.37698250436E+03  0.00000000000E+00 0. -1.
         22    1    3    3    0    0  0.84857670232E+02  0.36139831257E+02 -0.65636514293E+03  0.66281378414E+03  0.00000000000E+00 0. -1.
         22    1    3    3    0    0 -0.23277954924E+02 -0.53826239236E+01 -0.30636976578E+02  0.38851771641E+02  0.00000000000E+00 0. -1.
</event>
<event>
 7    1  0.5064652E-006  0.3065757E+03  0.7818608E-02  0.1315526E+00
          2   -1    0    0  502    0  0.00000000000E+00  0.00000000000E+00  0.74224300604E+03  0.74224300604E+03  0.00000000000E+00 0. -1.
          1   -1    0    0  501    0 -0.00000000000E+00 -0.00000000000E+00 -0.12002324014E+04  0.12002324014E+04  0.00000000000E+00 0. -1.
         25    2    1    2    0    0 -0.22255484693E+03  0.18920210084E+03  0.19653509971E+03  0.37360340030E+03  0.12500144177E+03 0.  0.
          2    1    1    2  501    0 -0.15832495730E+02  0.17429636544E+02 -0.10571273657E+04  0.10573895817E+04  0.00000000000E+00 0. -1.
          1    1    1    2  502    0  0.23838734266E+03 -0.20663173738E+03  0.40260287066E+03  0.51148242541E+03  0.00000000000E+00 0. -1.
         22    1    3    3    0    0 -0.14206260962E+03  0.51718868679E+02  0.13543348838E+03  0.20297501374E+03  0.00000000000E+00 0. -1.
         22    1    3    3    0    0 -0.80492237313E+02  0.13748323216E+03  0.61101611335E+02  0.17062838656E+03  0.00000000000E+00 0. -1.
</event>
<event>
 7    1  0.5064652E-006  0.6286480E+02  0.7818608E-02  0.1518869E+00
          2   -1    0    0  502    0  0.00000000000E+00  0.00000000000E+00  0.11410820395E+04  0.11410820395E+04  0.00000000000E+00 0. -1.
          1   -1    0    0  501    0 -0.00000000000E+00 -0.00000000000E+00 -0.37679355883E+02  0.37679355883E+02  0.00000000000E+00 0. -1.
         25    2    1    2    0    0 -0.38556769284E+02 -0.56872986883E+02  0.35202830813E+03  0.37982504687E+03  0.12498790103E+03 0.  0.
          2    1    1    2  501    0  0.50812922563E+02  0.36604484170E+02  0.17973106040E+02  0.65152696809E+02  0.00000000000E+00 0. -1.
          1    1    1    2  502    0 -0.12256153279E+02  0.20268502713E+02  0.73340126943E+03  0.73378365170E+03  0.00000000000E+00 0. -1.
         22    1    3    3    0    0 -0.41912877540E+02 -0.95196741584E+02  0.24924142199E+03  0.27007479584E+03  0.00000000000E+00 0.  1.
         22    1    3    3    0    0  0.33561082563E+01  0.38323754701E+02  0.10278688614E+03  0.10975025102E+03  0.00000000000E+00 0.  1.
</event>
<event>
 7    1  0.5064652E-006  0.1476963E+03  0.7818608E-02  0.1259828E+00
          2   -1    0    0  502    0  0.00000000000E+00  0.00000000000E+00  0.11488329698E+04  0.11488329698E+04  0.00000000000E+00 0. -1.
          1   -1    0    0  501    0 -0.00000000000E+00 -0.00000000000E+00 -0.42771175131E+03  0.42771175131E+03  0.00000000000E+00 0. -1.
         25    2    1    2    0    0 -0.14417718279E+02 -0.22451062701E+03  0.18938017997E+03  0.31953523730E+03  0.12500009228E+03 0.  0.
          2    1    1    2  501    0  0.19095035773E+02  0.14211899952E+03 -0.34644799862E+03  0.37495152509E+03  0.00000000000E+00 0. -1.
          1    1    1    2  502    0 -0.46773174942E+01  0.82391627489E+02  0.87818903719E+03  0.88205795876E+03  0.00000000000E+00 0. -1.
         22    1    3    3    0    0 -0.47268727869E+02 -0.27893207141E+02  0.21600048121E+02  0.58982418717E+02  0.00000000000E+00 0. -1.
         22    1    3    3    0    0  0.32851009590E+02 -0.19661741987E+03  0.16778013185E+03  0.26055281858E+03  0.00000000000E+00 0. -1.
</event>
<event>
 7    1  0.5064652E-006  0.1611106E+03  0.7818608E-02  0.1243633E+00
          2   -1    0    0  502    0  0.00000000000E+00  0.00000000000E+00  0.17798977451E+03  0.17798977451E+03  0.00000000000E+00 0. -1.
          1   -1    0    0  501    0 -0.00000000000E+00 -0.00000000000E+00 -0.16417174083E+04  0.16417174083E+04  0.00000000000E+00 0. -1.
         25    2    1    2    0    0  0.13636580564E+02  0.23369111066E+03  0.72624090874E+01  0.26547190070E+03  0.12500038378E+03 0.  0.
          2    1    1    2  501    0 -0.47846070519E+02 -0.15164013913E+03 -0.14553040613E+04  0.14639651257E+04  0.00000000000E+00 0. -1.
          1    1    1    2  502    0  0.34209489955E+02 -0.82050971527E+02 -0.15685981580E+02  0.90270156473E+02  0.00000000000E+00 0. -1.
         22    1    3    3    0    0  0.44956135310E+02  0.19963424884E+03 -0.29010669737E+02  0.20667971930E+03  0.00000000000E+00 0. -1.
         22    1    3    3    0    0 -0.31319554745E+02  0.34056861820E+02  0.36273078824E+02  0.58792181401E+02  0.00000000000E+00 0. -1.
</event>
<event>
 7    1  0.5064652E-006  0.4484679E+02  0.7818608E-02  0.1517201E+00
          2   -1    0    0  502    0  0.00000000000E+00  0.00000000000E+00  0.29677004578E+04  0.29677004578E+04  0.00000000000E+00 0. -1.
          1   -1    0    0  501    0 -0.00000000000E+00 -0.00000000000E+00 -0.39620941641E+02  0.39620941641E+02  0.00000000000E+00 0. -1.
         25    2    1    2    0    0 -0.41360622136E+02  0.38502681480E+02  0.10701481892E+04  0.10789046133E+04  0.12499944090E+03 0.  0.
          2    1    1    2  501    0  0.44547920162E+02 -0.50786018047E+01 -0.20771317135E+02  0.49414137679E+02  0.00000000000E+00 0. -1.
          1    1    1    2  502    0 -0.31872980261E+01 -0.33424079675E+02  0.18787026441E+04  0.18790026485E+04  0.00000000000E+00 0. -1.
         22    1    3    3    0    0 -0.59819358368E+02  0.66948849754E+02  0.94461488491E+03  0.94887184852E+03  0.00000000000E+00 0.  1.
         22    1    3    3    0    0  0.18458736233E+02 -0.28446168274E+02  0.12553330431E+03  0.13003276481E+03  0.00000000000E+00 0.  1.
</event>
<event>
 7    1  0.5064652E-006  0.4841116E+02  0.7818608E-02  0.1502898E+00
          2   -1    0    0  502    0  0.00000000000E+00  0.00000000000E+00  0.71786807701E+02  0.71786807701E+02  0.00000000000E+00 0. -1.
          1   -1    0    0  501    0 -0.00000000000E+00 -0.00000000000E+00 -0.22747073498E+04  0.22747073498E+04  0.00000000000E+00 0. -1.
         25    2    1    2    0    0  0.18590689176E+01 -0.82467764756E+02 -0.16070184062E+04  0.16139820425E+04  0.12500194839E+03 0.  0.
          2    1    1    2  501    0 -0.14341908026E+01  0.34239768133E+02 -0.65518939718E+03  0.65608502863E+03  0.00000000000E+00 0. -1.
          1    1    1    2  502    0 -0.42487811500E+00  0.48227996622E+02  0.59287261314E+02  0.76427086388E+02  0.00000000000E+00 0. -1.
         22    1    3    3    0    0 -0.29048508771E+02 -0.11018593506E+02 -0.94796785269E+02  0.99757985956E+02  0.00000000000E+00 0.  1.
         22    1    3    3    0    0  0.30907577689E+02 -0.71449171250E+02 -0.15122216210E+04  0.15142240565E+04  0.00000000000E+00 0.  1.
</event>
<event>
 7    1  0.5064652E-006  0.7321054E+02  0.7818608E-02  0.1449338E+00
          2   -1    0    0  502    0  0.00000000000E+00  0.00000000000E+00  0.11166110114E+04  0.11166110114E+04  0.00000000000E+00 0. -1.
          1   -1    0    0  501    0 -0.00000000000E+00 -0.00000000000E+00 -0.29571033139E+04  0.29571033139E+04  0.00000000000E+00 0. -1.
         25    2    1    2    0    0 -0.14496899281E+02  0.39032311958E+02 -0.19503455474E+02  0.13318914566E+03  0.12500112912E+03 0.  0.
          2    1    1    2  501    0  0.36699248767E+02 -0.63653944118E+02 -0.28800290513E+04  0.28809661566E+04  0.00000000000E+00 0. -1.
          1    1    1    2  502    0 -0.22202349486E+02  0.24621632160E+02  0.10590402043E+04  0.10595590230E+04  0.00000000000E+00 0. -1.
         22    1    3    3    0    0  0.34173660268E+02 -0.26985875006E+02  0.12254985508E+02  0.45235618441E+02  0.00000000000E+00 0. -1.
         22    1    3    3    0    0 -0.48670559549E+02  0.66018186964E+02 -0.31758440983E+02  0.87953527220E+02  0.00000000000E+00 0. -1.
</event>
<event>
 7    1  0.5064652E-006  0.1232763E+03  0.7818608E-02  0.1309717E+00
          2   -1    0    0  502    0  0.00000000000E+00  0.00000000000E+00  0.59536597649E+03  0.59536597649E+03  0.00000000000E+00 0. -1.
          1   -1    0    0  501    0 -0.00000000000E+00 -0.00000000000E+00 -0.53047006798E+03  0.53047006798E+03  0.00000000000E+00 0. -1.
         25    2    1    2    0    0 -0.18680317008E+02  0.17422776287E+03 -0.44390730665E+02  0.21977170981E+03  0.12499919945E+03 0.  0.
          2    1    1    2  501    0  0.31762739656E+02 -0.11391542465E+03 -0.38766152174E+03  0.40529871828E+03  0.00000000000E+00 0. -1.
          1    1    1    2  502    0 -0.13082422648E+02 -0.60312338225E+02  0.49694816091E+03  0.50076561639E+03  0.00000000000E+00 0. -1.
         22    1    3    3    0    0  0.51643505158E+02  0.97895373492E+02 -0.13615660024E+02  0.11151655471E+03  0.00000000000E+00 0. -1.
         22    1    3    3    0    0 -0.70323822166E+02  0.76332389379E+02 -0.30775070642E+02  0.10825515510E+03  0.00000000000E+00 0. -1.
</event>
<event>
 7    1  0.5064652E-006  0.1076291E+03  0.7818608E-02  0.1393075E+00
          2   -1    0    0  502    0  0.00000000000E+00  0.00000000000E+00  0.28046407875E+04  0.28046407875E+04  0.00000000000E+00 0. -1.
          1   -1    0    0  501    0 -0.00000000000E+00 -0.00000000000E+00 -0.47223679272E+02  0.47223679272E+02  0.00000000000E+00 0. -1.
         25    2    1    2    0    0 -0.73560563152E+02  0.15774258712E+02  0.29855044692E+03  0.33229109912E+03  0.12500008603E+03 0.  0.
          2    1    1    2  501    0 -0.34070146815E+02  0.67937589223E+01 -0.18776841845E+02  0.39490503339E+02  0.00000000000E+00 0. -1.
          1    1    1    2  502    0  0.10763070997E+03 -0.22568017634E+02  0.24776435031E+04  0.24800828643E+04  0.00000000000E+00 0. -1.
         22    1    3    3    0    0 -0.52181544812E+02 -0.22198028298E+02  0.38327341157E+02  0.68444511537E+02  0.00000000000E+00 0.  1.
         22    1    3    3    0    0 -0.21379018340E+02  0.37972287010E+02  0.26022310576E+03  0.26384658758E+03  0.00000000000E+00 0.  1.
</event>
<event>
 7    1  0.5064652E-006  0.5530314E+02  0.7818608E-02  0.1446002E+00
          2   -1    0    0  502    0  0.00000000000E+00  0.00000000000E+00  0.69750794021E+03  0.69750794021E+03  0.00000000000E+00 0. -1.
          1   -1    0    0  501    0 -0.00000000000E+00 -0.00000000000E+00 -0.85784470082E+02  0.85784470082E+02  0.00000000000E+00 0. -1.
         25    2    1    2    0    0  0.15813865605E+02 -0.87940431899E+00  0.19742760834E+03  0.23420358285E+03  0.12499122363E+03 0.  0.
          2    1    1    2  501    0 -0.47514687869E+02  0.32796269824E+02 -0.53752726920E+02  0.78883436342E+02  0.00000000000E+00 0. -1.
          1    1    1    2  502    0  0.31700822265E+02 -0.31916865505E+02  0.46804858870E+03  0.47020539110E+03  0.00000000000E+00 0. -1.
         22    1    3    3    0    0 -0.38766934588E+02  0.30317136383E+02  0.36026812380E+02  0.60991271393E+02  0.00000000000E+00 0. -1.
         22    1    3    3    0    0  0.54580800192E+02 -0.31196540702E+02  0.16140079596E+03  0.17321231145E+03  0.00000000000E+00 0. -1.
</event>
<event>
 7    1  0.5064652E-006  0.7565615E+02  0.7818608E-02  0.1484123E+00
          2   -1    0    0  502    0  0.00000000000E+00  0.00000000000E+00  0.36083746632E+03  0.36083746632E+03  0.00000000000E+00 0. -1.
          1   -1    0    0  501    0 -0.00000000000E+00 -0.00000000000E+00 -0.22416640909E+03  0.22416640909E+03  0.00000000000E+00 0. -1.
         25    2    1    2    0    0 -0.51501520487E+02 -0.65261191698E+01 -0.47570142774E+02  0.14346823555E+03  0.12500087714E+03 0.  0.
          2    1    1    2  501    0 -0.24952453407E+02 -0.11085511001E+01 -0.12265256165E+03  0.12516990332E+03  0.00000000000E+00 0. -1.
          1    1    1    2  502    0  0.76453973894E+02  0.76346702699E+01  0.30689376166E+03  0.31636573655E+03  0.00000000000E+00 0. -1.
         22    1    3    3    0    0 -0.14425711760E+02 -0.47546765336E+02  0.22219993746E+02  0.54429074729E+02  0.00000000000E+00 0. -1.
         22    1    3    3    0    0 -0.37075808727E+02  0.41020646166E+02 -0.69790136521E+02  0.89039160824E+02  0.00000000000E+00 0. -1.
</event>
<event>
 7    1  0.5064652E-006  0.5677746E+02  0.7818608E-02  0.1442192E+00
          2   -1    0    0  502    0  0.00000000000E+00  0.00000000000E+00  0.90226683898E+03  0.90226683898E+03  0.00000000000E+00 0. -1.
          1   -1    0    0  501    0 -0.00000000000E+00 -0.00000000000E+00 -0.61896747886E+03  0.61896747886E+03  0.00000000000E+00 0. -1.
         25    2    1    2    0    0  0.65103020668E+01  0.20929608998E+02  0.38573285106E+03  0.40607314441E+03  0.12500053464E+03 0.  0.
          2    1    1    2  501    0  0.28576051052E+02 -0.49225389295E+02 -0.60645901826E+03  0.60912418313E+03  0.00000000000E+00 0. -1.
          1    1    1    2  502    0 -0.35086353118E+02  0.28295780298E+02  0.50402552732E+03  0.50603699030E+03  0.00000000000E+00 0. -1.
         22    1    3    3    0    0 -0.39888452188E+02 -0.25632275167E+02  0.77056950702E+02  0.90475829920E+02  0.00000000000E+00 0.  1.
         22    1    3    3    0    0  0.46398754255E+02  0.46561884165E+02  0.30867590036E+03  0.31559731449E+03  0.00000000000E+00 0.  1.
</event>
<event>
 7    1  0.5064652E-006  0.1112288E+03  0.7818608E-02  0.1281577E+00
          2   -1    0    0  502    0  0.00000000000E+00  0.00000000000E+00  0.66125330697E+03  0.66125330697E+03  0.00000000000E+00 0. -1.
          1   -1    0    0  501    0 -0.00000000000E+00 -0.00000000000E+00 -0.56196458834E+03  0.56196458834E+03  0.00000000000E+00 0. -1.
         25    2    1    2    0    0  0.16584481697E+03 -0.73664216893E+02 -0.36407334554E+02  0.22334343347E+03  0.12500350034E+03 0.  0.
          2    1    1    2  501    0 -0.10665397244E+03  0.74450410025E+01 -0.42190680828E+03  0.43524229269E+03  0.00000000000E+00 0. -1.
          1    1    1    2  502    0 -0.59190844538E+02  0.66219175890E+02  0.55760286146E+03  0.56463216915E+03  0.00000000000E+00 0. -1.
         22    1    3    3    0    0  0.15414877993E+03 -0.76383297715E+02  0.12973000140E+02  0.17252406573E+03  0.00000000000E+00 0.  1.
         22    1    3    3    0    0  0.11696037045E+02  0.27190808215E+01 -0.49380334694E+02  0.50819367740E+02  0.00000000000E+00 0.  1.
</event>
<event>
 7    1  0.5064652E-006  0.1936644E+03  0.7818608E-02  0.1283638E+00
          2   -1    0    0  502    0  0.00000000000E+00  0.00000000000E+00  0.32177460113E+04  0.32177460113E+04  0.00000000000E+00 0. -1.
          1   -1    0    0  501    0 -0.00000000000E+00 -0.00000000000E+00 -0.17955380623E+04  0.17955380623E+04  0.00000000000E+00 0. -1.
         25    2    1    2    0    0  0.14070304857E+03 -0.15894490070E+03  0.10296445594E+04  0.10587038111E+04  0.12500004651E+03 0.  0.
          2    1    1    2  501    0 -0.91994995745E+02  0.17034465917E+03 -0.17754579430E+04  0.17859818839E+04  0.00000000000E+00 0. -1.
          1    1    1    2  502    0 -0.48708052827E+02 -0.11399758469E+02  0.21680213327E+04  0.21685983786E+04  0.00000000000E+00 0. -1.
         22    1    3    3    0    0  0.14037470297E+03 -0.76651610498E+02  0.76578456782E+03  0.78230846279E+03  0.00000000000E+00 0. -1.
         22    1    3    3    0    0  0.32834560046E+00 -0.82293290205E+02  0.26385999157E+03  0.27639534832E+03  0.00000000000E+00 0. -1.
</event>
<event>
 7    1  0.5064652E-006  0.5041645E+02  0.7818608E-02  0.1516266E+00
          2   -1    0    0  502    0  0.00000000000E+00  0.00000000000E+00  0.27943120511E+03  0.27943120511E+03  0.00000000000E+00 0. -1.
          1   -1    0    0  501    0 -0.00000000000E+00 -0.00000000000E+00 -0.77678190642E+02  0.77678190642E+02  0.00000000000E+00 0. -1.
         25    2    1    2    0    0  0.12151651043E+02  0.18386159700E+02  0.19244260990E+03  0.23053236273E+03  0.12500119468E+03 0.  0.
          2    1    1    2  501    0 -0.27770559989E+02 -0.44063466346E+02 -0.42136538295E+02  0.66994633576E+02  0.00000000000E+00 0. -1.
          1    1    1    2  502    0  0.15618908946E+02  0.25677306646E+02  0.51446942861E+02  0.59582399439E+02  0.00000000000E+00 0. -1.
         22    1    3    3    0    0  0.44170484929E+02  0.31582686109E+02  0.18791853195E+03  0.19560642232E+03  0.00000000000E+00 0. -1.
         22    1    3    3    0    0 -0.32018833886E+02 -0.13196526409E+02  0.45240779473E+01  0.34925940416E+02  0.00000000000E+00 0. -1.
</event>
<event>
 7    1  0.5064652E-006  0.3245978E+02  0.7818608E-02  0.1623278E+00
          2   -1    0    0  502    0  0.00000000000E+00  0.00000000000E+00  0.70042855042E+03  0.70042855042E+03  0.00000000000E+00 0. -1.
          1   -1    0    0  501    0 -0.00000000000E+00 -0.00000000000E+00 -0.81814292492E+03  0.81814292492E+03  0.00000000000E+00 0. -1.
         25    2    1    2    0    0 -0.76525715514E+01  0.50674170868E+01 -0.58709521318E+03  0.60032549726E+03  0.12500269098E+03 0.  0.
          2    1    1    2  501    0 -0.12812412842E+02  0.20147809814E+02 -0.22341609598E+03  0.22468832659E+03  0.00000000000E+00 0. -1.
          1    1    1    2  502    0  0.20464984393E+02 -0.25215226901E+02  0.69279693466E+03  0.69355765149E+03  0.00000000000E+00 0. -1.
         22    1    3    3    0    0  0.32871874149E+02 -0.44842483971E+02 -0.18675311315E+03  0.19485413455E+03  0.00000000000E+00 0.  1.
         22    1    3    3    0    0 -0.40524445700E+02  0.49909901058E+02 -0.40034210003E+03  0.40547136271E+03  0.00000000000E+00 0.  1.
</event>
<event>
 7    1  0.5064652E-006  0.9563593E+02  0.7818608E-02  0.1303218E+00
          2   -1    0    0  502    0  0.00000000000E+00  0.00000000000E+00  0.67545464510E+03  0.67545464510E+03  0.00000000000E+00 0. -1.
          1   -1    0    0  501    0 -0.00000000000E+00 -0.00000000000E+00 -0.39566846084E+03  0.39566846084E+03  0.00000000000E+00 0. -1.
         25    2    1    2    0    0 -0.10229281681E+02 -0.51587685241E+02  0.18663900866E+02  0.13688951767E+03  0.12499788551E+03 0.  0.
          2    1    1    2  501    0 -0.83137290855E+02  0.14616092462E+02 -0.32693868885E+03  0.33766010359E+03  0.00000000000E+00 0. -1.
          1    1    1    2  502    0  0.93366572536E+02  0.36971592779E+02  0.58806097225E+03  0.59657348468E+03  0.00000000000E+00 0. -1.
         22    1    3    3    0    0  0.15008191213E+01 -0.52791981702E+02  0.68036093130E+02  0.86128716224E+02  0.00000000000E+00 0. -1.
         22    1    3    3    0    0 -0.11730100802E+02  0.12042964601E+01 -0.49372192264E+02  0.50760801449E+02  0.00000000000E+00 0. -1.
</event>
<event>
 7    1  0.5064652E-006  0.9846605E+02  0.7818608E-02  0.1305123E+00
          2   -1    0    0  502    0  0.00000000000E+00  0.00000000000E+00  0.31418249390E+03  0.31418249390E+03  0.00000000000E+00 0. -1.
          1   -1    0    0  501    0 -0.00000000000E+00 -0.00000000000E+00 -0.40625930100E+03  0.40625930100E+03  0.00000000000E+00 0. -1.
         25    2    1    2    0    0  0.28597000998E+02  0.17002475634E+03 -0.27579632132E+03  0.34844651150E+03  0.12500061715E+03 0.  0.
          2    1    1    2  501    0 -0.32619409157E+02 -0.73669044586E+02 -0.66096331718E+02  0.10421074345E+03  0.00000000000E+00 0. -1.
          1    1    1    2  502    0  0.40224081587E+01 -0.96355711753E+02  0.24981584594E+03  0.26778453995E+03  0.00000000000E+00 0. -1.
         22    1    3    3    0    0  0.47975428289E+02  0.10589227711E+03 -0.25169722910E+03  0.27724774337E+03  0.00000000000E+00 0. -1.
         22    1    3    3    0    0 -0.19378427291E+02  0.64132479232E+02 -0.24099092224E+02  0.71198768126E+02  0.00000000000E+00 0. -1.
</event>
<event>
 7    1  0.5064652E-006  0.1310074E+03  0.7818608E-02  0.1238836E+00
          2   -1    0    0  502    0  0.00000000000E+00  0.00000000000E+00  0.21786188717E+04  0.21786188717E+04  0.00000000000E+00 0. -1.
          1   -1    0    0  501    0 -0.00000000000E+00 -0.00000000000E+00 -0.87806411261E+03  0.87806411261E+03  0.00000000000E+00 0. -1.
         25    2    1    2    0    0  0.58056120713E+02 -0.63764797004E+02  0.16462868061E+03  0.22397341321E+03  0.12500009942E+03 0.  0.
          2    1    1    2  501    0 -0.13097216075E+03 -0.24865313392E+02 -0.84148057222E+03  0.85197508421E+03  0.00000000000E+00 0. -1.
          1    1    1    2  502    0  0.72916040040E+02  0.88630110396E+02  0.19774066507E+04  0.19807344869E+04  0.00000000000E+00 0. -1.
         22    1    3    3    0    0  0.87621836985E+02 -0.49226488059E+02  0.16235916105E+03  0.19094850254E+03  0.00000000000E+00 0.  1.
         22    1    3    3    0    0 -0.29565716272E+02 -0.14538308945E+02  0.22695195552E+01  0.33024910669E+02  0.00000000000E+00 0.  1.
</event>
<event>
 7    1  0.5064652E-006  0.3827029E+02  0.7818608E-02  0.1588608E+00
          2   -1    0    0  502    0  0.00000000000E+00  0.00000000000E+00  0.67000475872E+02  0.67000475872E+02  0.00000000000E+00 0. -1.
          1   -1    0    0  501    0 -0.00000000000E+00 -0.00000000000E+00 -0.13323592876E+04  0.13323592876E+04  0.00000000000E+00 0. -1.
         25    2    1    2    0    0  0.11060723234E+02 -0.24732589659E+02 -0.31924833438E+03  0.34391153683E+03  0.12498642155E+03 0.  0.
          2    1    1    2  501    0 -0.21583064246E+02 -0.12436229520E+02 -0.99377975031E+03  0.99409188740E+03  0.00000000000E+00 0. -1.
          1    1    1    2  502    0  0.10522341012E+02  0.37168819179E+02  0.47669272964E+02  0.61356339237E+02  0.00000000000E+00 0. -1.
         22    1    3    3    0    0 -0.29842679084E+01 -0.76664126508E+01  0.10547189304E+02  0.13376207986E+02  0.00000000000E+00 0. -1.
         22    1    3    3    0    0  0.14044991142E+02 -0.17066177008E+02 -0.32979552368E+03  0.33053532884E+03  0.00000000000E+00 0. -1.
</event>
<event>
 7    1  0.5064652E-006  0.6516288E+03  0.7818608E-02  0.1218103E+00
          2   -1    0    0  502    0  0.00000000000E+00  0.00000000000E+00  0.16321737046E+04  0.16321737046E+04  0.00000000000E+00 0. -1.
          1   -1    0    0  501    0 -0.00000000000E+00 -0.00000000000E+00 -0.53917740575E+03  0.53917740575E+03  0.00000000000E+00 0. -1.
         25    2    1    2    0    0  0.83806163191E+02  0.64246190401E+03  0.42791885783E+03  0.78646095741E+03  0.12500207021E+03 0.  0.
          2    1    1    2  501    0 -0.27113131486E+02  0.90943094755E+01 -0.25469622487E+03  0.25629669395E+03  0.00000000000E+00 0. -1.
          1    1    1    2  502    0 -0.56693031706E+02 -0.65155621349E+03  0.91977366585E+03  0.11285934589E+04  0.00000000000E+00 0. -1.
         22    1    3    3    0    0 -0.14715434815E+02  0.30002366608E+03  0.15772830651E+03  0.33927711815E+03  0.00000000000E+00 0.  1.
         22    1    3    3    0    0  0.98521598007E+02  0.34243823793E+03  0.27019055132E+03  0.44718383926E+03  0.00000000000E+00 0.  1.
</event>
<event>
 7    1  0.5064652E-006  0.6078232E+02  0.7818608E-02  0.1398595E+00
          2   -1    0    0  502    0  0.00000000000E+00  0.00000000000E+00  0.15883606980E+03  0.15883606980E+03  0.00000000000E+00 0. -1.
          1   -1    0    0  501    0 -0.00000000000E+00 -0.00000000000E+00 -0.99229443103E+03  0.99229443103E+03  0.00000000000E+00 0. -1.
         25    2    1    2    0    0 -0.36193555490E+02 -0.76483046096E+02  0.21756803564E+02  0.15248887237E+03  0.12497946990E+03 0.  0.
          2    1    1    2  501    0  0.55446336650E+02  0.19782940796E+02 -0.91331365235E+03  0.91520898628E+03  0.00000000000E+00 0. -1.
          1    1    1    2  502    0 -0.19252781161E+02  0.56700105300E+02  0.58098487566E+02  0.83432642179E+02  0.00000000000E+00 0. -1.
         22    1    3    3    0    0 -0.37574405345E+02 -0.12617857033E+02  0.64444811778E+02  0.75658310966E+02  0.00000000000E+00 0.  1.
         22    1    3    3    0    0  0.13808498551E+01 -0.63865189063E+02 -0.42688008214E+02  0.76830561404E+02  0.00000000000E+00 0.  1.
</event>
<event>
 7    1  0.5064652E-006  0.3749347E+02  0.7818608E-02  0.1622918E+00
          2   -1    0    0  502    0  0.00000000000E+00  0.00000000000E+00  0.82873262589E+03  0.82873262589E+03  0.00000000000E+00 0. -1.
          1   -1    0    0  501    0 -0.00000000000E+00 -0.00000000000E+00 -0.45799093651E+03  0.45799093651E+03  0.00000000000E+00 0. -1.
         25    2    1    2    0    0  0.14116012120E+02  0.25410572713E+02 -0.30425421236E+03  0.33021527626E+03  0.12500617556E+03 0.  0.
          2    1    1    2  501    0 -0.16885851937E+02  0.11998440652E+02 -0.13956008988E+03  0.14108902601E+03  0.00000000000E+00 0. -1.
          1    1    1    2  502    0  0.27698398174E+01 -0.37409013366E+02  0.81455599163E+03  0.81541926013E+03  0.00000000000E+00 0. -1.
         22    1    3    3    0    0 -0.34603217585E+02  0.41868482768E+02 -0.24849981406E+03  0.25436688091E+03  0.00000000000E+00 0. -1.
         22    1    3    3    0    0  0.48719229705E+02 -0.16457910055E+02 -0.55754398309E+02  0.75848395350E+02  0.00000000000E+00 0. -1.
</event>
<event>
 7    1  0.5064652E-006  0.4849979E+02  0.7818608E-02  0.1474196E+00
          2   -1    0    0  502    0  0.00000000000E+00  0.00000000000E+00  0.69930144927E+03  0.69930144927E+03  0.00000000000E+00 0. -1.
          1   -1    0    0  501    0 -0.00000000000E+00 -0.00000000000E+00 -0.43278564902E+02  0.43278564902E+02  0.00000000000E+00 0. -1.
         25    2    1    2    0    0  0.48222026096E+00 -0.22473451317E+02  0.47093816178E+03  0.48776155907E+03  0.12499319076E+03 0.  0.
          2    1    1    2  501    0  0.86786416731E+01 -0.40885203492E+02 -0.15259625553E+02  0.44494661005E+02  0.00000000000E+00 0. -1.
          1    1    1    2  502    0 -0.91608619341E+01  0.63358654810E+02  0.20034434815E+03  0.21032379410E+03  0.00000000000E+00 0. -1.
         22    1    3    3    0    0  0.33135458249E+02 -0.30725745324E+02  0.58355311771E+02  0.73806317012E+02  0.00000000000E+00 0. -1.
         22    1    3    3    0    0 -0.32653237988E+02  0.82522940064E+01  0.41258285001E+03  0.41395524206E+03  0.00000000000E+00 0. -1.
</event>
<event>
 7    1  0.5064652E-006  0.9620623E+02  0.7818608E-02  0.1387882E+00
          2   -1    0    0  502    0  0.00000000000E+00  0.00000000000E+00  0.98790037414E+02  0.98790037414E+02  0.00000000000E+00 0. -1.
          1   -1    0    0  501    0 -0.00000000000E+00 -0.00000000000E+00 -0.31115040232E+04  0.31115040232E+04  0.00000000000E+00 0. -1.
         25    2    1    2    0    0  0.23591462038E+02  0.57119976658E+02 -0.69399802579E+02  0.15575939675E+03  0.12500163304E+03 0.  0.
          2    1    1    2  501    0 -0.12419508703E+02 -0.96069848123E+02 -0.29906533273E+04  0.29922217471E+04  0.00000000000E+00 0. -1.
          1    1    1    2  502    0 -0.11171953335E+02  0.38949871465E+02  0.47339144094E+02  0.62312916734E+02  0.00000000000E+00 0. -1.
         22    1    3    3    0    0 -0.75940047430E+00  0.71546046320E+02  0.92746827089E+01  0.72148687947E+02  0.00000000000E+00 0.  1.
         22    1    3    3    0    0  0.24350862512E+02 -0.14426069662E+02 -0.78674485288E+02  0.83610708802E+02  0.00000000000E+00 0.  1.
</event>
<event>
 7    1  0.5064652E-006  0.7069741E+02  0.7818608E-02  0.1496292E+00
          2   -1    0    0  502    0  0.00000000000E+00  0.00000000000E+00  0.38612454943E+03  0.38612454943E+03  0.00000000000E+00 0. -1.
          1   -1    0    0  501    0 -0.00000000000E+00 -0.00000000000E+00 -0.13379502985E+03  0.13379502985E+03  0.00000000000E+00 0. -1.
         25    2    1    2    0    0 -0.10231037366E+02  0.82471535301E+02 -0.22602744069E+02  0.15179630657E+03  0.12500002555E+03 0.  0.
          2    1    1    2  501    0  0.20834479681E+02 -0.12998980957E+02 -0.39183042243E+02  0.46242403148E+02  0.00000000000E+00 0. -1.
          1    1    1    2  502    0 -0.10603442315E+02 -0.69472554344E+02  0.31411530589E+03  0.32188086956E+03  0.00000000000E+00 0. -1.
         22    1    3    3    0    0  0.41317388569E+02  0.34153101673E+01 -0.37918994513E+02  0.56183993153E+02  0.00000000000E+00 0.  1.
         22    1    3    3    0    0 -0.51548425935E+02  0.79056225134E+02  0.15316250444E+02  0.95612313415E+02  0.00000000000E+00 0.  1.
</event>
<event>
 7    1  0.5064652E-006  0.3843015E+02  0.7818608E-02  0.1550676E+00
          2   -1    0    0  502    0  0.00000000000E+00  0.00000000000E+00  0.59049112717E+03  0.59049112717E+03  0.00000000000E+00 0. -1.
          1   -1    0    0  501    0 -0.00000000000E+00 -0.00000000000E+00 -0.25358722036E+03  0.25358722036E+03  0.00000000000E+00 0. -1.
         25    2    1    2    0    0  0.50222258788E+01  0.72454559707E+01 -0.58055621223E+02  0.13810411096E+03  0.12499828368E+03 0.  0.
          2    1    1    2  501    0 -0.27574178131E+01  0.31332579912E+02 -0.15322965904E+03  0.15642462187E+03  0.00000000000E+00 0. -1.
          1    1    1    2  502    0 -0.22648080657E+01 -0.38578035882E+02  0.54818918707E+03  0.54954961471E+03  0.00000000000E+00 0. -1.
         22    1    3    3    0    0  0.10281766160E+02 -0.57003409875E+02 -0.12743892931E+02  0.59308601904E+02  0.00000000000E+00 0. -1.
         22    1    3    3    0    0 -0.52595402815E+01  0.64248865845E+02 -0.45311728292E+02  0.78795509055E+02  0.00000000000E+00 0. -1.
</event>
<event>
 7    1  0.5064652E-006  0.1624531E+03  0.7818608E-02  0.1269377E+00
          2   -1    0    0  502    0  0.00000000000E+00  0.00000000000E+00  0.83158657946E+03  0.83158657946E+03  0.00000000000E+00 0. -1.
          1   -1    0    0  501    0 -0.00000000000E+00 -0.00000000000E+00 -0.62549374107E+03  0.62549374107E+03  0.00000000000E+00 0. -1.
         25    2    1    2    0    0 -0.27814392124E-01 -0.15770596532E+03 -0.23996444801E+03  0.31317833865E+03  0.12500625273E+03 0.  0.
          2    1    1    2  501    0 -0.68301541307E+02  0.15583794227E+03 -0.32658053134E+03  0.36824639611E+03  0.00000000000E+00 0. -1.
          1    1    1    2  502    0  0.68329355699E+02  0.18680230553E+01  0.77263781773E+03  0.77565558578E+03  0.00000000000E+00 0. -1.
         22    1    3    3    0    0 -0.58302604814E+02 -0.10984361796E+03 -0.16729077887E+03  0.20844907971E+03  0.00000000000E+00 0. -1.
         22    1    3    3    0    0  0.58274790422E+02 -0.47862347361E+02 -0.72673669131E+02  0.10472925894E+03  0.00000000000E+00 0. -1.
</event>
<event>
 7    1  0.5064652E-006  0.4466070E+02  0.7818608E-02  0.1543213E+00
          2   -1    0    0  502    0  0.00000000000E+00  0.00000000000E+00  0.11597981851E+04  0.11597981851E+04  0.00000000000E+00 0. -1.
          1   -1    0    0  501    0 -0.00000000000E+00 -0.00000000000E+00 -0.19207643912E+02  0.19207643912E+02  0.00000000000E+00 0. -1.
         25    2    1    2    0    0  0.39125410600E+02  0.55651188901E+02  0.39908351988E+03  0.42370073352E+03  0.12500721248E+03 0.  0.
          2    1    1    2  501    0 -0.24275305402E+02 -0.14740336549E+02  0.26088513902E+02  0.38563953785E+02  0.00000000000E+00 0. -1.
          1    1    1    2  502    0 -0.14850105198E+02 -0.40910852353E+02  0.71541850736E+03  0.71674114165E+03  0.00000000000E+00 0. -1.
         22    1    3    3    0    0 -0.65757969959E+01  0.14537264164E+01 -0.80188043678E+01  0.10471659377E+02  0.00000000000E+00 0. -1.
         22    1    3    3    0    0  0.45701207596E+02  0.54197462485E+02  0.40710232424E+03  0.41322907415E+03  0.00000000000E+00 0. -1.
</event>
<event>
 7    1  0.5064652E-006  0.1782689E+03  0.7818608E-02  0.1225692E+00
          2   -1    0    0  502    0  0.00000000000E+00  0.00000000000E+00  0.51324246972E+03  0.51324246972E+03  0.00000000000E+00 0. -1.
          1   -1    0    0  501    0 -0.00000000000E+00 -0.00000000000E+00 -0.14117896212E+04  0.14117896212E+04  0.00000000000E+00 0. -1.
         25    2    1    2    0    0  0.83389155093E+02 -0.39997659852E+02  0.53223801514E+02  0.16435706735E+03  0.12500763401E+03 0.  0.
          2    1    1    2  501    0 -0.14035488562E+03  0.11795443408E+03 -0.13441477349E+04  0.13565934821E+04  0.00000000000E+00 0. -1.
          1    1    1    2  502    0  0.56965730526E+02 -0.77956774232E+02  0.39237678195E+03  0.40408154142E+03  0.00000000000E+00 0. -1.
         22    1    3    3    0    0  0.10929581975E+03 -0.53171036205E+02  0.58384663487E+02  0.13483880835E+03  0.00000000000E+00 0.  1.
         22    1    3    3    0    0 -0.25906664658E+02  0.13173376353E+02 -0.51608619738E+01  0.29518259003E+02  0.00000000000E+00 0.  1.
</event>
<event>
 7    1  0.5064652E-006  0.1262006E+03  0.7818608E-02  0.1397626E+00
          2   -1    0    0  502    0  0.00000000000E+00  0.00000000000E+00  0.73431620715E+02  0.73431620715E+02  0.00000000000E+00 0. -1.
          1   -1    0    0  501    0 -0.00000000000E+00 -0.00000000000E+00 -0.11843284671E+04  0.11843284671E+04  0.00000000000E+00 0. -1.
         25    2    1    2    0    0  0.14764873893E+03  0.28757428154E+02 -0.39663763702E+03  0.44223673030E+03  0.12499908297E+03 0.  0.
          2    1    1    2  501    0 -0.28361839899E+02 -0.34646917417E+01 -0.69074782847E+03  0.69133852821E+03  0.00000000000E+00 0. -1.
          1    1    1    2  502    0 -0.11928689903E+03 -0.25292736412E+02 -0.23511380882E+02  0.12418482929E+03  0.00000000000E+00 0. -1.
         22    1    3    3    0    0  0.12961879632E+03 -0.30901184882E+02 -0.27185790328E+03  0.30275837753E+03  0.00000000000E+00 0. -1.
         22    1    3    3    0    0  0.18029942609E+02  0.59658613036E+02 -0.12477973373E+03  0.13947835277E+03  0.00000000000E+00 0. -1.
</event>
<event>
 7    1  0.5064652E-006  0.5114737E+03  0.7818608E-02  0.1177725E+00
          2   -1    0    0  502    0  0.00000000000E+00  0.00000000000E+00  0.13447115197E+04  0.13447115197E+04  0.00000000000E+00 0. -1.
          1   -1    0    0  501    0 -0.00000000000E+00 -0.00000000000E+00 -0.18989814619E+04  0.18989814619E+04  0.00000000000E+00 0. -1.
         25    2    1    2    0    0 -0.99991796897E+02 -0.44839255618E+03 -0.62974538595E+03  0.78946740031E+03  0.12500112455E+03 0.  0.
          2    1    1    2  501    0 -0.32741402691E+01 -0.56487062341E+02 -0.11361519538E+04  0.11375600074E+04  0.00000000000E+00 0. -1.
          1    1    1    2  502    0  0.10326593717E+03  0.50487961852E+03  0.12116273976E+04  0.13166655739E+04  0.00000000000E+00 0. -1.
         22    1    3    3    0    0 -0.53290549182E+02 -0.39336261727E+03 -0.47728468877E+03  0.62078555511E+03  0.00000000000E+00 0. -1.
         22    1    3    3    0    0 -0.46701247715E+02 -0.55029938910E+02 -0.15246069719E+03  0.16868184520E+03  0.00000000000E+00 0. -1.
</event>
<event>
 7    1  0.5064652E-006  0.1098726E+03  0.7818608E-02  0.1348660E+00
          2   -1    0    0  502    0  0.00000000000E+00  0.00000000000E+00  0.57104311438E+03  0.57104311438E+03  0.00000000000E+00 0. -1.
          1   -1    0    0  501    0 -0.00000000000E+00 -0.00000000000E+00 -0.25644405263E+03  0.25644405263E+03  0.00000000000E+00 0. -1.
         25    2    1    2    0    0  0.91403936449E+02 -0.11556270828E+03 -0.65042522565E+02  0.20387607901E+03  0.12500202681E+03 0.  0.
          2    1    1    2  501    0 -0.66894943890E+02  0.72977054137E+02 -0.10043653338E+03  0.14102510835E+03  0.00000000000E+00 0. -1.
          1    1    1    2  502    0 -0.24508992560E+02  0.42585654143E+02  0.48007811770E+03  0.48258597965E+03  0.00000000000E+00 0. -1.
         22    1    3    3    0    0  0.79713407519E+02 -0.12428620419E+03 -0.11182083703E+02  0.14807540946E+03  0.00000000000E+00 0.  1.
         22    1    3    3    0    0  0.11690528930E+02  0.87234959111E+01 -0.53860438862E+02  0.55800669548E+02  0.00000000000E+00 0.  1.
</event>
<event>
 7    1  0.5064652E-006  0.1164852E+03  0.7818608E-02  0.1309159E+00
          2   -1    0    0  502    0  0.00000000000E+00  0.00000000000E+00  0.19767535846E+04  0.19767535846E+04  0.00000000000E+00 0. -1.
          1   -1    0    0  501    0 -0.00000000000E+00 -0.00000000000E+00 -0.11022674273E+03  0.11022674273E+03  0.00000000000E+00 0. -1.
         25    2    1    2    0    0 -0.39385590444E+02 -0.38947284710E+02  0.11598418107E+03  0.17929599396E+03  0.12500642972E+03 0.  0.
          2    1    1    2  501    0 -0.35897242403E+02 -0.54960488523E+02 -0.62506864753E+02  0.90644224593E+02  0.00000000000E+00 0. -1.
          1    1    1    2  502    0  0.75282832848E+02  0.93907773233E+02  0.18130495255E+04  0.18170401088E+04  0.00000000000E+00 0. -1.
         22    1    3    3    0    0  0.31529139500E+02 -0.44674086757E+02  0.16739456892E+02  0.57184526598E+02  0.00000000000E+00 0. -1.
         22    1    3    3    0    0 -0.70914729944E+02  0.57268020471E+01  0.99244724179E+02  0.12211146737E+03  0.00000000000E+00 0. -1.
</event>
<event>
 7    1  0.5064652E-006  0.1127469E+03  0.7818608E-02  0.1381143E+00
          2   -1    0    0  502    0  0.00000000000E+00  0.00000000000E+00  0.33163327399E+03  0.33163327399E+03  0.00000000000E+00 0. -1.
          1   -1    0    0  501    0 -0.00000000000E+00 -0.00000000000E+00 -0.97928479685E+03  0.97928479685E+03  0.00000000000E+00 0. -1.
         25    2    1    2    0    0 -0.97644673149E+02 -0.10512487591E+03 -0.29191941024E+03  0.34846678757E+03  0.12500575280E+03 0.  0.
          2    1    1    2  501    0  0.78741294246E+02  0.73882561494E+02 -0.65354673398E+03  0.66240633890E+03  0.00000000000E+00 0. -1.
          1    1    1    2  502    0  0.18903378904E+02  0.31242314413E+02  0.29781462137E+03  0.30004494437E+03  0.00000000000E+00 0. -1.
         22    1    3    3    0    0 -0.10730445580E+03 -0.29929717965E+02 -0.20349122004E+03  0.23198860076E+03  0.00000000000E+00 0. -1.
         22    1    3    3    0    0  0.96597826468E+01 -0.75195157942E+02 -0.88428190206E+02  0.11647818681E+03  0.00000000000E+00 0. -1.
</event>
<event>
 7    1  0.5587393E-006  0.6602165E+02  0.7818608E-02  0.1406259E+00
          2   -1    0    0  502    0  0.00000000000E+00  0.00000000000E+00  0.24452852215E+04  0.24452852215E+04  0.00000000000E+00 0. -1.
          1   -1    0    0  501    0 -0.00000000000E+00 -0.00000000000E+00 -0.82240332303E+03  0.82240332303E+03  0.00000000000E+00 0. -1.
         25    2    1    2    0    0  0.43297118080E+02  0.11319375512E+02  0.57660910279E+02  0.14475137625E+03  0.12500164661E+03 0.  0.
          2    1    1    2  501    0  0.10801589481E+02 -0.49861482519E+02 -0.77755138487E+03  0.77922332992E+03  0.00000000000E+00 0. -1.
          1    1    1    2  502    0 -0.54098707561E+02  0.38542107007E+02  0.23427723730E+04  0.23437138383E+04  0.00000000000E+00 0. -1.
         22    1    3    3    0    0 -0.22324885957E+02 -0.42424548531E+02  0.21669079939E+02  0.52609807797E+02  0.00000000000E+00 0. -1.
         22    1    3    3    0    0  0.65622004037E+02  0.53743924043E+02  0.35991830340E+02  0.92141568451E+02  0.00000000000E+00 0. -1.
</event>
<event>
 7    1  0.5064652E-006  0.1418949E+03  0.7818608E-02  0.1228387E+00
          2   -1    0    0  502    0  0.00000000000E+00  0.00000000000E+00  0.13620617514E+03  0.13620617514E+03  0.00000000000E+00 0. -1.
          1   -1    0    0  501    0 -0.00000000000E+00 -0.00000000000E+00 -0.16972043151E+04  0.16972043151E+04  0.00000000000E+00 0. -1.
         25    2    1    2    0    0  0.14500333329E+03 -0.23835911587E+02 -0.47339433393E+03  0.51119644595E+03  0.12500197441E+03 0.  0.
          2    1    1    2  501    0 -0.83859157040E+02  0.12471046067E+03 -0.11691776167E+04  0.11787965713E+04  0.00000000000E+00 0. -1.
          1    1    1    2  502    0 -0.61144176255E+02 -0.10087454908E+03  0.81573810711E+02  0.14341747291E+03  0.00000000000E+00 0. -1.
         22    1    3    3    0    0  0.25278524301E+01 -0.18425941159E+02 -0.19929205751E+01  0.18705001415E+02  0.00000000000E+00 0. -1.
         22    1    3    3    0    0  0.14247548086E+03 -0.54099704275E+01 -0.47140141336E+03  0.49249144454E+03  0.00000000000E+00 0. -1.
</event>
<event>
 7    1  0.5064652E-006  0.1458572E+03  0.7818608E-02  0.1381006E+00
          2   -1    0    0  502    0  0.00000000000E+00  0.00000000000E+00  0.19457486984E+04  0.19457486984E+04  0.00000000000E+00 0. -1.
          1   -1    0    0  501    0 -0.00000000000E+00 -0.00000000000E+00 -0.14951702427E+03  0.14951702427E+03  0.00000000000E+00 0. -1.
         25    2    1    2    0    0  0.31341935055E+02 -0.14901241936E+03  0.96325701292E+03  0.98319751059E+03  0.12500501539E+03 0.  0.
          2    1    1    2  501    0 -0.55675889388E+02  0.13464665581E+03 -0.10124182896E+03  0.17742444733E+03  0.00000000000E+00 0. -1.
          1    1    1    2  502    0  0.24333954333E+02  0.14365763551E+02  0.93421649017E+03  0.93464376476E+03  0.00000000000E+00 0. -1.
         22    1    3    3    0    0 -0.38916679915E+02 -0.16233949625E+02  0.13514413193E+03  0.14156971954E+03  0.00000000000E+00 0. -1.
         22    1    3    3    0    0  0.70258614970E+02 -0.13277846973E+03  0.82811288099E+03  0.84162779105E+03  0.00000000000E+00 0. -1.
</event>
<event>
 7    1  0.5064652E-006  0.3904925E+02  0.7818608E-02  0.1543719E+00
          2   -1    0    0  502    0  0.00000000000E+00  0.00000000000E+00  0.21227135618E+04  0.21227135618E+04  0.00000000000E+00 0. -1.
          1   -1    0    0  501    0 -0.00000000000E+00 -0.00000000000E+00 -0.47941683070E+02  0.47941683070E+02  0.00000000000E+00 0. -1.
         25    2    1    2    0    0 -0.31293414379E+02 -0.10390115219E+02  0.51284789204E+03  0.52889042769E+03  0.12499956743E+03 0.  0.
          2    1    1    2  501    0 -0.16922504000E+01  0.32330752493E+02 -0.33069822456E+02  0.46279092747E+02  0.00000000000E+00 0. -1.
          1    1    1    2  502    0  0.32985664780E+02 -0.21940637274E+02  0.15949938091E+04  0.15954857244E+04  0.00000000000E+00 0. -1.
         22    1    3    3    0    0 -0.67011636809E+02 -0.29035039248E+02  0.19024504132E+03  0.20378117852E+03  0.00000000000E+00 0. -1.
         22    1    3    3    0    0  0.35718222429E+02  0.18644924030E+02  0.32260285071E+03  0.32510924917E+03  0.00000000000E+00 0. -1.
</event>
<event>
 7    1  0.5064652E-006  0.8478013E+02  0.7818608E-02  0.1401591E+00
          2   -1    0    0  502    0  0.00000000000E+00  0.00000000000E+00  0.69441193831E+03  0.69441193831E+03  0.00000000000E+00 0. -1.
          1   -1    0    0  501    0 -0.00000000000E+00 -0.00000000000E+00 -0.32313934258E+03  0.32313934258E+03  0.00000000000E+00 0. -1.
         25    2    1    2    0    0 -0.28178714434E+02 -0.79600360255E+02  0.65086462851E+02  0.16428829330E+03  0.12499655343E+03 0.  0.
          2    1    1    2  501    0  0.40931626102E+02 -0.48403636701E+01 -0.26881416103E+03  0.27195565871E+03  0.00000000000E+00 0. -1.
          1    1    1    2  502    0 -0.12752911668E+02  0.84440723926E+02  0.57500029391E+03  0.58130732888E+03  0.00000000000E+00 0. -1.
         22    1    3    3    0    0  0.29982827909E+02 -0.10268237846E+02 -0.22090768463E+02  0.38631706268E+02  0.00000000000E+00 0. -1.
         22    1    3    3    0    0 -0.58161542343E+02 -0.69332122410E+02  0.87177231313E+02  0.12565658703E+03  0.00000000000E+00 0. -1.
</event>
<event>
 7    1  0.5064652E-006  0.8220698E+02  0.7818608E-02  0.1339863E+00
          2   -1    0    0  502    0  0.00000000000E+00  0.00000000000E+00  0.23298231311E+03  0.23298231311E+03  0.00000000000E+00 0. -1.
          1   -1    0    0  501    0 -0.00000000000E+00 -0.00000000000E+00 -0.14320321091E+04  0.14320321091E+04  0.00000000000E+00 0. -1.
         25    2    1    2    0    0 -0.53773342752E+02 -0.69706288650E+02 -0.12293572387E+03  0.19618655465E+03  0.12500173180E+03 0.  0.
          2    1    1    2  501    0  0.82913238478E+02  0.51425963420E+01 -0.12646752260E+04  0.12674006780E+04  0.00000000000E+00 0. -1.
          1    1    1    2  502    0 -0.29139895726E+02  0.64563692308E+02  0.18856115394E+03  0.20142718948E+03  0.00000000000E+00 0. -1.
         22    1    3    3    0    0  0.25383038250E+02 -0.61516931818E+02 -0.27709306190E+02  0.72086317569E+02  0.00000000000E+00 0.  1.
         22    1    3    3    0    0 -0.79156381002E+02 -0.81893568319E+01 -0.95226417679E+02  0.12410023708E+03  0.00000000000E+00 0.  1.
</event>
<event>
 7    1  0.5064652E-006  0.1133121E+03  0.7818608E-02  0.1389846E+00
          2   -1    0    0  502    0  0.00000000000E+00  0.00000000000E+00  0.86759636412E+03  0.86759636412E+03  0.00000000000E+00 0. -1.
          1   -1    0    0  501    0 -0.00000000000E+00 -0.00000000000E+00 -0.42488427995E+03  0.42488427995E+03  0.00000000000E+00 0. -1.
         25    2    1    2    0    0  0.10710502228E+03 -0.96433982118E+02  0.55648989626E+03  0.58828145736E+03  0.12499227866E+03 0.  0.
          2    1    1    2  501    0 -0.75701297296E+02  0.83762412813E+02 -0.40018023799E+03  0.41580169683E+03  0.00000000000E+00 0. -1.
          1    1    1    2  502    0 -0.31403724986E+02  0.12671569305E+02  0.28640242590E+03  0.28839748989E+03  0.00000000000E+00 0. -1.
         22    1    3    3    0    0  0.85773069134E+02 -0.41222149332E+02  0.49045496345E+03  0.49960219791E+03  0.00000000000E+00 0. -1.
         22    1    3    3    0    0  0.21331953148E+02 -0.55211832787E+02  0.66034932811E+02  0.88679259447E+02  0.00000000000E+00 0. -1.
</event>
<event>
 7    1  0.5064652E-006  0.9052129E+02  0.7818608E-02  0.1319222E+00
          2   -1    0    0  502    0  0.00000000000E+00  0.00000000000E+00  0.10563147711E+03  0.10563147711E+03  0.00000000000E+00 0. -1.
          1   -1    0    0  501    0 -0.00000000000E+00 -0.00000000000E+00 -0.55758551444E+03  0.55758551444E+03  0.00000000000E+00 0. -1.
         25    2    1    2    0    0 -0.26774183830E+02 -0.14654949297E+03 -0.22308844943E+03  0.29595340929E+03  0.12500541345E+03 0.  0.
          2    1    1    2  501    0 -0.18999648662E+02  0.74771420622E+02 -0.26409370577E+03  0.27513130942E+03  0.00000000000E+00 0. -1.
          1    1    1    2  502    0  0.45773832492E+02  0.71778072343E+02  0.35228117877E+02  0.92132272844E+02  0.00000000000E+00 0. -1.
         22    1    3    3    0    0 -0.36908093653E+02 -0.11901297400E+03 -0.75970021641E+02  0.14593745080E+03  0.00000000000E+00 0. -1.
         22    1    3    3    0    0  0.10133909823E+02 -0.27536518962E+02 -0.14711842779E+03  0.15001595849E+03  0.00000000000E+00 0. -1.
</event>
<event>
 7    1  0.5064652E-006  0.8893275E+02  0.7818608E-02  0.1453443E+00
          2   -1    0    0  502    0  0.00000000000E+00  0.00000000000E+00  0.26028245194E+03  0.26028245194E+03  0.00000000000E+00 0. -1.
          1   -1    0    0  501    0 -0.00000000000E+00 -0.00000000000E+00 -0.85043591570E+03  0.85043591570E+03  0.00000000000E+00 0. -1.
         25    2    1    2    0    0 -0.48059807603E+01 -0.78878597861E+02 -0.13833430197E+03  0.20250023219E+03  0.12500013714E+03 0.  0.
          2    1    1    2  501    0  0.25114478425E+02 -0.83971321849E+01 -0.67095081454E+03  0.67147318963E+03  0.00000000000E+00 0. -1.
          1    1    1    2  502    0 -0.20308497665E+02  0.87275730046E+02  0.21913165275E+03  0.23674494582E+03  0.00000000000E+00 0. -1.
         22    1    3    3    0    0  0.16873238489E+02 -0.10116371197E+03 -0.13732024544E+03  0.17139326884E+03  0.00000000000E+00 0.  1.
         22    1    3    3    0    0 -0.21679219249E+02  0.22285114109E+02 -0.10140565261E+01  0.31106963348E+02  0.00000000000E+00 0.  1.
</event>
<event>
 7    1  0.5064652E-006  0.1725929E+03  0.7818608E-02  0.1283778E+00
          2   -1    0    0  502    0  0.00000000000E+00  0.00000000000E+00  0.19163292198E+04  0.19163292198E+04  0.00000000000E+00 0. -1.
          1   -1    0    0  501    0 -0.00000000000E+00 -0.00000000000E+00 -0.89685780209E+03  0.89685780209E+03  0.00000000000E+00 0. -1.
         25    2    1    2    0    0 -0.16655008072E+03 -0.40088025351E+02 -0.44966046421E+03  0.49715836708E+03  0.12500371883E+03 0.  0.
          2    1    1    2  501    0  0.15069055124E+03  0.93855440431E+02 -0.40440367729E+03  0.44165463898E+03  0.00000000000E+00 0. -1.
          1    1    1    2  502    0  0.15859529484E+02 -0.53767415080E+02  0.18735355592E+04  0.18743740158E+04  0.00000000000E+00 0. -1.
         22    1    3    3    0    0 -0.22971851722E+02  0.41088860373E+02 -0.10456133585E+03  0.11466940906E+03  0.00000000000E+00 0.  1.
         22    1    3    3    0    0 -0.14357822900E+03 -0.81176885724E+02 -0.34509912835E+03  0.38248895802E+03  0.00000000000E+00 0.  1.
</event>
<event>
 7    1  0.5064652E-006  0.6169815E+02  0.7818608E-02  0.1481478E+00
          2   -1    0    0  502    0  0.00000000000E+00  0.00000000000E+00  0.63191276764E+03  0.63191276764E+03  0.00000000000E+00 0. -1.
          1   -1    0    0  501    0 -0.00000000000E+00 -0.00000000000E+00 -0.40055823559E+03  0.40055823559E+03  0.00000000000E+00 0. -1.
         25    2    1    2    0    0 -0.92058589287E+02 -0.24349439844E+01  0.46773785616E+01  0.15533012010E+03  0.12499942211E+03 0.  0.
          2    1    1    2  501    0  0.31044499679E+02  0.31425384465E+01 -0.32279072011E+03  0.32429536768E+03  0.00000000000E+00 0. -1.
          1    1    1    2  502    0  0.61014089608E+02 -0.70759446212E+00  0.54946787360E+03  0.55284551544E+03  0.00000000000E+00 0. -1.
         22    1    3    3    0    0  0.40687732518E+01 -0.45219206522E+02  0.18853457755E+02  0.49160801698E+02  0.00000000000E+00 0. -1.
         22    1    3    3    0    0 -0.96127362538E+02  0.42784262538E+02 -0.14176079193E+02  0.10616931841E+03  0.00000000000E+00 0. -1.
</event>
<event>
 7    1  0.8867792E-006  0.9498522E+02  0.7818608E-02  0.1447253E+00
          2   -1    0    0  502    0  0.00000000000E+00  0.00000000000E+00  0.81430047348E+03  0.81430047348E+03  0.00000000000E+00 0. -1.
          1   -1    0    0  501    0 -0.00000000000E+00 -0.00000000000E+00 -0.17870832047E+04  0.17870832047E+04  0.00000000000E+00 0. -1.
         25    2    1    2    0    0 -0.10390754348E+03 -0.56111562241E+02 -0.12562883621E+04  0.12680016154E+04  0.12498945145E+03 0.  0.
          2    1    1    2  501    0  0.15901021168E+02  0.20507461406E+02 -0.52182760498E+03  0.52247243733E+03  0.00000000000E+00 0. -1.
          1    1    1    2  502    0  0.88006522311E+02  0.35604100835E+02  0.80533323582E+03  0.81090962547E+03  0.00000000000E+00 0. -1.
         22    1    3    3    0    0 -0.11993236869E+03 -0.21044951173E+02 -0.71094341334E+03  0.72129550116E+03  0.00000000000E+00 0. -1.
         22    1    3    3    0    0  0.16024825213E+02 -0.35066611068E+02 -0.54534494874E+03  0.54670611424E+03  0.00000000000E+00 0. -1.
</event>
<event>
 7    1  0.5064652E-006  0.9300339E+02  0.7818608E-02  0.1317562E+00
          2   -1    0    0  502    0  0.00000000000E+00  0.00000000000E+00  0.42103175168E+03  0.42103175168E+03  0.00000000000E+00 0. -1.
          1   -1    0    0  501    0 -0.00000000000E+00 -0.00000000000E+00 -0.89415704947E+02  0.89415704947E+02  0.00000000000E+00 0. -1.
         25    2    1    2    0    0  0.12251738639E+03  0.90215504069E+02  0.12791738785E+03  0.23481300337E+03  0.12499976517E+03 0.  0.
          2    1    1    2  501    0 -0.43852282465E+02 -0.62333539526E+02  0.28131843835E+02  0.81239728365E+02  0.00000000000E+00 0. -1.
          1    1    1    2  502    0 -0.78665103924E+02 -0.27881964543E+02  0.17556681504E+03  0.19439472489E+03  0.00000000000E+00 0. -1.
         22    1    3    3    0    0 -0.23635957781E+02  0.30767951944E+02  0.19943584063E+02  0.43624212455E+02  0.00000000000E+00 0.  1.
         22    1    3    3    0    0  0.14615334417E+03  0.59447552125E+02  0.10797380379E+03  0.19118879091E+03  0.00000000000E+00 0.  1.
</event>
<event>
 7    1  0.5064652E-006  0.7570330E+02  0.7818608E-02  0.1360589E+00
          2   -1    0    0  502    0  0.00000000000E+00  0.00000000000E+00  0.16227582051E+04  0.16227582051E+04  0.00000000000E+00 0. -1.
          1   -1    0    0  501    0 -0.00000000000E+00 -0.00000000000E+00 -0.32709606138E+02  0.32709606138E+02  0.00000000000E+00 0. -1.
         25    2    1    2    0    0 -0.23181989051E+02  0.42428547373E+02  0.18715119621E+03  0.23018693086E+03  0.12499146630E+03 0.  0.
          2    1    1    2  501    0 -0.37163519204E+02 -0.88138599962E+02  0.21915409959E+03  0.23911934119E+03  0.00000000000E+00 0. -1.
          1    1    1    2  502    0  0.60345508256E+02  0.45710052589E+02  0.11837433032E+04  0.11861615392E+04  0.00000000000E+00 0. -1.
         22    1    3    3    0    0  0.42539787063E+02 -0.11136537221E+02  0.96602618238E+02  0.10614010456E+03  0.00000000000E+00 0. -1.
         22    1    3    3    0    0 -0.65721776115E+02  0.53565084594E+02  0.90548577970E+02  0.12404682630E+03  0.00000000000E+00 0. -1.
</event>
<event>
 7    1  0.5064652E-006  0.1148971E+03  0.7818608E-02  0.1261905E+00
          2   -1    0    0  502    0  0.00000000000E+00  0.00000000000E+00  0.87204690073E+02  0.87204690073E+02  0.00000000000E+00 0. -1.
          1   -1    0    0  501    0 -0.00000000000E+00 -0.00000000000E+00 -0.48850539082E+03  0.48850539082E+03  0.00000000000E+00 0. -1.
         25    2    1    2    0    0 -0.20769901786E+02  0.25394116756E+02 -0.23540302301E+03  0.26854421790E+03  0.12500065494E+03 0.  0.
          2    1    1    2  501    0 -0.11381308024E+03 -0.15745338697E+02 -0.11609880830E+03  0.16334095081E+03  0.00000000000E+00 0. -1.
          1    1    1    2  502    0  0.13458298202E+03 -0.96487780595E+01 -0.49798869438E+02  0.14382491219E+03  0.00000000000E+00 0. -1.
         22    1    3    3    0    0  0.11330933922E+02 -0.35732023083E+02 -0.20293633400E+02  0.42626272341E+02  0.00000000000E+00 0. -1.
         22    1    3    3    0    0 -0.32100835707E+02  0.61126139839E+02 -0.21510938961E+03  0.22591794556E+03  0.00000000000E+00 0. -1.
</event>
<event>
 7    1  0.5064652E-006  0.1344218E+03  0.7818608E-02  0.1352138E+00
          2   -1    0    0  502    0  0.00000000000E+00  0.00000000000E+00  0.61617676223E+03  0.61617676223E+03  0.00000000000E+00 0. -1.
          1   -1    0    0  501    0 -0.00000000000E+00 -0.00000000000E+00 -0.51736858780E+03  0.51736858780E+03  0.00000000000E+00 0. -1.
         25    2    1    2    0    0  0.83229100716E+02  0.67074840894E+02  0.95514645515E+02  0.19019114710E+03  0.12499402961E+03 0.  0.
          2    1    1    2  501    0 -0.86033060896E+02 -0.10596167458E+03 -0.45928426060E+03  0.47913630219E+03  0.00000000000E+00 0. -1.
          1    1    1    2  502    0  0.28039601800E+01  0.38886833682E+02  0.46257778951E+03  0.46421790074E+03  0.00000000000E+00 0. -1.
         22    1    3    3    0    0  0.62343324054E+02 -0.25857148441E+02  0.53321006335E+02  0.86014021509E+02  0.00000000000E+00 0.  1.
         22    1    3    3    0    0  0.20885776662E+02  0.92931989335E+02  0.42193639180E+02  0.10417712559E+03  0.00000000000E+00 0.  1.
</event>
<event>
 7    1  0.5064652E-006  0.5017053E+02  0.7818608E-02  0.1448483E+00
          2   -1    0    0  502    0  0.00000000000E+00  0.00000000000E+00  0.10096296894E+04  0.10096296894E+04  0.00000000000E+00 0. -1.
          1   -1    0    0  501    0 -0.00000000000E+00 -0.00000000000E+00 -0.27182334722E+03  0.27182334722E+03  0.00000000000E+00 0. -1.
         25    2    1    2    0    0  0.66794013391E+02  0.33349920429E+02  0.19417705633E+03  0.24270022770E+03  0.12500005562E+03 0.  0.
          2    1    1    2  501    0 -0.47052094312E+02  0.12503758495E+02 -0.24437059795E+03  0.24917309786E+03  0.00000000000E+00 0. -1.
          1    1    1    2  502    0 -0.19741919079E+02 -0.45853678924E+02  0.78799988384E+03  0.78957971110E+03  0.00000000000E+00 0. -1.
         22    1    3    3    0    0 -0.12332082101E+02  0.40086780907E+02  0.11469475926E+02  0.43480790362E+02  0.00000000000E+00 0. -1.
         22    1    3    3    0    0  0.79126095492E+02 -0.67368604779E+01  0.18270758041E+03  0.19921943734E+03  0.00000000000E+00 0. -1.
</event>
<event>
 7    1  0.5064652E-006  0.9022408E+02  0.7818608E-02  0.1311273E+00
          2   -1    0    0  502    0  0.00000000000E+00  0.00000000000E+00  0.44593459481E+04  0.44593459481E+04  0.00000000000E+00 0. -1.
          1   -1    0    0  501    0 -0.00000000000E+00 -0.00000000000E+00 -0.30413657894E+02  0.30413657894E+02  0.00000000000E+00 0. -1.
         25    2    1    2    0    0 -0.30134552903E+02 -0.94195811699E+02  0.14609101759E+04  0.14695825491E+04  0.12503353348E+03 0.  0.
          2    1    1    2  501    0 -0.51043972092E+02  0.76231287941E+02  0.57084816189E+02  0.10805263804E+03  0.00000000000E+00 0. -1.
          1    1    1    2  502    0  0.81178524995E+02  0.17964523759E+02  0.29109372982E+04  0.29121244189E+04  0.00000000000E+00 0. -1.
         22    1    3    3    0    0  0.20033865622E+02  0.23807111153E+02  0.26735237037E+03  0.26915687667E+03  0.00000000000E+00 0. -1.
         22    1    3    3    0    0 -0.50168418525E+02 -0.11800292285E+03  0.11935578055E+04  0.12004256725E+04  0.00000000000E+00 0. -1.
</event>
<event>
 7    1  0.5064652E-006  0.1384315E+03  0.7818608E-02  0.1293082E+00
          2   -1    0    0  502    0  0.00000000000E+00  0.00000000000E+00  0.52215933732E+03  0.52215933732E+03  0.00000000000E+00 0. -1.
          1   -1    0    0  501    0 -0.00000000000E+00 -0.00000000000E+00 -0.15560577821E+04  0.15560577821E+04  0.00000000000E+00 0. -1.
         25    2    1    2    0    0  0.10282482289E+03  0.57524247401E+02 -0.37892004486E+03  0.41603825787E+03  0.12500179348E+03 0.  0.
          2    1    1    2  501    0  0.36335740232E+02 -0.52740078755E+02 -0.11480440498E+04  0.11498290927E+04  0.00000000000E+00 0. -1.
          1    1    1    2  502    0 -0.13916056312E+03 -0.47841686464E+01  0.49306564991E+03  0.51234976892E+03  0.00000000000E+00 0. -1.
         22    1    3    3    0    0  0.54418664873E+02  0.58600246257E+02 -0.79623755775E+02  0.11285088583E+03  0.00000000000E+00 0. -1.
         22    1    3    3    0    0  0.48406158018E+02 -0.10759988559E+01 -0.29929628908E+03  0.30318737204E+03  0.00000000000E+00 0. -1.
</event>
<event>
 7    1  0.5064652E-006  0.9006723E+02  0.7818608E-02  0.1340838E+00
          2   -1    0    0  502    0  0.00000000000E+00  0.00000000000E+00  0.64051111479E+02  0.64051111479E+02  0.00000000000E+00 0. -1.
          1   -1    0    0  501    0 -0.00000000000E+00 -0.00000000000E+00 -0.76535122109E+03  0.76535122109E+03  0.00000000000E+00 0. -1.
         25    2    1    2    0    0 -0.39977341562E+02  0.37973995360E+02 -0.14156273675E+03  0.19673596413E+03  0.12499927594E+03 0.  0.
          2    1    1    2  501    0  0.13077016116E+02 -0.96167354208E+02 -0.56020993724E+03  0.56855460789E+03  0.00000000000E+00 0. -1.
          1    1    1    2  502    0  0.26900325446E+02  0.58193358848E+02  0.47256438254E+00  0.64111760545E+02  0.00000000000E+00 0. -1.
         22    1    3    3    0    0 -0.11052652594E+01  0.74328852336E+02 -0.11579628791E+03  0.13760370705E+03  0.00000000000E+00 0.  1.
         22    1    3    3    0    0 -0.38872076302E+02 -0.36354856976E+02 -0.25766448840E+02  0.59132257082E+02  0.00000000000E+00 0.  1.
</event>
<event>
 7    1  0.5064652E-006  0.3717391E+02  0.7818608E-02  0.1611121E+00
          2   -1    0    0  502    0  0.00000000000E+00  0.00000000000E+00  0.18865223902E+04  0.18865223902E+04  0.00000000000E+00 0. -1.
          1   -1    0    0  501    0 -0.00000000000E+00 -0.00000000000E+00 -0.91982911680E+03  0.91982911680E+03  0.00000000000E+00 0. -1.
         25    2    1    2    0    0  0.59908400506E+01 -0.24061282739E+02  0.81030367844E+03  0.82026336469E+03  0.12500040264E+03 0.  0.
          2    1    1    2  501    0 -0.28385820159E+02  0.24015261945E+02 -0.91435434686E+03  0.91511002574E+03  0.00000000000E+00 0. -1.
          1    1    1    2  502    0  0.22394980108E+02  0.46020794334E-01  0.10707439418E+04  0.10709781166E+04  0.00000000000E+00 0. -1.
         22    1    3    3    0    0 -0.99217980834E+01 -0.65966816565E+02  0.66149193348E+03  0.66484708093E+03  0.00000000000E+00 0.  1.
         22    1    3    3    0    0  0.15912638134E+02  0.41905533825E+02  0.14881174496E+03  0.15541628376E+03  0.00000000000E+00 0.  1.
</event>
<event>
 7    1  0.5064652E-006  0.6938678E+02  0.7818608E-02  0.1480684E+00
          2   -1    0    0  502    0  0.00000000000E+00  0.00000000000E+00  0.77007582440E+03  0.77007582440E+03  0.00000000000E+00 0. -1.
          1   -1    0    0  501    0 -0.00000000000E+00 -0.00000000000E+00 -0.11164398936E+04  0.11164398936E+04  0.00000000000E+00 0. -1.
         25    2    1    2    0    0  0.51362304066E+02  0.78873953255E+02 -0.16320801778E+03  0.22609845896E+03  0.12499787716E+03 0.  0.
          2    1    1    2  501    0 -0.29256067064E+02 -0.61850407660E+02 -0.92025269658E+03  0.92279272643E+03  0.00000000000E+00 0. -1.
          1    1    1    2  502    0 -0.22106237002E+02 -0.17023545595E+02  0.73709664516E+03  0.73762453262E+03  0.00000000000E+00 0. -1.
         22    1    3    3    0    0 -0.11230715179E+02  0.91620915897E+02 -0.10314578982E+03  0.13841811714E+03  0.00000000000E+00 0. -1.
         22    1    3    3    0    0  0.62593019244E+02 -0.12746962642E+02 -0.60062227956E+02  0.87680341820E+02  0.00000000000E+00 0. -1.
</event>
<event>
 7    1  0.5064652E-006  0.1929102E+03  0.7818608E-02  0.1208627E+00
          2   -1    0    0  502    0  0.00000000000E+00  0.00000000000E+00  0.18813903507E+04  0.18813903507E+04  0.00000000000E+00 0. -1.
          1   -1    0    0  501    0 -0.00000000000E+00 -0.00000000000E+00 -0.47765242085E+03  0.47765242085E+03  0.00000000000E+00 0. -1.
         25    2    1    2    0    0  0.87160072413E+02  0.25644772925E+02  0.43903805956E+03  0.46544002577E+03  0.12500186897E+03 0.  0.
          2    1    1    2  501    0 -0.18961244329E+03 -0.55888794304E+02 -0.44129953190E+03  0.48355114811E+03  0.00000000000E+00 0. -1.
          1    1    1    2  502    0  0.10245237088E+03  0.30244021379E+02  0.14059994022E+04  0.14100515977E+04  0.00000000000E+00 0. -1.
         22    1    3    3    0    0  0.57925042332E+02  0.76449413967E+02  0.27218586736E+03  0.28859135436E+03  0.00000000000E+00 0.  1.
         22    1    3    3    0    0  0.29235030081E+02 -0.50804641042E+02  0.16685219221E+03  0.17684867141E+03  0.00000000000E+00 0.  1.
</event>
<event>
 7    1  0.5064652E-006  0.7589905E+02  0.7818608E-02  0.1463639E+00
          2   -1    0    0  502    0  0.00000000000E+00  0.00000000000E+00  0.10759663528E+04  0.10759663528E+04  0.00000000000E+00 0. -1.
          1   -1    0    0  501    0 -0.00000000000E+00 -0.00000000000E+00 -0.25072412485E+03  0.25072412485E+03  0.00000000000E+00 0. -1.
         25    2    1    2    0    0  0.35812367462E+02 -0.92231625077E+02  0.72306083008E+03  0.74042591025E+03  0.12499746499E+03 0.  0.
          2    1    1    2  501    0 -0.40725168294E+02  0.63844465615E+02 -0.23548995998E+03  0.24736648191E+03  0.00000000000E+00 0. -1.
          1    1    1    2  502    0  0.49128008319E+01  0.28387159462E+02  0.33767135781E+03  0.33889808544E+03  0.00000000000E+00 0. -1.
         22    1    3    3    0    0  0.51683779736E+02 -0.11661043156E+03  0.52684119970E+03  0.54206167134E+03  0.00000000000E+00 0.  1.
         22    1    3    3    0    0 -0.15871412273E+02  0.24378806483E+02  0.19621963038E+03  0.19836423891E+03  0.00000000000E+00 0.  1.
</event>
<event>
 7    1  0.5064652E-006  0.5551377E+02  0.7818608E-02  0.1469502E+00
          2   -1    0    0  502    0  0.00000000000E+00  0.00000000000E+00  0.66130734123E+03  0.66130734123E+03  0.00000000000E+00 0. -1.
          1   -1    0    0  501    0 -0.00000000000E+00 -0.00000000000E+00 -0.68981780819E+02  0.68981780819E+02  0.00000000000E+00 0. -1.
         25    2    1    2    0    0 -0.63548987762E+02 -0.58677825289E+02  0.36962829922E+03  0.39966595568E+03  0.12500494196E+03 0.  0.
          2    1    1    2  501    0  0.20554646097E+02  0.31675877059E+02 -0.44662356331E+02  0.58485731052E+02  0.00000000000E+00 0. -1.
          1    1    1    2  502    0  0.42994341665E+02  0.27001948230E+02  0.26735961752E+03  0.27213743533E+03  0.00000000000E+00 0. -1.
         22    1    3    3    0    0 -0.89136922543E+02 -0.79007997703E+02  0.29857218048E+03  0.32145450941E+03  0.00000000000E+00 0. -1.
         22    1    3    3    0    0  0.25587934781E+02  0.20330172415E+02  0.71056118743E+02  0.78211446270E+02  0.00000000000E+00 0. -1.
</event>
<event>
 7    1  0.5064652E-006  0.5095112E+02  0.7818608E-02  0.1538958E+00
          2   -1    0    0  502    0  0.00000000000E+00  0.00000000000E+00  0.13156499413E+04  0.13156499413E+04  0.00000000000E+00 0. -1.
          1   -1    0    0  501    0 -0.00000000000E+00 -0.00000000000E+00 -0.14758026861E+03  0.14758026861E+03  0.00000000000E+00 0. -1.
         25    2    1    2    0    0  0.68298806938E+02  0.29240650686E+02  0.51608252194E+03  0.53617731826E+03  0.12500081792E+03 0.  0.
          2    1    1    2  501    0 -0.24816820096E+02 -0.62505549362E+01 -0.13556846220E+03  0.13796286435E+03  0.00000000000E+00 0. -1.
          1    1    1    2  502    0 -0.43481986843E+02 -0.22990095750E+02  0.78755561299E+03  0.78909002733E+03  0.00000000000E+00 0. -1.
         22    1    3    3    0    0  0.24333909547E+02  0.60439803321E+02  0.42782146008E+03  0.43275433064E+03  0.00000000000E+00 0.  1.
         22    1    3    3    0    0  0.43964897392E+02 -0.31199152634E+02  0.88261061855E+02  0.10342298762E+03  0.00000000000E+00 0.  1.
</event>
<event>
 7    1  0.5064652E-006  0.1115160E+03  0.7818608E-02  0.1325324E+00
          2   -1    0    0  502    0  0.00000000000E+00  0.00000000000E+00  0.17952267470E+04  0.17952267470E+04  0.00000000000E+00 0. -1.
          1   -1    0    0  501    0 -0.00000000000E+00 -0.00000000000E+00 -0.24206983174E+03  0.24206983174E+03  0.00000000000E+00 0. -1.
         25    2    1    2    0    0  0.45589834575E+02  0.46132133839E+02 -0.38511217151E+00  0.14082621235E+03  0.12500106793E+03 0.  0.
          2    1    1    2  501    0  0.59170623103E+02 -0.40980163827E+01 -0.16442669684E+03  0.17479729692E+03  0.00000000000E+00 0. -1.
          1    1    1    2  502    0 -0.10476045768E+03 -0.42034117456E+02  0.17179687243E+04  0.17216730695E+04  0.00000000000E+00 0. -1.
         22    1    3    3    0    0  0.13518400503E+01  0.26921657799E+02  0.58678051337E+02  0.64573344647E+02  0.00000000000E+00 0. -1.
         22    1    3    3    0    0  0.44237994525E+02  0.19210476040E+02 -0.59063163509E+02  0.76252867703E+02  0.00000000000E+00 0. -1.
</event>
<event>
 7    1  0.5064652E-006  0.7192063E+02  0.7818608E-02  0.1472183E+00
          2   -1    0    0  502    0  0.00000000000E+00  0.00000000000E+00  0.45209383665E+03  0.45209383665E+03  0.00000000000E+00 0. -1.
          1   -1    0    0  501    0 -0.00000000000E+00 -0.00000000000E+00 -0.58515790142E+03  0.58515790142E+03  0.00000000000E+00 0. -1.
         25    2    1    2    0    0  0.18951073260E+02 -0.91775390547E+02  0.87211431552E+02  0.17892114355E+03  0.12500030531E+03 0.  0.
          2    1    1    2  501    0 -0.18792262390E+02  0.21549910170E+02 -0.53505210322E+03  0.53581554747E+03  0.00000000000E+00 0. -1.
          1    1    1    2  502    0 -0.15881087079E+00  0.70225480377E+02  0.31477660690E+03  0.32251504704E+03  0.00000000000E+00 0. -1.
         22    1    3    3    0    0  0.38632506519E+02  0.15765063711E+02  0.47753681171E+01  0.41997761064E+02  0.00000000000E+00 0.  1.
         22    1    3    3    0    0 -0.19681433258E+02 -0.10754045426E+03  0.82436063435E+02  0.13692338249E+03  0.00000000000E+00 0.  1.
</event>
<event>
 7    1  0.5064652E-006  0.4978054E+02  0.7818608E-02  0.1556040E+00
          2   -1    0    0  502    0  0.00000000000E+00  0.00000000000E+00  0.11443039391E+04  0.11443039391E+04  0.00000000000E+00 0. -1.
          1   -1    0    0  501    0 -0.00000000000E+00 -0.00000000000E+00 -0.21008525487E+02  0.21008525487E+02  0.00000000000E+00 0. -1.
         25    2    1    2    0    0 -0.32836971858E+01  0.29712168930E+02  0.42646596033E+03  0.44542546521E+03  0.12504812708E+03 0.  0.
          2    1    1    2  501    0  0.84011366211E+01  0.21907602139E+02  0.24702496872E+01  0.23592885824E+02  0.00000000000E+00 0. -1.
          1    1    1    2  502    0 -0.51174394353E+01 -0.51619771068E+02  0.69435920356E+03  0.69629411352E+03  0.00000000000E+00 0. -1.
         22    1    3    3    0    0 -0.63702221495E+02  0.18507020948E+02  0.24586874998E+03  0.25466041127E+03  0.00000000000E+00 0.  1.
         22    1    3    3    0    0  0.60418524309E+02  0.11205147982E+02  0.18059721035E+03  0.19076505395E+03  0.00000000000E+00 0.  1.
</event>
<event>
 7    1  0.5064652E-006  0.7803143E+02  0.7818608E-02  0.1357910E+00
          2   -1    0    0  502    0  0.00000000000E+00  0.00000000000E+00  0.14198518296E+03  0.14198518296E+03  0.00000000000E+00 0. -1.
          1   -1    0    0  501    0 -0.00000000000E+00 -0.00000000000E+00 -0.46121632348E+03  0.46121632348E+03  0.00000000000E+00 0. -1.
         25    2    1    2    0    0 -0.54946099082E+02  0.19045800880E+02  0.12779997769E+02  0.13846543383E+03  0.12501012634E+03 0.  0.
          2    1    1    2  501    0  0.70270156348E+01  0.63572348204E+02 -0.35966206458E+03  0.36530483586E+03  0.00000000000E+00 0. -1.
          1    1    1    2  502    0  0.47919083447E+02 -0.82618149084E+02  0.27650926290E+02  0.99431236747E+02  0.00000000000E+00 0. -1.
         22    1    3    3    0    0  0.31811774319E+02  0.34138907205E+02 -0.95208819081E+01  0.47624585697E+02  0.00000000000E+00 0.  1.
         22    1    3    3    0    0 -0.86757873401E+02 -0.15093106325E+02  0.22300879677E+02  0.90840848135E+02  0.00000000000E+00 0.  1.
</event>
<event>
 7    1  0.6897998E-006  0.8627094E+02  0.7818608E-02  0.1431748E+00
          2   -1    0    0  502    0  0.00000000000E+00  0.00000000000E+00  0.12190901249E+04  0.12190901249E+04  0.00000000000E+00 0. -1.
          1   -1    0    0  501    0 -0.00000000000E+00 -0.00000000000E+00 -0.15999509272E+04  0.15999509272E+04  0.00000000000E+00 0. -1.
         25    2    1    2    0    0  0.10040599247E+02  0.58915893316E+02 -0.49820636547E+03  0.51711379108E+03  0.12500077683E+03 0.  0.
          2    1    1    2  501    0 -0.11326084040E+02 -0.90973732384E+02 -0.10901537988E+04  0.10940017391E+04  0.00000000000E+00 0. -1.
          1    1    1    2  502    0  0.12854847922E+01  0.32057839069E+02  0.12074993620E+04  0.12079255220E+04  0.00000000000E+00 0. -1.
         22    1    3    3    0    0  0.19369722058E+02  0.61161084151E+02 -0.50251616342E+03  0.50659486658E+03  0.00000000000E+00 0.  1.
         22    1    3    3    0    0 -0.93291228103E+01 -0.22451908352E+01  0.43097979465E+01  0.10518924500E+02  0.00000000000E+00 0.  1.
</event>
<event>
 7    1  0.5064652E-006  0.7335780E+02  0.7818608E-02  0.1408210E+00
          2   -1    0    0  502    0  0.00000000000E+00  0.00000000000E+00  0.25857652080E+04  0.25857652080E+04  0.00000000000E+00 0. -1.
          1   -1    0    0  501    0 -0.00000000000E+00 -0.00000000000E+00 -0.43685148740E+02  0.43685148740E+02  0.00000000000E+00 0. -1.
         25    2    1    2    0    0 -0.19236395058E+02  0.34222851397E+02  0.22143540777E+03  0.25729396493E+03  0.12500120849E+03 0.  0.
          2    1    1    2  501    0  0.26465437138E+02 -0.78860846548E+02  0.42222480428E+02  0.93285531218E+02  0.00000000000E+00 0. -1.
          1    1    1    2  502    0 -0.72290420805E+01  0.44637995151E+02  0.22784221710E+04  0.22788708606E+04  0.00000000000E+00 0. -1.
         22    1    3    3    0    0  0.42522027941E+01  0.65371576571E+02  0.52610489833E+02  0.84020163607E+02  0.00000000000E+00 0.  1.
         22    1    3    3    0    0 -0.23488597852E+02 -0.31148725174E+02  0.16882491794E+03  0.17327380133E+03  0.00000000000E+00 0.  1.
</event>
<event>
 7    1  0.5064652E-006  0.1271639E+03  0.7818608E-02  0.1304922E+00
          2   -1    0    0  502    0  0.00000000000E+00  0.00000000000E+00  0.17627608310E+03  0.17627608310E+03  0.00000000000E+00 0. -1.
          1   -1    0    0  501    0 -0.00000000000E+00 -0.00000000000E+00 -0.59349963216E+03  0.59349963216E+03  0.00000000000E+00 0. -1.
         25    2    1    2    0    0 -0.98081586023E+02 -0.94890622789E+02 -0.15903508667E+03  0.24401048807E+03  0.12499892674E+03 0.  0.
          2    1    1    2  501    0  0.41282960330E+02  0.12097221754E+03 -0.37341119858E+03  0.39468276306E+03  0.00000000000E+00 0. -1.
          1    1    1    2  502    0  0.56798625693E+02 -0.26081594750E+02  0.11522273620E+03  0.13108246413E+03  0.00000000000E+00 0. -1.
         22    1    3    3    0    0  0.25791049336E+02 -0.20913173628E+01 -0.64518254786E+01  0.26667918669E+02  0.00000000000E+00 0.  1.
         22    1    3    3    0    0 -0.12387263536E+03 -0.92799305426E+02 -0.15258326119E+03  0.21734256940E+03  0.00000000000E+00 0.  1.
</event>
<event>
 7    1  0.5064652E-006  0.6075673E+03  0.7818608E-02  0.1209445E+00
          2   -1    0    0  502    0  0.00000000000E+00  0.00000000000E+00  0.21871559165E+04  0.21871559165E+04  0.00000000000E+00 0. -1.
          1   -1    0    0  501    0 -0.00000000000E+00 -0.00000000000E+00 -0.10663896407E+04  0.10663896407E+04  0.00000000000E+00 0. -1.
         25    2    1    2    0    0 -0.62541343173E+02  0.58052055011E+03 -0.38833550512E+02  0.59837190156E+03  0.12500143692E+03 0.  0.
          2    1    1    2  501    0 -0.22758046195E+02  0.24749298520E+02 -0.69840096930E+03  0.69920981855E+03  0.00000000000E+00 0. -1.
          1    1    1    2  502    0  0.85299389368E+02 -0.60526984863E+03  0.18580007957E+04  0.19559638371E+04  0.00000000000E+00 0. -1.
         22    1    3    3    0    0 -0.65212209479E+02  0.16518470414E+03 -0.44136653652E+02  0.18299361449E+03  0.00000000000E+00 0. -1.
         22    1    3    3    0    0  0.26708663055E+01  0.41533584596E+03  0.53031031407E+01  0.41537828707E+03  0.00000000000E+00 0. -1.
</event>
<event>
 7    1  0.5064652E-006  0.6594621E+02  0.7818608E-02  0.1385050E+00
          2   -1    0    0  502    0  0.00000000000E+00  0.00000000000E+00  0.25076246337E+03  0.25076246337E+03  0.00000000000E+00 0. -1.
          1   -1    0    0  501    0 -0.00000000000E+00 -0.00000000000E+00 -0.54856243547E+03  0.54856243547E+03  0.00000000000E+00 0. -1.
         25    2    1    2    0    0 -0.25307466837E+02 -0.77774080277E+01  0.97391032129E+02  0.16065794235E+03  0.12500002139E+03 0.  0.
          2    1    1    2  501    0 -0.60059748537E+02  0.71312090688E+01 -0.49991227545E+03  0.50355765378E+03  0.00000000000E+00 0. -1.
          1    1    1    2  502    0  0.85367215374E+02  0.64619895892E+00  0.10472127122E+03  0.13510930271E+03  0.00000000000E+00 0. -1.
         22    1    3    3    0    0 -0.70674430427E+02  0.19307317161E+02  0.43592959700E+02  0.85252529274E+02  0.00000000000E+00 0. -1.
         22    1    3    3    0    0  0.45366963591E+02 -0.27084725189E+02  0.53798072429E+02  0.75405413076E+02  0.00000000000E+00 0. -1.
</event>
<event>
 7    1  0.5064652E-006  0.1302837E+03  0.7818608E-02  0.1305989E+00
          2   -1    0    0  502    0  0.00000000000E+00  0.00000000000E+00  0.14231794895E+03  0.14231794895E+03  0.00000000000E+00 0. -1.
          1   -1    0    0  501    0 -0.00000000000E+00 -0.00000000000E+00 -0.11505437898E+04  0.11505437898E+04  0.00000000000E+00 0. -1.
         25    2    1    2    0    0 -0.74946168127E+02  0.29660565871E+02 -0.17755460379E+03  0.23161830138E+03  0.12499889170E+03 0.  0.
          2    1    1    2  501    0 -0.53626240484E+02  0.27817850824E+02 -0.90155418849E+03  0.90357598534E+03  0.00000000000E+00 0. -1.
          1    1    1    2  502    0  0.12857240861E+03 -0.57478416695E+02  0.70882951392E+02  0.15766745206E+03  0.00000000000E+00 0. -1.
         22    1    3    3    0    0 -0.70602024559E+02 -0.20103869837E+02 -0.16427324417E+03  0.17992918108E+03  0.00000000000E+00 0.  1.
         22    1    3    3    0    0 -0.43441435674E+01  0.49764435708E+02 -0.13281359619E+02  0.51689120306E+02  0.00000000000E+00 0.  1.
</event>
<event>
 7    1  0.5064652E-006  0.1120140E+03  0.7818608E-02  0.1260640E+00
          2   -1    0    0  502    0  0.00000000000E+00  0.00000000000E+00  0.41041466360E+03  0.41041466360E+03  0.00000000000E+00 0. -1.
          1   -1    0    0  501    0 -0.00000000000E+00 -0.00000000000E+00 -0.42670339711E+04  0.42670339711E+04  0.00000000000E+00 0. -1.
         25    2    1    2    0    0 -0.44382669071E+02 -0.88912732922E+01  0.70332926779E+02  0.15039604458E+03  0.12499349416E+03 0.  0.
          2    1    1    2  501    0 -0.67843423901E+02  0.89131407797E+02 -0.42103597346E+04  0.42118495026E+04  0.00000000000E+00 0. -1.
          1    1    1    2  502    0  0.11222609297E+03 -0.80240134505E+02  0.28340750032E+03  0.31520308750E+03  0.00000000000E+00 0. -1.
         22    1    3    3    0    0 -0.53693662063E+02  0.24218580505E+02  0.92366455892E+02  0.10954958312E+03  0.00000000000E+00 0.  1.
         22    1    3    3    0    0  0.93109929914E+01 -0.33109853797E+02 -0.22033529113E+02  0.40846461464E+02  0.00000000000E+00 0.  1.
</event>
<event>
 7    1  0.5064652E-006  0.8745864E+02  0.7818608E-02  0.1331924E+00
          2   -1    0    0  502    0  0.00000000000E+00  0.00000000000E+00  0.16965790314E+03  0.16965790314E+03  0.00000000000E+00 0. -1.
          1   -1    0    0  501    0 -0.00000000000E+00 -0.00000000000E+00 -0.14445806016E+04  0.14445806016E+04  0.00000000000E+00 0. -1.
         25    2    1    2    0    0  0.55613354762E+02 -0.96452630393E+02 -0.64012269335E+02  0.17921784653E+03  0.12500204299E+03 0.  0.
          2    1    1    2  501    0 -0.70573701772E+02  0.10515492934E+02 -0.13048658519E+04  0.13068152564E+04  0.00000000000E+00 0. -1.
          1    1    1    2  502    0  0.14960347009E+02  0.85937137458E+02  0.93955422777E+02  0.12820540178E+03  0.00000000000E+00 0. -1.
         22    1    3    3    0    0 -0.11409342857E+00  0.20472421943E+02 -0.43500981211E+02  0.48077733348E+02  0.00000000000E+00 0. -1.
         22    1    3    3    0    0  0.55727448191E+02 -0.11692505234E+03 -0.20511288124E+02  0.13114011318E+03  0.00000000000E+00 0. -1.
</event>
<event>
 7    1  0.5064652E-006  0.6663267E+02  0.7818608E-02  0.1477871E+00
          2   -1    0    0  502    0  0.00000000000E+00  0.00000000000E+00  0.16093958616E+04  0.16093958616E+04  0.00000000000E+00 0. -1.
          1   -1    0    0  501    0 -0.00000000000E+00 -0.00000000000E+00 -0.58918903918E+03  0.58918903918E+03  0.00000000000E+00 0. -1.
         25    2    1    2    0    0 -0.15351396688E+02 -0.94221731673E+02  0.63554220128E+02  0.16963828459E+03  0.12499843439E+03 0.  0.
          2    1    1    2  501    0  0.68470251124E+00  0.29630311614E+02 -0.53500192160E+03  0.53582224692E+03  0.00000000000E+00 0. -1.
          1    1    1    2  502    0  0.14666694176E+02  0.64591420060E+02  0.14916545239E+04  0.14931243693E+04  0.00000000000E+00 0. -1.
         22    1    3    3    0    0  0.16004241602E+02 -0.35589500938E+01  0.71521089887E+02  0.73376209862E+02  0.00000000000E+00 0.  1.
         22    1    3    3    0    0 -0.31355638290E+02 -0.90662781580E+02 -0.79668697590E+01  0.96262074723E+02  0.00000000000E+00 0.  1.
</event>
<event>
 7    1  0.5064652E-006  0.1487608E+03  0.7818608E-02  0.1342744E+00
          2   -1    0    0  502    0  0.00000000000E+00  0.00000000000E+00  0.62310005322E+03  0.62310005322E+03  0.00000000000E+00 0. -1.
          1   -1    0    0  501    0 -0.00000000000E+00 -0.00000000000E+00 -0.20294309403E+04  0.20294309403E+04  0.00000000000E+00 0. -1.
         25    2    1    2    0    0  0.87586134706E+02  0.11251101383E+03  0.12548531903E+03  0.22738095508E+03  0.12500189685E+03 0.  0.
          2    1    1    2  501    0  0.32320102052E+02 -0.20328461327E+02 -0.19654891574E+04  0.19658599805E+04  0.00000000000E+00 0. -1.
          1    1    1    2  502    0 -0.11990623676E+03 -0.92182552500E+02  0.43367295128E+03  0.45929005789E+03  0.00000000000E+00 0. -1.
         22    1    3    3    0    0 -0.27585195251E+02  0.51440468979E+02  0.49201260180E+02  0.76340217770E+02  0.00000000000E+00 0. -1.
         22    1    3    3    0    0  0.11517132996E+03  0.61070544847E+02  0.76284058848E+02  0.15104073731E+03  0.00000000000E+00 0. -1.
</event>
<event>
 7    1  0.5064652E-006  0.9584937E+02  0.7818608E-02  0.1385297E+00
          2   -1    0    0  502    0  0.00000000000E+00  0.00000000000E+00  0.94080589564E+03  0.94080589564E+03  0.00000000000E+00 0. -1.
          1   -1    0    0  501    0 -0.00000000000E+00 -0.00000000000E+00 -0.69211123214E+03  0.69211123214E+03  0.00000000000E+00 0. -1.
         25    2    1    2    0    0 -0.10726226815E+02  0.62067747953E+02  0.30894500823E+02  0.14334275806E+03  0.12500087532E+03 0.  0.
          2    1    1    2  501    0  0.22643170940E+02  0.34813291589E+02 -0.63241359083E+03  0.63377569244E+03  0.00000000000E+00 0. -1.
          1    1    1    2  502    0 -0.11916944125E+02 -0.96881039542E+02  0.85021375351E+03  0.85579867728E+03  0.00000000000E+00 0. -1.
         22    1    3    3    0    0 -0.31168220821E+02  0.20780505014E+02  0.72281666059E+02  0.81412079116E+02  0.00000000000E+00 0. -1.
         22    1    3    3    0    0  0.20441994006E+02  0.41287242939E+02 -0.41387165236E+02  0.61930678946E+02  0.00000000000E+00 0. -1.
</event>
<event>
 7    1  0.5064652E-006  0.3775355E+02  0.7818608E-02  0.1600888E+00
          2   -1    0    0  502    0  0.00000000000E+00  0.00000000000E+00  0.33552623099E+03  0.33552623099E+03  0.00000000000E+00 0. -1.
          1   -1    0    0  501    0 -0.00000000000E+00 -0.00000000000E+00 -0.21983837087E+03  0.21983837087E+03  0.00000000000E+00 0. -1.
         25    2    1    2    0    0  0.86035204580E+00  0.15567348288E+02 -0.11348608529E+03  0.16955203658E+03  0.12500287603E+03 0.  0.
          2    1    1    2  501    0 -0.97336699119E+01  0.21323890123E+02 -0.75361325548E+02  0.78922633054E+02  0.00000000000E+00 0. -1.
          1    1    1    2  502    0  0.88733178661E+01 -0.36891238411E+02  0.30453527096E+03  0.30688993222E+03  0.00000000000E+00 0. -1.
         22    1    3    3    0    0  0.61590320116E+02  0.51075346819E+01 -0.73777920097E+02  0.96242588995E+02  0.00000000000E+00 0. -1.
         22    1    3    3    0    0 -0.60729968070E+02  0.10459813607E+02 -0.39708165196E+02  0.73309447588E+02  0.00000000000E+00 0. -1.
</event>
<event>
 7    1  0.5064652E-006  0.5897503E+02  0.7818608E-02  0.1426824E+00
          2   -1    0    0  502    0  0.00000000000E+00  0.00000000000E+00  0.21441003640E+04  0.21441003640E+04  0.00000000000E+00 0. -1.
          1   -1    0    0  501    0 -0.00000000000E+00 -0.00000000000E+00 -0.59426738788E+03  0.59426738788E+03  0.00000000000E+00 0. -1.
         25    2    1    2    0    0  0.81255331023E+02 -0.21042557963E+02  0.42308572459E+02  0.15639788910E+03  0.12500026538E+03 0.  0.
          2    1    1    2  501    0 -0.25930392654E+02  0.41246413302E+02 -0.53569289193E+03  0.53790382629E+03  0.00000000000E+00 0. -1.
          1    1    1    2  502    0 -0.55324938369E+02 -0.20203855338E+02  0.20432172956E+04  0.20440660365E+04  0.00000000000E+00 0. -1.
         22    1    3    3    0    0  0.11209689341E+03 -0.15941481152E+01  0.20666590531E+02  0.11399720517E+03  0.00000000000E+00 0. -1.
         22    1    3    3    0    0 -0.30841562391E+02 -0.19448409848E+02  0.21641981928E+02  0.42400683935E+02  0.00000000000E+00 0. -1.
</event>
<event>
 7    1  0.5064652E-006  0.2455581E+03  0.7818608E-02  0.1216428E+00
          2   -1    0    0  502    0  0.00000000000E+00  0.00000000000E+00  0.58260142608E+03  0.58260142608E+03  0.00000000000E+00 0. -1.
          1   -1    0    0  501    0 -0.00000000000E+00 -0.00000000000E+00 -0.41163230088E+03  0.41163230088E+03  0.00000000000E+00 0. -1.
         25    2    1    2    0    0  0.75943436753E+02  0.20975222994E+03 -0.17021138562E+02  0.25627722152E+03  0.12499956625E+03 0.  0.
          2    1    1    2  501    0 -0.15317918496E+03 -0.21069067221E+03 -0.20872155862E+03  0.33379501358E+03  0.00000000000E+00 0. -1.
          1    1    1    2  502    0  0.77235748204E+02  0.93844226423E+00  0.39671182239E+03  0.40416149185E+03  0.00000000000E+00 0. -1.
         22    1    3    3    0    0  0.81207877879E+01  0.16718128663E+03  0.19036055159E+02  0.16845741654E+03  0.00000000000E+00 0.  1.
         22    1    3    3    0    0  0.67822648965E+02  0.42570943314E+02 -0.36057193720E+02  0.87819804978E+02  0.00000000000E+00 0.  1.
</event>
<event>
 7    1  0.5064652E-006  0.7947840E+02  0.7818608E-02  0.1354523E+00
          2   -1    0    0  502    0  0.00000000000E+00  0.00000000000E+00  0.67117670999E+03  0.67117670999E+03  0.00000000000E+00 0. -1.
          1   -1    0    0  501    0 -0.00000000000E+00 -0.00000000000E+00 -0.20284296849E+03  0.20284296849E+03  0.00000000000E+00 0. -1.
         25    2    1    2    0    0  0.17223098239E+02  0.27130898908E+02  0.24579533264E+03  0.27761927623E+03  0.12499758478E+03 0.  0.
          2    1    1    2  501    0  0.31579540560E+02  0.56376346574E+02 -0.17537474107E+03  0.18690066784E+03  0.00000000000E+00 0. -1.
          1    1    1    2  502    0 -0.48802638799E+02 -0.83507245482E+02  0.39791314992E+03  0.40949973441E+03  0.00000000000E+00 0. -1.
         22    1    3    3    0    0 -0.50386235923E+02 -0.37975400278E+01  0.13541395964E+03  0.14453419853E+03  0.00000000000E+00 0.  1.
         22    1    3    3    0    0  0.67609334162E+02  0.30928438936E+02  0.11038137300E+03  0.13308507770E+03  0.00000000000E+00 0.  1.
</event>
<event>
 7    1  0.5064652E-006  0.6575178E+02  0.7818608E-02  0.1529521E+00
          2   -1    0    0  502    0  0.00000000000E+00  0.00000000000E+00  0.12887039888E+03  0.12887039888E+03  0.00000000000E+00 0. -1.
          1   -1    0    0  501    0 -0.00000000000E+00 -0.00000000000E+00 -0.44995756932E+03  0.44995756932E+03  0.00000000000E+00 0. -1.
         25    2    1    2    0    0 -0.11347493194E+02  0.84378562781E+02 -0.10359525137E+03  0.18331786142E+03  0.12499981900E+03 0.  0.
          2    1    1    2  501    0  0.67768845871E+00 -0.21086727358E+02 -0.29450337164E+03  0.29525809936E+03  0.00000000000E+00 0. -1.
          1    1    1    2  502    0  0.10669804735E+02 -0.63291835423E+02  0.77011452577E+02  0.10025200742E+03  0.00000000000E+00 0. -1.
         22    1    3    3    0    0 -0.30645046535E+02  0.38896146499E+01 -0.95243299421E+02  0.10012758892E+03  0.00000000000E+00 0.  1.
         22    1    3    3    0    0  0.19297553341E+02  0.80488948131E+02 -0.83519519514E+01  0.83190272494E+02  0.00000000000E+00 0.  1.
</event>
<event>
 7    1  0.5064652E-006  0.5839111E+02  0.7818608E-02  0.1455833E+00
          2   -1    0    0  502    0  0.00000000000E+00  0.00000000000E+00  0.62759435598E+03  0.62759435598E+03  0.00000000000E+00 0. -1.
          1   -1    0    0  501    0 -0.00000000000E+00 -0.00000000000E+00 -0.92860077336E+03  0.92860077336E+03  0.00000000000E+00 0. -1.
         25    2    1    2    0    0  0.15902466783E+02 -0.52978366235E+02  0.10610354546E+03  0.17303747421E+03  0.12499763752E+03 0.  0.
          2    1    1    2  501    0 -0.49254673051E+02  0.31568845636E+02 -0.89337083029E+03  0.89528434324E+03  0.00000000000E+00 0. -1.
          1    1    1    2  502    0  0.33352206269E+02  0.21409520600E+02  0.48626086746E+03  0.48787331189E+03  0.00000000000E+00 0. -1.
         22    1    3    3    0    0  0.13836443327E+02  0.40189744920E+02  0.23852054532E+02  0.48739955540E+02  0.00000000000E+00 0.  1.
         22    1    3    3    0    0  0.20660234560E+01 -0.93168111155E+02  0.82251490924E+02  0.12429751867E+03  0.00000000000E+00 0.  1.
</event>
<event>
 7    1  0.5064652E-006  0.1616870E+03  0.7818608E-02  0.1343249E+00
          2   -1    0    0  502    0  0.00000000000E+00  0.00000000000E+00  0.11330469120E+04  0.11330469120E+04  0.00000000000E+00 0. -1.
          1   -1    0    0  501    0 -0.00000000000E+00 -0.00000000000E+00 -0.62295512310E+03  0.62295512310E+03  0.00000000000E+00 0. -1.
         25    2    1    2    0    0  0.15338239638E+03  0.11518652145E+03  0.21625821844E+02  0.22997477912E+03  0.12500651430E+03 0.  0.
          2    1    1    2  501    0 -0.12039156029E+03 -0.10356983557E+03 -0.50631219057E+03  0.53063440611E+03  0.00000000000E+00 0. -1.
          1    1    1    2  502    0 -0.32990836097E+02 -0.11616685880E+02  0.99477815761E+03  0.99539284984E+03  0.00000000000E+00 0. -1.
         22    1    3    3    0    0  0.27720482564E+02 -0.26790892487E+02  0.10939071265E+02  0.40072937926E+02  0.00000000000E+00 0.  1.
         22    1    3    3    0    0  0.12566191382E+03  0.14197741393E+03  0.10686750579E+02  0.18990184120E+03  0.00000000000E+00 0.  1.
</event>
<event>
 7    1  0.6224505E-006  0.5945739E+02  0.7818608E-02  0.1536281E+00
          2   -1    0    0  502    0  0.00000000000E+00  0.00000000000E+00  0.18766513592E+04  0.18766513592E+04  0.00000000000E+00 0. -1.
          1   -1    0    0  501    0 -0.00000000000E+00 -0.00000000000E+00 -0.44709273166E+03  0.44709273166E+03  0.00000000000E+00 0. -1.
         25    2    1    2    0    0 -0.66293112826E+02  0.37817324293E+02 -0.15030107867E+03  0.20985687991E+03  0.12499827587E+03 0.  0.
          2    1    1    2  501    0  0.22224193732E+02  0.20368143928E+01 -0.26606857595E+03  0.26700290356E+03  0.00000000000E+00 0. -1.
          1    1    1    2  502    0  0.44068919094E+02 -0.39854138686E+02  0.18459282822E+04  0.18468843074E+04  0.00000000000E+00 0. -1.
         22    1    3    3    0    0 -0.55812011084E+02 -0.38936595119E+02 -0.82185802796E+02  0.10670307026E+03  0.00000000000E+00 0.  1.
         22    1    3    3    0    0 -0.10481101742E+02  0.76753919412E+02 -0.68115275873E+02  0.10315380965E+03  0.00000000000E+00 0.  1.
</event>
<event>
 7    1  0.5064652E-006  0.3802285E+02  0.7818608E-02  0.1568408E+00
          2   -1    0    0  502    0  0.00000000000E+00  0.00000000000E+00  0.62479631728E+03  0.62479631728E+03  0.00000000000E+00 0. -1.
          1   -1    0    0  501    0 -0.00000000000E+00 -0.00000000000E+00 -0.20228788497E+03  0.20228788497E+03  0.00000000000E+00 0. -1.
         25    2    1    2    0    0  0.21355782648E+02 -0.16882185892E+02  0.68759731847E+02  0.14523930123E+03  0.12500190497E+03 0.  0.
          2    1    1    2  501    0  0.16524046069E+02  0.23109176194E+02 -0.16209958349E+03  0.16457020718E+03  0.00000000000E+00 0. -1.
          1    1    1    2  502    0 -0.37879828718E+02 -0.62269903018E+01  0.51584828396E+03  0.51727469384E+03  0.00000000000E+00 0. -1.
         22    1    3    3    0    0  0.73113617354E+02 -0.17693759721E+02  0.49291986791E+02  0.89935366444E+02  0.00000000000E+00 0. -1.
         22    1    3    3    0    0 -0.51757834706E+02  0.81157382844E+00  0.19467745056E+02  0.55303934788E+02  0.00000000000E+00 0. -1.
</event>
<event>
 7    1  0.5064652E-006  0.9140960E+02  0.7818608E-02  0.1415489E+00
          2   -1    0    0  502    0  0.00000000000E+00  0.00000000000E+00  0.73515102271E+03  0.73515102271E+03  0.00000000000E+00 0. -1.
          1   -1    0    0  501    0 -0.00000000000E+00 -0.00000000000E+00 -0.53574364668E+03  0.53574364668E+03  0.00000000000E+00 0. -1.
         25    2    1    2    0    0 -0.98621118988E+02 -0.91544528071E+01 -0.12462437129E+03  0.20240072399E+03  0.12499956014E+03 0.  0.
          2    1    1    2  501    0  0.16169190321E+02 -0.30239644374E+02 -0.36843326916E+03  0.37002561077E+03  0.00000000000E+00 0. -1.
          1    1    1    2  502    0  0.82451928667E+02  0.39394097181E+02  0.69246501648E+03  0.69846833463E+03  0.00000000000E+00 0. -1.
         22    1    3    3    0    0 -0.35720709689E+02 -0.64117925340E+02 -0.76422256198E+02  0.10595960878E+03  0.00000000000E+00 0.  1.
         22    1    3    3    0    0 -0.62900409300E+02  0.54963472533E+02 -0.48202115090E+02  0.96441115205E+02  0.00000000000E+00 0.  1.
</event>
<event>
 7    1  0.5064652E-006  0.1485871E+03  0.7818608E-02  0.1377531E+00
          2   -1    0    0  502    0  0.00000000000E+00  0.00000000000E+00  0.19388066582E+04  0.19388066582E+04  0.00000000000E+00 0. -1.
          1   -1    0    0  501    0 -0.00000000000E+00 -0.00000000000E+00 -0.13543142994E+03  0.13543142994E+03  0.00000000000E+00 0. -1.
         25    2    1    2    0    0 -0.13965416601E+03 -0.27009119811E+01  0.15922749077E+03  0.24594342346E+03  0.12499677083E+03 0.  0.
          2    1    1    2  501    0 -0.66239202409E+01 -0.27757778151E+02 -0.86563317395E+02  0.91145918645E+02  0.00000000000E+00 0. -1.
          1    1    1    2  502    0  0.14627808625E+03  0.30458690132E+02  0.17307110549E+04  0.17371487460E+04  0.00000000000E+00 0. -1.
         22    1    3    3    0    0 -0.13879201686E+03  0.32383687898E+02  0.15505050378E+03  0.21060053634E+03  0.00000000000E+00 0. -1.
         22    1    3    3    0    0 -0.86214915365E+00 -0.35084599879E+02  0.41769869967E+01  0.35342887124E+02  0.00000000000E+00 0. -1.
</event>
<event>
 7    1  0.5064652E-006  0.1506769E+03  0.7818608E-02  0.1310933E+00
          2   -1    0    0  502    0  0.00000000000E+00  0.00000000000E+00  0.14396401504E+04  0.14396401504E+04  0.00000000000E+00 0. -1.
          1   -1    0    0  501    0 -0.00000000000E+00 -0.00000000000E+00 -0.35187320371E+03  0.35187320371E+03  0.00000000000E+00 0. -1.
         25    2    1    2    0    0  0.72454428810E+02  0.18275097452E+03  0.22476463580E+03  0.32371604060E+03  0.12500148197E+03 0.  0.
          2    1    1    2  501    0 -0.46234693547E+02 -0.14024946548E+03 -0.28379276077E+03  0.31991544277E+03  0.00000000000E+00 0. -1.
          1    1    1    2  502    0 -0.26219735263E+02 -0.42501509038E+02  0.11467950717E+04  0.11478818708E+04  0.00000000000E+00 0. -1.
         22    1    3    3    0    0  0.44680627822E+02  0.14234444981E+03  0.76718574848E+02  0.16776185687E+03  0.00000000000E+00 0. -1.
         22    1    3    3    0    0  0.27773800988E+02  0.40406524713E+02  0.14804606095E+03  0.15595418373E+03  0.00000000000E+00 0. -1.
</event>
<event>
 7    1  0.5064652E-006  0.2956199E+03  0.7818608E-02  0.1232436E+00
          2   -1    0    0  502    0  0.00000000000E+00  0.00000000000E+00  0.26632577192E+03  0.26632577192E+03  0.00000000000E+00 0. -1.
          1   -1    0    0  501    0 -0.00000000000E+00 -0.00000000000E+00 -0.14725445578E+04  0.14725445578E+04  0.00000000000E+00 0. -1.
         25    2    1    2    0    0 -0.69530752210E+02 -0.26816428495E+03 -0.99545156342E+03  0.10408149282E+04  0.12500116172E+03 0.  0.
          2    1    1    2  501    0  0.46182953164E+02 -0.28564464380E+02 -0.36071020404E+03  0.36477478681E+03  0.00000000000E+00 0. -1.
          1    1    1    2  502    0  0.23347799046E+02  0.29672874933E+03  0.14994298160E+03  0.33328061469E+03  0.00000000000E+00 0. -1.
         22    1    3    3    0    0 -0.61815824618E+02 -0.27584609461E+03 -0.98793902842E+03  0.10275873627E+04  0.00000000000E+00 0. -1.
         22    1    3    3    0    0 -0.77149275924E+01  0.76818096559E+01 -0.75125350024E+01  0.13227565517E+02  0.00000000000E+00 0. -1.
</event>
<event>
 7    1  0.5064652E-006  0.1276238E+03  0.7818608E-02  0.1382133E+00
          2   -1    0    0  502    0  0.00000000000E+00  0.00000000000E+00  0.53864785104E+03  0.53864785104E+03  0.00000000000E+00 0. -1.
          1   -1    0    0  501    0 -0.00000000000E+00 -0.00000000000E+00 -0.20844384817E+04  0.20844384817E+04  0.00000000000E+00 0. -1.
         25    2    1    2    0    0 -0.60160104379E+02  0.83510842892E+02  0.79221140447E+02  0.18026242276E+03  0.12500101170E+03 0.  0.
          2    1    1    2  501    0 -0.27318690848E+02  0.16665052559E+02 -0.20229738837E+04  0.20232269692E+04  0.00000000000E+00 0. -1.
          1    1    1    2  502    0  0.87478795227E+02 -0.10017589545E+03  0.39796211259E+03  0.41959694077E+03  0.00000000000E+00 0. -1.
         22    1    3    3    0    0 -0.63556607804E+02  0.10768225512E+03  0.35154897516E+02  0.12988755630E+03  0.00000000000E+00 0.  1.
         22    1    3    3    0    0  0.33965034244E+01 -0.24171412228E+02  0.44066242931E+02  0.50374866458E+02  0.00000000000E+00 0.  1.
</event>
<event>
 7    1  0.5064652E-006  0.6200456E+02  0.7818608E-02  0.1494580E+00
          2   -1    0    0  502    0  0.00000000000E+00  0.00000000000E+00  0.19171862760E+04  0.19171862760E+04  0.00000000000E+00 0. -1.
          1   -1    0    0  501    0 -0.00000000000E+00 -0.00000000000E+00 -0.18669206288E+02  0.18669206288E+02  0.00000000000E+00 0. -1.
         25    2    1    2    0    0 -0.14992023168E+02  0.36633376055E+02  0.91117958912E+03  0.92056502449E+03  0.12499982277E+03 0.  0.
          2    1    1    2  501    0  0.63913642575E+01 -0.63629771256E+02  0.60542323383E+02  0.88062308894E+02  0.00000000000E+00 0. -1.
          1    1    1    2  502    0  0.86006589108E+01  0.26996395201E+02  0.92679515719E+03  0.92722814889E+03  0.00000000000E+00 0. -1.
         22    1    3    3    0    0 -0.11143962684E+02  0.69467518724E+02  0.82907485812E+03  0.83205471240E+03  0.00000000000E+00 0.  1.
         22    1    3    3    0    0 -0.38480604844E+01 -0.32834142668E+02  0.82104731004E+02  0.88510312097E+02  0.00000000000E+00 0.  1.
</event>
<event>
 7    1  0.5064652E-006  0.2303389E+03  0.7818608E-02  0.1251326E+00
          2   -1    0    0  502    0  0.00000000000E+00  0.00000000000E+00  0.83879628953E+03  0.83879628953E+03  0.00000000000E+00 0. -1.
          1   -1    0    0  501    0 -0.00000000000E+00 -0.00000000000E+00 -0.36997520606E+03  0.36997520606E+03  0.00000000000E+00 0. -1.
         25    2    1    2    0    0 -0.17825290077E+03  0.47883188391E+02  0.12885383807E+03  0.25747637356E+03  0.12499549990E+03 0.  0.
          2    1    1    2  501    0  0.23534823866E+03 -0.55195852425E+02 -0.25626635401E+03  0.35228939774E+03  0.00000000000E+00 0. -1.
          1    1    1    2  502    0 -0.57095337895E+02  0.73126640333E+01  0.59623359941E+03  0.59900572429E+03  0.00000000000E+00 0. -1.
         22    1    3    3    0    0 -0.43930267792E+02 -0.29665142573E+02 -0.41315957497E+01  0.53169156430E+02  0.00000000000E+00 0.  1.
         22    1    3    3    0    0 -0.13432263297E+03  0.77548330964E+02  0.13298543382E+03  0.20430721713E+03  0.00000000000E+00 0.  1.
</event>
<event>
 7    1  0.5064652E-006  0.5411476E+02  0.7818608E-02  0.1463733E+00
          2   -1    0    0  502    0  0.00000000000E+00  0.00000000000E+00  0.14106290642E+04  0.14106290642E+04  0.00000000000E+00 0. -1.
          1   -1    0    0  501    0 -0.00000000000E+00 -0.00000000000E+00 -0.11674146865E+03  0.11674146865E+03  0.00000000000E+00 0. -1.
         25    2    1    2    0    0 -0.47300655077E+02 -0.74830027092E+02  0.67516736426E+03  0.69232367286E+03  0.12499685322E+03 0.  0.
          2    1    1    2  501    0  0.11781900594E+02  0.38621664182E+02 -0.10347412184E+03  0.11107357929E+03  0.00000000000E+00 0. -1.
          1    1    1    2  502    0  0.35518754483E+02  0.36208362910E+02  0.72219435311E+03  0.72397328067E+03  0.00000000000E+00 0. -1.
         22    1    3    3    0    0  0.29037107903E+02 -0.65122745194E+02  0.41245691949E+03  0.41857476752E+03  0.00000000000E+00 0. -1.
         22    1    3    3    0    0 -0.76337762980E+02 -0.97072818982E+01  0.26271044477E+03  0.27374890533E+03  0.00000000000E+00 0. -1.
</event>
<event>
 7    1  0.5064652E-006  0.8220794E+02  0.7818608E-02  0.1449190E+00
          2   -1    0    0  502    0  0.00000000000E+00  0.00000000000E+00  0.30580463042E+03  0.30580463042E+03  0.00000000000E+00 0. -1.
          1   -1    0    0  501    0 -0.00000000000E+00 -0.00000000000E+00 -0.12707020864E+04  0.12707020864E+04  0.00000000000E+00 0. -1.
         25    2    1    2    0    0 -0.72824430441E+02  0.42838098531E+02 -0.17506433021E+03  0.23110531581E+03  0.12499458760E+03 0.  0.
          2    1    1    2  501    0  0.20841764149E+02  0.20958438385E+02 -0.10613121576E+04  0.10617236605E+04  0.00000000000E+00 0. -1.
          1    1    1    2  502    0  0.51982666293E+02 -0.63796536916E+02  0.27147903188E+03  0.28367774052E+03  0.00000000000E+00 0. -1.
         22    1    3    3    0    0 -0.16108489286E+02  0.25516560534E+02  0.13776633518E+02  0.33171884475E+02  0.00000000000E+00 0. -1.
         22    1    3    3    0    0 -0.56715941155E+02  0.17321537997E+02 -0.18884096372E+03  0.19793343133E+03  0.00000000000E+00 0. -1.
</event>
<event>
 7    1  0.5064652E-006  0.5794150E+02  0.7818608E-02  0.1449793E+00
          2   -1    0    0  502    0  0.00000000000E+00  0.00000000000E+00  0.83141471431E+02  0.83141471431E+02  0.00000000000E+00 0. -1.
          1   -1    0    0  501    0 -0.00000000000E+00 -0.00000000000E+00 -0.12372777226E+04  0.12372777226E+04  0.00000000000E+00 0. -1.
         25    2    1    2    0    0  0.52742081848E+02  0.26290561331E+02 -0.12084841553E+03  0.18358208660E+03  0.12500048869E+03 0.  0.
          2    1    1    2  501    0 -0.56236791375E+02  0.15313249209E+02 -0.10757266166E+04  0.10773044259E+04  0.00000000000E+00 0. -1.
          1    1    1    2  502    0  0.34947095272E+01 -0.41603810539E+02  0.42438780960E+02  0.59532681575E+02  0.00000000000E+00 0. -1.
         22    1    3    3    0    0  0.72791361332E+02  0.14524468615E+02 -0.13662584335E+03  0.15548685971E+03  0.00000000000E+00 0. -1.
         22    1    3    3    0    0 -0.20049279484E+02  0.11766092715E+02  0.15777427815E+02  0.28095226891E+02  0.00000000000E+00 0. -1.
</event>
<event>
 7    1  0.5064652E-006  0.6355396E+02  0.7818608E-02  0.1431086E+00
          2   -1    0    0  502    0  0.00000000000E+00  0.00000000000E+00  0.17953856544E+04  0.17953856544E+04  0.00000000000E+00 0. -1.
          1   -1    0    0  501    0 -0.00000000000E+00 -0.00000000000E+00 -0.17015934015E+04  0.17015934015E+04  0.00000000000E+00 0. -1.
         25    2    1    2    0    0  0.19349834696E+02  0.56804272315E+02  0.23600252947E+03  0.27371969154E+03  0.12499653661E+03 0.  0.
          2    1    1    2  501    0 -0.55166218224E+02 -0.31643867302E+02 -0.16818227741E+04  0.16830248036E+04  0.00000000000E+00 0. -1.
          1    1    1    2  502    0  0.35816383528E+02 -0.25160405013E+02  0.15396124976E+04  0.15402345607E+04  0.00000000000E+00 0. -1.
         22    1    3    3    0    0 -0.65581901178E+01  0.74514301608E+02  0.22988170469E+03  0.24174571176E+03  0.00000000000E+00 0.  1.
         22    1    3    3    0    0  0.25908024814E+02 -0.17710029293E+02  0.61208247834E+01  0.31973979785E+02  0.00000000000E+00 0.  1.
</event>
<event>
 7    1  0.5064652E-006  0.7265352E+02  0.7818608E-02  0.1421910E+00
          2   -1    0    0  502    0  0.00000000000E+00  0.00000000000E+00  0.21342179080E+04  0.21342179080E+04  0.00000000000E+00 0. -1.
          1   -1    0    0  501    0 -0.00000000000E+00 -0.00000000000E+00 -0.35228789090E+02  0.35228789090E+02  0.00000000000E+00 0. -1.
         25    2    1    2    0    0  0.62929444279E+02  0.57176685833E+02  0.12916153304E+04  0.13004327709E+04  0.12500376548E+03 0.  0.
          2    1    1    2  501    0 -0.39842230551E+02  0.99297420196E+01 -0.14901937980E+02  0.43681470528E+02  0.00000000000E+00 0. -1.
          1    1    1    2  502    0 -0.23087213728E+02 -0.67106427853E+02  0.82227572643E+03  0.82533245566E+03  0.00000000000E+00 0. -1.
         22    1    3    3    0    0  0.54012407267E+01  0.10167327538E+02  0.65978560303E+01  0.13269500927E+02  0.00000000000E+00 0.  1.
         22    1    3    3    0    0  0.57528203553E+02  0.47009358296E+02  0.12850174744E+04  0.12871632699E+04  0.00000000000E+00 0.  1.
</event>
<event>
 7    1  0.5064652E-006  0.1705032E+03  0.7818608E-02  0.1342860E+00
          2   -1    0    0  502    0  0.00000000000E+00  0.00000000000E+00  0.14366162337E+03  0.14366162337E+03  0.00000000000E+00 0. -1.
          1   -1    0    0  501    0 -0.00000000000E+00 -0.00000000000E+00 -0.42824355675E+03  0.42824355675E+03  0.00000000000E+00 0. -1.
         25    2    1    2    0    0  0.14637339483E+03  0.11677655365E+03 -0.20380416745E+03  0.30368289964E+03  0.12500092267E+03 0.  0.
          2    1    1    2  501    0 -0.32988165809E+02  0.43926117429E+01 -0.95975459689E+02  0.10158150906E+03  0.00000000000E+00 0. -1.
          1    1    1    2  502    0 -0.11338522902E+03 -0.12116916539E+03  0.15197693753E+02  0.16664077141E+03  0.00000000000E+00 0. -1.
         22    1    3    3    0    0 -0.12202652188E+02  0.89808793073E+01 -0.65586227218E+02  0.67313550748E+02  0.00000000000E+00 0.  1.
         22    1    3    3    0    0  0.15857604702E+03  0.10779567434E+03 -0.13821794023E+03  0.23636934889E+03  0.00000000000E+00 0.  1.
</event>
<event>
 7    1  0.6492661E-006  0.1220783E+03  0.7818608E-02  0.1307027E+00
          2   -1    0    0  502    0  0.00000000000E+00  0.00000000000E+00  0.51412413368E+03  0.51412413368E+03  0.00000000000E+00 0. -1.
          1   -1    0    0  501    0 -0.00000000000E+00 -0.00000000000E+00 -0.23566343034E+04  0.23566343034E+04  0.00000000000E+00 0. -1.
         25    2    1    2    0    0 -0.82182695176E+02 -0.12574803807E+02 -0.37210700343E+03  0.40124855141E+03  0.12499862770E+03 0.  0.
          2    1    1    2  501    0  0.10714843648E+03  0.71357582143E+02 -0.19658013415E+04  0.19700120827E+04  0.00000000000E+00 0. -1.
          1    1    1    2  502    0 -0.24965741306E+02 -0.58782778336E+02  0.49539817513E+03  0.49949780299E+03  0.00000000000E+00 0. -1.
         22    1    3    3    0    0 -0.83723470263E+02  0.31370904683E+02 -0.14833091811E+03  0.17319299755E+03  0.00000000000E+00 0. -1.
         22    1    3    3    0    0  0.15407750871E+01 -0.43945708490E+02 -0.22377608532E+03  0.22805555386E+03  0.00000000000E+00 0. -1.
</event>
<event>
 7    1  0.5064652E-006  0.9388981E+02  0.7818608E-02  0.1391028E+00
          2   -1    0    0  502    0  0.00000000000E+00  0.00000000000E+00  0.91608069315E+03  0.91608069315E+03  0.00000000000E+00 0. -1.
          1   -1    0    0  501    0 -0.00000000000E+00 -0.00000000000E+00 -0.65798552280E+03  0.65798552280E+03  0.00000000000E+00 0. -1.
         25    2    1    2    0    0  0.52619225453E+02  0.39999198016E+02 -0.80279766650E+02  0.16260961105E+03  0.12501330306E+03 0.  0.
          2    1    1    2  501    0 -0.54591107218E+02 -0.80434004403E+02 -0.53166318444E+03  0.54047715932E+03  0.00000000000E+00 0. -1.
          1    1    1    2  502    0  0.19718817643E+01  0.40434806388E+02  0.87003812144E+03  0.87097944559E+03  0.00000000000E+00 0. -1.
         22    1    3    3    0    0  0.65018823226E+02  0.71316682975E+02 -0.28120637979E+02  0.10052008220E+03  0.00000000000E+00 0. -1.
         22    1    3    3    0    0 -0.12399597772E+02 -0.31317484959E+02 -0.52159128671E+02  0.62089528850E+02  0.00000000000E+00 0. -1.
</event>
<event>
 7    1  0.5064652E-006  0.9333470E+02  0.7818608E-02  0.1430238E+00
          2   -1    0    0  502    0  0.00000000000E+00  0.00000000000E+00  0.21230156767E+04  0.21230156767E+04  0.00000000000E+00 0. -1.
          1   -1    0    0  501    0 -0.00000000000E+00 -0.00000000000E+00 -0.70337199181E+03  0.70337199181E+03  0.00000000000E+00 0. -1.
         25    2    1    2    0    0 -0.65164487800E+02  0.19021900352E+02 -0.12372002682E+03  0.18852040819E+03  0.12500022442E+03 0.  0.
          2    1    1    2  501    0  0.89641096813E+02 -0.36362217818E+02 -0.54286823511E+03  0.55141967485E+03  0.00000000000E+00 0. -1.
          1    1    1    2  502    0 -0.24476609013E+02  0.17340317467E+02  0.20862319468E+04  0.20864475855E+04  0.00000000000E+00 0. -1.
         22    1    3    3    0    0 -0.16593092260E+02  0.36014474823E+02 -0.13070764245E+03  0.13659012007E+03  0.00000000000E+00 0. -1.
         22    1    3    3    0    0 -0.48571395539E+02 -0.16992574471E+02  0.69876156277E+01  0.51930288117E+02  0.00000000000E+00 0. -1.
</event>
<event>
 7    1  0.5064652E-006  0.1292602E+03  0.7818608E-02  0.1272884E+00
          2   -1    0    0  502    0  0.00000000000E+00  0.00000000000E+00  0.21777317944E+03  0.21777317944E+03  0.00000000000E+00 0. -1.
          1   -1    0    0  501    0 -0.00000000000E+00 -0.00000000000E+00 -0.50981255884E+03  0.50981255884E+03  0.00000000000E+00 0. -1.
         25    2    1    2    0    0  0.63294719231E+02 -0.70380784024E+02 -0.10462792125E+03  0.18849772414E+03  0.12499885543E+03 0.  0.
          2    1    1    2  501    0  0.72467550954E+02  0.40565003358E+02 -0.32980455871E+03  0.34010015052E+03  0.00000000000E+00 0. -1.
          1    1    1    2  502    0 -0.13576227019E+03  0.29815780666E+02  0.14239310055E+03  0.19898786362E+03  0.00000000000E+00 0. -1.
         22    1    3    3    0    0  0.59195738108E+02 -0.26691845411E+02 -0.12443090161E+03  0.14035540352E+03  0.00000000000E+00 0. -1.
         22    1    3    3    0    0  0.40989811234E+01 -0.43688938614E+02  0.19802980362E+02  0.48142320620E+02  0.00000000000E+00 0. -1.
</event>
<event>
 7    1  0.5064652E-006  0.2791598E+02  0.7818608E-02  0.1658678E+00
          2   -1    0    0  502    0  0.00000000000E+00  0.00000000000E+00  0.20878156766E+03  0.20878156766E+03  0.00000000000E+00 0. -1.
          1   -1    0    0  501    0 -0.00000000000E+00 -0.00000000000E+00 -0.25062388833E+03  0.25062388833E+03  0.00000000000E+00 0. -1.
         25    2    1    2    0    0 -0.16074062604E+02 -0.60035098493E+01  0.28188876076E+02  0.12928537213E+03  0.12500270834E+03 0.  0.
          2    1    1    2  501    0  0.79105391075E+01 -0.21256524227E+02 -0.19786331901E+03  0.19915900547E+03  0.00000000000E+00 0. -1.
          1    1    1    2  502    0  0.81635234963E+01  0.27260034076E+02  0.12783212226E+03  0.13096107840E+03  0.00000000000E+00 0. -1.
         22    1    3    3    0    0  0.26251889779E+02 -0.24604044169E+02 -0.35526670752E+02  0.50563475367E+02  0.00000000000E+00 0.  1.
         22    1    3    3    0    0 -0.42325952383E+02  0.18600534319E+02  0.63715546828E+02  0.78721896761E+02  0.00000000000E+00 0.  1.
</event>
<event>
 7    1  0.5064652E-006  0.7080066E+02  0.7818608E-02  0.1515275E+00
          2   -1    0    0  502    0  0.00000000000E+00  0.00000000000E+00  0.12720941695E+04  0.12720941695E+04  0.00000000000E+00 0. -1.
          1   -1    0    0  501    0 -0.00000000000E+00 -0.00000000000E+00 -0.23643635590E+03  0.23643635590E+03  0.00000000000E+00 0. -1.
         25    2    1    2    0    0  0.47875951556E+02 -0.75617429954E+02  0.38392411453E+03  0.41356144629E+03  0.12500096675E+03 0.  0.
          2    1    1    2  501    0 -0.45095100182E+02  0.54252976475E+02 -0.21586622273E+03  0.22710169448E+03  0.00000000000E+00 0. -1.
          1    1    1    2  502    0 -0.27808513748E+01  0.21364453480E+02  0.86759992180E+03  0.86786738464E+03  0.00000000000E+00 0. -1.
         22    1    3    3    0    0  0.14206746255E+02  0.32316738838E+02  0.14500358877E+03  0.14923888235E+03  0.00000000000E+00 0.  1.
         22    1    3    3    0    0  0.33669205301E+02 -0.10793416879E+03  0.23892052576E+03  0.26432256394E+03  0.00000000000E+00 0.  1.
</event>
<event>
 7    1  0.5064652E-006  0.6016929E+02  0.7818608E-02  0.1491068E+00
          2   -1    0    0  502    0  0.00000000000E+00  0.00000000000E+00  0.12514935262E+04  0.12514935262E+04  0.00000000000E+00 0. -1.
          1   -1    0    0  501    0 -0.00000000000E+00 -0.00000000000E+00 -0.33185160044E+02  0.33185160044E+02  0.00000000000E+00 0. -1.
         25    2    1    2    0    0  0.45357562421E+02 -0.22860185763E+02  0.18021889397E+03  0.22513092946E+03  0.12500075637E+03 0.  0.
          2    1    1    2  501    0 -0.41449468317E+02  0.52521743816E+02  0.96178908242E+02  0.11716217132E+03  0.00000000000E+00 0. -1.
          1    1    1    2  502    0 -0.39080941036E+01 -0.29661558052E+02  0.94191056393E+03  0.94238558545E+03  0.00000000000E+00 0. -1.
         22    1    3    3    0    0  0.63309657291E+02 -0.44469735814E+02  0.50465895586E+02  0.92371406436E+02  0.00000000000E+00 0.  1.
         22    1    3    3    0    0 -0.17952094870E+02  0.21609550051E+02  0.12975299838E+03  0.13275952302E+03  0.00000000000E+00 0.  1.
</event>
<event>
 7    1  0.5064652E-006  0.8416200E+02  0.7818608E-02  0.1334374E+00
          2   -1    0    0  502    0  0.00000000000E+00  0.00000000000E+00  0.11095047599E+04  0.11095047599E+04  0.00000000000E+00 0. -1.
          1   -1    0    0  501    0 -0.00000000000E+00 -0.00000000000E+00 -0.34534982418E+03  0.34534982418E+03  0.00000000000E+00 0. -1.
         25    2    1    2    0    0  0.13712210052E+03  0.62989918010E+02  0.88845034713E+02  0.21515002829E+03  0.12500357697E+03 0.  0.
          2    1    1    2  501    0 -0.56659049088E+02 -0.45351481636E+02 -0.27572127011E+03  0.28511265058E+03  0.00000000000E+00 0. -1.
          1    1    1    2  502    0 -0.80463051435E+02 -0.17638436374E+02  0.95103117113E+03  0.95459190524E+03  0.00000000000E+00 0. -1.
         22    1    3    3    0    0  0.51100598254E+01  0.13639284073E+02  0.71713508080E+02  0.73177660680E+02  0.00000000000E+00 0. -1.
         22    1    3    3    0    0  0.13201204070E+03  0.49350633936E+02  0.17131526633E+02  0.14197236761E+03  0.00000000000E+00 0. -1.
</event>
<event>
 7    1  0.5064652E-006  0.9562962E+02  0.7818608E-02  0.1437268E+00
          2   -1    0    0  502    0  0.00000000000E+00  0.00000000000E+00  0.17129864191E+03  0.17129864191E+03  0.00000000000E+00 0. -1.
          1   -1    0    0  501    0 -0.00000000000E+00 -0.00000000000E+00 -0.78684488587E+03  0.78684488587E+03  0.00000000000E+00 0. -1.
         25    2    1    2    0    0  0.79512171942E+02  0.47678700073E+02 -0.31448916139E+03  0.35089660069E+03  0.12501818996E+03 0.  0.
          2    1    1    2  501    0 -0.94290380408E+02 -0.24173145180E+02 -0.44761781513E+03  0.45807938745E+03  0.00000000000E+00 0. -1.
          1    1    1    2  502    0  0.14778208466E+02 -0.23505554893E+02  0.14656073255E+03  0.14916753964E+03  0.00000000000E+00 0. -1.
         22    1    3    3    0    0  0.86438129239E+02  0.82913493053E+01 -0.98820648644E+02  0.13155157642E+03  0.00000000000E+00 0.  1.
         22    1    3    3    0    0 -0.69259572968E+01  0.39387350768E+02 -0.21566851275E+03  0.21934502428E+03  0.00000000000E+00 0.  1.
</event>
<event>
 7    1  0.5064652E-006  0.7177454E+02  0.7818608E-02  0.1410167E+00
          2   -1    0    0  502    0  0.00000000000E+00  0.00000000000E+00  0.47522543147E+03  0.47522543147E+03  0.00000000000E+00 0. -1.
          1   -1    0    0  501    0 -0.00000000000E+00 -0.00000000000E+00 -0.59665442201E+03  0.59665442201E+03  0.00000000000E+00 0. -1.
         25    2    1    2    0    0  0.65138734531E+02  0.23732820091E+02 -0.74997733455E+01  0.14313436442E+03  0.12499959277E+03 0.  0.
          2    1    1    2  501    0 -0.38982835975E+02 -0.60982942843E+02 -0.51753990974E+03  0.52257644320E+03  0.00000000000E+00 0. -1.
          1    1    1    2  502    0 -0.26155898555E+02  0.37250122752E+02  0.40361069255E+03  0.40616904586E+03  0.00000000000E+00 0. -1.
         22    1    3    3    0    0 -0.21796022072E+02 -0.18584043050E+02 -0.32446852188E+02  0.43280843928E+02  0.00000000000E+00 0. -1.
         22    1    3    3    0    0  0.86934756603E+02  0.42316863140E+02  0.24947078843E+02  0.99853520491E+02  0.00000000000E+00 0. -1.
</event>
<event>
 7    1  0.5064652E-006  0.1330093E+03  0.7818608E-02  0.1300958E+00
          2   -1    0    0  502    0  0.00000000000E+00  0.00000000000E+00  0.47018760665E+03  0.47018760665E+03  0.00000000000E+00 0. -1.
          1   -1    0    0  501    0 -0.00000000000E+00 -0.00000000000E+00 -0.12171112229E+04  0.12171112229E+04  0.00000000000E+00 0. -1.
         25    2    1    2    0    0 -0.15345384680E+03 -0.11673975170E+03 -0.25154728891E+03  0.34070116504E+03  0.12499997031E+03 0.  0.
          2    1    1    2  501    0  0.51228878369E+02  0.34864486888E+02 -0.90983226618E+03  0.91194006547E+03  0.00000000000E+00 0. -1.
          1    1    1    2  502    0  0.10222496843E+03  0.81875264814E+02  0.41445593884E+03  0.43465759904E+03  0.00000000000E+00 0. -1.
         22    1    3    3    0    0 -0.72899779495E+02 -0.12816497137E+03 -0.17682842699E+03  0.23023668329E+03  0.00000000000E+00 0. -1.
         22    1    3    3    0    0 -0.80554067304E+02  0.11425219670E+02 -0.74718861912E+02  0.11046448175E+03  0.00000000000E+00 0. -1.
</event>
<event>
 7    1  0.5064652E-006  0.5523585E+03  0.7818608E-02  0.1111428E+00
          2   -1    0    0  502    0  0.00000000000E+00  0.00000000000E+00  0.33590660129E+04  0.33590660129E+04  0.00000000000E+00 0. -1.
          1   -1    0    0  501    0 -0.00000000000E+00 -0.00000000000E+00 -0.53306124622E+03  0.53306124622E+03  0.00000000000E+00 0. -1.
         25    2    1    2    0    0 -0.15483079331E+03  0.56818664664E+03  0.15943535799E+04  0.17042290930E+04  0.12499929437E+03 0.  0.
          2    1    1    2  501    0 -0.72248704955E+02 -0.90594420004E+02 -0.42936705892E+03  0.44472833909E+03  0.00000000000E+00 0. -1.
          1    1    1    2  502    0  0.22707949826E+03 -0.47759222663E+03  0.16610182457E+04  0.17431698271E+04  0.00000000000E+00 0. -1.
         22    1    3    3    0    0 -0.12105687058E+03  0.54882116103E+03  0.14633384099E+04  0.15675518284E+04  0.00000000000E+00 0. -1.
         22    1    3    3    0    0 -0.33773922729E+02  0.19365485605E+02  0.13101517000E+03  0.13667726460E+03  0.00000000000E+00 0. -1.
</event>
<event>
 7    1  0.5064652E-006  0.8724577E+02  0.7818608E-02  0.1328609E+00
          2   -1    0    0  502    0  0.00000000000E+00  0.00000000000E+00  0.56964323034E+03  0.56964323034E+03  0.00000000000E+00 0. -1.
          1   -1    0    0  501    0 -0.00000000000E+00 -0.00000000000E+00 -0.34692735958E+03  0.34692735958E+03  0.00000000000E+00 0. -1.
         25    2    1    2    0    0 -0.13063451321E+03 -0.68794970053E+02  0.33390720741E+03  0.38589902968E+03  0.12500365595E+03 0.  0.
          2    1    1    2  501    0  0.57097312559E+02  0.64851128575E+02 -0.30833998685E+03  0.32021761268E+03  0.00000000000E+00 0. -1.
          1    1    1    2  502    0  0.73537200648E+02  0.39438414776E+01  0.19714865020E+03  0.21045394756E+03  0.00000000000E+00 0. -1.
         22    1    3    3    0    0 -0.27593887355E+01 -0.62240785912E+02  0.14352709751E+03  0.15646583454E+03  0.00000000000E+00 0. -1.
         22    1    3    3    0    0 -0.12787512447E+03 -0.65541841408E+01  0.19038010990E+03  0.22943319515E+03  0.00000000000E+00 0. -1.
</event>
<event>
 7    1  0.5064652E-006  0.3566859E+02  0.7818608E-02  0.1594002E+00
          2   -1    0    0  502    0  0.00000000000E+00  0.00000000000E+00  0.43858330430E+02  0.43858330430E+02  0.00000000000E+00 0. -1.
          1   -1    0    0  501    0 -0.00000000000E+00 -0.00000000000E+00 -0.16025989554E+04  0.16025989554E+04  0.00000000000E+00 0. -1.
         25    2    1    2    0    0 -0.58104432501E+02 -0.61377622753E+01 -0.65326465248E+03  0.66767746847E+03  0.12499879408E+03 0.  0.
          2    1    1    2  501    0  0.25036011907E+02 -0.64902596066E+01 -0.93336024913E+03  0.93371852291E+03  0.00000000000E+00 0. -1.
          1    1    1    2  502    0  0.33068420595E+02  0.12628021882E+02  0.27884276619E+02  0.45061294476E+02  0.00000000000E+00 0. -1.
         22    1    3    3    0    0  0.23866298030E+02 -0.33905781491E+02 -0.34538107172E+03  0.34786101665E+03  0.00000000000E+00 0.  1.
         22    1    3    3    0    0 -0.81970730531E+02  0.27768019216E+02 -0.30788358075E+03  0.31981645182E+03  0.00000000000E+00 0.  1.
</event>
<event>
 7    1  0.5064652E-006  0.8484845E+02  0.7818608E-02  0.1424017E+00
          2   -1    0    0  502    0  0.00000000000E+00  0.00000000000E+00  0.48218919709E+03  0.48218919709E+03  0.00000000000E+00 0. -1.
          1   -1    0    0  501    0 -0.00000000000E+00 -0.00000000000E+00 -0.79344975450E+03  0.79344975450E+03  0.00000000000E+00 0. -1.
         25    2    1    2    0    0 -0.85411529573E+02  0.65476904376E+02  0.16189508466E+03  0.23112258059E+03  0.12500109772E+03 0.  0.
          2    1    1    2  501    0  0.50880989573E+02 -0.67615895463E+02 -0.75541740891E+03  0.76014225386E+03  0.00000000000E+00 0. -1.
          1    1    1    2  502    0  0.34530540000E+02  0.21389910878E+01  0.28226176684E+03  0.28437411713E+03  0.00000000000E+00 0. -1.
         22    1    3    3    0    0 -0.24620351577E+02  0.94373250336E+02  0.99841135317E+02  0.13957336563E+03  0.00000000000E+00 0. -1.
         22    1    3    3    0    0 -0.60791177996E+02 -0.28896345960E+02  0.62053949346E+02  0.91549214969E+02  0.00000000000E+00 0. -1.
</event>
<event>
 7    1  0.5064652E-006  0.4252303E+02  0.7818608E-02  0.1575045E+00
          2   -1    0    0  502    0  0.00000000000E+00  0.00000000000E+00  0.78285456326E+02  0.78285456326E+02  0.00000000000E+00 0. -1.
          1   -1    0    0  501    0 -0.00000000000E+00 -0.00000000000E+00 -0.24669034390E+03  0.24669034390E+03  0.00000000000E+00 0. -1.
         25    2    1    2    0    0 -0.37238529829E+02 -0.24792914287E+02 -0.16920870494E+03  0.21507754066E+03  0.12500146384E+03 0.  0.
          2    1    1    2  501    0  0.43582803897E+02  0.12613252768E+01 -0.42065635143E+02  0.60585224246E+02  0.00000000000E+00 0. -1.
          1    1    1    2  502    0 -0.63442740682E+01  0.23531589011E+02  0.42869452510E+02  0.49313035329E+02  0.00000000000E+00 0. -1.
         22    1    3    3    0    0 -0.58986049509E+02  0.14782219390E+02 -0.15690167943E+03  0.16827360177E+03  0.00000000000E+00 0.  1.
         22    1    3    3    0    0  0.21747519680E+02 -0.39575133677E+02 -0.12307025518E+02  0.46803938882E+02  0.00000000000E+00 0.  1.
</event>
<event>
 7    1  0.5064652E-006  0.7721775E+02  0.7818608E-02  0.1470963E+00
          2   -1    0    0  502    0  0.00000000000E+00  0.00000000000E+00  0.67660400386E+03  0.67660400386E+03  0.00000000000E+00 0. -1.
          1   -1    0    0  501    0 -0.00000000000E+00 -0.00000000000E+00 -0.19890826001E+03  0.19890826001E+03  0.00000000000E+00 0. -1.
         25    2    1    2    0    0  0.89562713193E+02  0.31178960657E+02  0.48528095072E+03  0.51001600225E+03  0.12500045694E+03 0.  0.
          2    1    1    2  501    0 -0.25276645036E+02 -0.90989834602E+01 -0.17904787461E+03  0.18105204138E+03  0.00000000000E+00 0. -1.
          1    1    1    2  502    0 -0.64286068157E+02 -0.22079977197E+02  0.17146266775E+03  0.18444422025E+03  0.00000000000E+00 0. -1.
         22    1    3    3    0    0  0.10226647712E+03  0.30164539320E+02  0.22047091919E+03  0.24489948547E+03  0.00000000000E+00 0.  1.
         22    1    3    3    0    0 -0.12703763930E+02  0.10144213370E+01  0.26481003153E+03  0.26511651678E+03  0.00000000000E+00 0.  1.
</event>
<event>
 7    1  0.5064652E-006  0.7765121E+02  0.7818608E-02  0.1360117E+00
          2   -1    0    0  502    0  0.00000000000E+00  0.00000000000E+00  0.68093733652E+03  0.68093733652E+03  0.00000000000E+00 0. -1.
          1   -1    0    0  501    0 -0.00000000000E+00 -0.00000000000E+00 -0.10523465506E+04  0.10523465506E+04  0.00000000000E+00 0. -1.
         25    2    1    2    0    0 -0.18135522537E+02 -0.84484739989E+00  0.25320350124E+03  0.28296012589E+03  0.12499923543E+03 0.  0.
          2    1    1    2  501    0  0.65042809127E+02  0.43035762759E+02 -0.10335801968E+04  0.10365185319E+04  0.00000000000E+00 0. -1.
          1    1    1    2  502    0 -0.46907286590E+02 -0.42190915359E+02  0.40896748146E+03  0.41380522927E+03  0.00000000000E+00 0. -1.
         22    1    3    3    0    0 -0.70723021552E+02 -0.54351792432E+01  0.17263221711E+03  0.18663646304E+03  0.00000000000E+00 0.  1.
         22    1    3    3    0    0  0.52587499015E+02  0.45903318433E+01  0.80571284128E+02  0.96323662851E+02  0.00000000000E+00 0.  1.
</event>
<event>
 7    1  0.5064652E-006  0.9671646E+02  0.7818608E-02  0.1323108E+00
          2   -1    0    0  502    0  0.00000000000E+00  0.00000000000E+00  0.40584469439E+03  0.40584469439E+03  0.00000000000E+00 0. -1.
          1   -1    0    0  501    0 -0.00000000000E+00 -0.00000000000E+00 -0.75640647634E+03  0.75640647634E+03  0.00000000000E+00 0. -1.
         25    2    1    2    0    0 -0.12948647654E+03 -0.18004602499E+02 -0.26511971164E+03  0.32094252081E+03  0.12499890736E+03 0.  0.
          2    1    1    2  501    0  0.54885970055E+02 -0.43036716500E+02 -0.45452558936E+03  0.45984577856E+03  0.00000000000E+00 0. -1.
          1    1    1    2  502    0  0.74600506481E+02  0.61041319000E+02  0.36908351905E+03  0.38146287136E+03  0.00000000000E+00 0. -1.
         22    1    3    3    0    0  0.17003954344E+01  0.27602654445E+02 -0.81335130010E+01  0.28826236500E+02  0.00000000000E+00 0.  1.
         22    1    3    3    0    0 -0.13118687197E+03 -0.45607256944E+02 -0.25698619864E+03  0.29211628431E+03  0.00000000000E+00 0.  1.
</event>
<event>
 7    1  0.5064652E-006  0.5745730E+02  0.7818608E-02  0.1437970E+00
          2   -1    0    0  502    0  0.00000000000E+00  0.00000000000E+00  0.36615263490E+03  0.36615263490E+03  0.00000000000E+00 0. -1.
          1   -1    0    0  501    0 -0.00000000000E+00 -0.00000000000E+00 -0.36606655980E+03  0.36606655980E+03  0.00000000000E+00 0. -1.
         25    2    1    2    0    0  0.84137532215E+02  0.56756358295E+02 -0.21432289529E+03  0.26806460222E+03  0.12499567587E+03 0.  0.
          2    1    1    2  501    0 -0.42291442887E+02 -0.18015324357E+02 -0.11813133981E+03  0.12676013371E+03  0.00000000000E+00 0. -1.
          1    1    1    2  502    0 -0.41846089328E+02 -0.38741033938E+02  0.33254031020E+03  0.33739445877E+03  0.00000000000E+00 0. -1.
         22    1    3    3    0    0  0.34881861085E+02  0.91087856783E+02 -0.10481712372E+03  0.14317950730E+03  0.00000000000E+00 0. -1.
         22    1    3    3    0    0  0.49255671130E+02 -0.34331498488E+02 -0.10950577156E+03  0.12488509492E+03  0.00000000000E+00 0. -1.
</event>
<event>
 7    1  0.5064652E-006  0.2188135E+02  0.7818608E-02  0.1713542E+00
          2   -1    0    0  502    0  0.00000000000E+00  0.00000000000E+00  0.30696274430E+03  0.30696274430E+03  0.00000000000E+00 0. -1.
          1   -1    0    0  501    0 -0.00000000000E+00 -0.00000000000E+00 -0.52004220190E+03  0.52004220190E+03  0.00000000000E+00 0. -1.
         25    2    1    2    0    0  0.35863288747E+02 -0.19915429471E+02 -0.18847546911E+03  0.22984911817E+03  0.12499925943E+03 0.  0.
          2    1    1    2  501    0 -0.14366844454E+02  0.16014683692E+02 -0.31008980418E+03  0.31083526661E+03  0.00000000000E+00 0. -1.
          1    1    1    2  502    0 -0.21496444293E+02  0.39007457796E+01  0.28548581568E+03  0.28632056142E+03  0.00000000000E+00 0. -1.
         22    1    3    3    0    0  0.10933664432E+02  0.85032695120E+01  0.16427804325E+02  0.21487749190E+02  0.00000000000E+00 0.  1.
         22    1    3    3    0    0  0.24929624315E+02 -0.28418698983E+02 -0.20490327343E+03  0.20836136898E+03  0.00000000000E+00 0.  1.
</event>
<event>
 7    1  0.5064652E-006  0.8866680E+02  0.7818608E-02  0.1441132E+00
          2   -1    0    0  502    0  0.00000000000E+00  0.00000000000E+00  0.23854672294E+04  0.23854672294E+04  0.00000000000E+00 0. -1.
          1   -1    0    0  501    0 -0.00000000000E+00 -0.00000000000E+00 -0.79985119006E+03  0.79985119006E+03  0.00000000000E+00 0. -1.
         25    2    1    2    0    0  0.90687527349E+02 -0.15996071055E+02  0.63373461245E+03  0.65247676439E+03  0.12500506851E+03 0.  0.
          2    1    1    2  501    0 -0.87721775961E+02 -0.12944555247E+02 -0.78787144396E+03  0.79284556106E+03  0.00000000000E+00 0. -1.
          1    1    1    2  502    0 -0.29657513878E+01  0.28940626302E+02  0.17397528709E+04  0.17399960941E+04  0.00000000000E+00 0. -1.
         22    1    3    3    0    0  0.94337409641E+02 -0.27049514591E+02  0.25010088985E+03  0.26866648135E+03  0.00000000000E+00 0.  1.
         22    1    3    3    0    0 -0.36498822920E+01  0.11053443536E+02  0.38363372260E+03  0.38381028304E+03  0.00000000000E+00 0.  1.
</event>
<event>
 7    1  0.5064652E-006  0.9901374E+02  0.7818608E-02  0.1322413E+00
          2   -1    0    0  502    0  0.00000000000E+00  0.00000000000E+00  0.25479471653E+04  0.25479471653E+04  0.00000000000E+00 0. -1.
          1   -1    0    0  501    0 -0.00000000000E+00 -0.00000000000E+00 -0.81755678100E+03  0.81755678100E+03  0.00000000000E+00 0. -1.
         25    2    1    2    0    0 -0.20132215806E+01 -0.16171707314E+03  0.77412417569E+03  0.80065915897E+03  0.12502153674E+03 0.  0.
          2    1    1    2  501    0  0.44530448275E+00  0.68549419560E+02 -0.80159239981E+03  0.80451823886E+03  0.00000000000E+00 0. -1.
          1    1    1    2  502    0  0.15679170979E+01  0.93167653585E+02  0.17578586084E+04  0.17603265485E+04  0.00000000000E+00 0. -1.
         22    1    3    3    0    0 -0.46833078049E+02 -0.15116243987E+03  0.58786617273E+03  0.60879393678E+03  0.00000000000E+00 0. -1.
         22    1    3    3    0    0  0.44819856468E+02 -0.10554633276E+02  0.18625800296E+03  0.19186522219E+03  0.00000000000E+00 0. -1.
</event>
<event>
 7    1  0.5064652E-006  0.1143414E+03  0.7818608E-02  0.1313047E+00
          2   -1    0    0  502    0  0.00000000000E+00  0.00000000000E+00  0.20194380974E+04  0.20194380974E+04  0.00000000000E+00 0. -1.
          1   -1    0    0  501    0 -0.00000000000E+00 -0.00000000000E+00 -0.27797339456E+02  0.27797339456E+02  0.00000000000E+00 0. -1.
         25    2    1    2    0    0 -0.17094666103E+02  0.63627990040E+02  0.36079031722E+03  0.38747360985E+03  0.12500158642E+03 0.  0.
          2    1    1    2  501    0  0.23796404482E+02  0.60016253463E+02  0.74870438509E+02  0.98862541483E+02  0.00000000000E+00 0. -1.
          1    1    1    2  502    0 -0.67017383791E+01 -0.12364424350E+03  0.15559800023E+04  0.15608992856E+04  0.00000000000E+00 0. -1.
         22    1    3    3    0    0 -0.93311174675E+01 -0.32115186299E+02  0.37650623136E+02  0.50358955179E+02  0.00000000000E+00 0.  1.
         22    1    3    3    0    0 -0.77635486358E+01  0.95743176339E+02  0.32313969408E+03  0.33711465467E+03  0.00000000000E+00 0.  1.
</event>
<event>
 7    1  0.5064652E-006  0.1339571E+03  0.7818608E-02  0.1281742E+00
          2   -1    0    0  502    0  0.00000000000E+00  0.00000000000E+00  0.97724379023E+03  0.97724379023E+03  0.00000000000E+00 0. -1.
          1   -1    0    0  501    0 -0.00000000000E+00 -0.00000000000E+00 -0.23567680663E+04  0.23567680663E+04  0.00000000000E+00 0. -1.
         25    2    1    2    0    0 -0.18373396264E+02  0.70470562698E+02  0.12972731978E+03  0.19431309085E+03  0.12499887152E+03 0.  0.
          2    1    1    2  501    0 -0.22032104330E+02  0.70258556682E+02 -0.23173116468E+04  0.23184811724E+04  0.00000000000E+00 0. -1.
          1    1    1    2  502    0  0.40405500594E+02 -0.14072911938E+03  0.80806005096E+03  0.82121759326E+03  0.00000000000E+00 0. -1.
         22    1    3    3    0    0  0.34870847383E+02  0.82196244939E+02  0.90623012936E+02  0.12721921692E+03  0.00000000000E+00 0. -1.
         22    1    3    3    0    0 -0.53244243647E+02 -0.11725682241E+02  0.39104306840E+02  0.67093873931E+02  0.00000000000E+00 0. -1.
</event>
<event>
 7    1  0.5064652E-006  0.5608187E+02  0.7818608E-02  0.1461376E+00
          2   -1    0    0  502    0  0.00000000000E+00  0.00000000000E+00  0.51575215834E+03  0.51575215834E+03  0.00000000000E+00 0. -1.
          1   -1    0    0  501    0 -0.00000000000E+00 -0.00000000000E+00 -0.11833916734E+04  0.11833916734E+04  0.00000000000E+00 0. -1.
         25    2    1    2    0    0  0.82844778693E+02  0.38405293916E+02 -0.11164601957E+03  0.19086226539E+03  0.12500138682E+03 0.  0.
          2    1    1    2  501    0 -0.43401158613E+02 -0.34536471681E+02 -0.10305657477E+04  0.10320572604E+04  0.00000000000E+00 0. -1.
          1    1    1    2  502    0 -0.39443620079E+02 -0.38688222345E+01  0.47457225223E+03  0.47622430591E+03  0.00000000000E+00 0. -1.
         22    1    3    3    0    0  0.21027287824E+02  0.18503518846E+02 -0.12193453481E+03  0.12511018273E+03  0.00000000000E+00 0. -1.
         22    1    3    3    0    0  0.61817490869E+02  0.19901775069E+02  0.10288515240E+02  0.65752082660E+02  0.00000000000E+00 0. -1.
</event>
<event>
 7    1  0.5064652E-006  0.7328963E+02  0.7818608E-02  0.1353950E+00
          2   -1    0    0  502    0  0.00000000000E+00  0.00000000000E+00  0.10283864319E+04  0.10283864319E+04  0.00000000000E+00 0. -1.
          1   -1    0    0  501    0 -0.00000000000E+00 -0.00000000000E+00 -0.84482710443E+02  0.84482710443E+02  0.00000000000E+00 0. -1.
         25    2    1    2    0    0 -0.29821268046E+02  0.54610996786E+02  0.21447710353E+03  0.25592344303E+03  0.12499884703E+03 0.  0.
          2    1    1    2  501    0  0.73089415447E+02  0.54135589873E+01 -0.40321584981E+02  0.83649264711E+02  0.00000000000E+00 0. -1.
          1    1    1    2  502    0 -0.43268147401E+02 -0.60024555773E+02  0.76974820295E+03  0.77329643464E+03  0.00000000000E+00 0. -1.
         22    1    3    3    0    0 -0.75818254548E+02  0.39935381779E+02  0.16953834831E+03  0.18996445454E+03  0.00000000000E+00 0. -1.
         22    1    3    3    0    0  0.45996986501E+02  0.14675615007E+02  0.44938755214E+02  0.65958988494E+02  0.00000000000E+00 0. -1.
</event>
<event>
 7    1  0.5064652E-006  0.1670000E+03  0.7818608E-02  0.1336505E+00
          2   -1    0    0  502    0  0.00000000000E+00  0.00000000000E+00  0.29030561020E+03  0.29030561020E+03  0.00000000000E+00 0. -1.
          1   -1    0    0  501    0 -0.00000000000E+00 -0.00000000000E+00 -0.36700131511E+03  0.36700131511E+03  0.00000000000E+00 0. -1.
         25    2    1    2    0    0 -0.14291582281E+03  0.50340255223E+02  0.79958096903E+02  0.21207737112E+03  0.12499776148E+03 0.  0.
          2    1    1    2  501    0  0.14657622033E+03 -0.86054293318E+02 -0.27404256140E+03  0.32247365043E+03  0.00000000000E+00 0. -1.
          1    1    1    2  502    0 -0.36603975162E+01  0.35714038094E+02  0.11738875959E+03  0.12275590375E+03  0.00000000000E+00 0. -1.
         22    1    3    3    0    0 -0.93446458799E+02  0.87671052320E+02  0.27892510919E+02  0.13113522121E+03  0.00000000000E+00 0.  1.
         22    1    3    3    0    0 -0.49469364012E+02 -0.37330797097E+02  0.52065585984E+02  0.80942149907E+02  0.00000000000E+00 0.  1.
</event>
<event>
 7    1  0.5064652E-006  0.5098956E+02  0.7818608E-02  0.1460161E+00
          2   -1    0    0  502    0  0.00000000000E+00  0.00000000000E+00  0.37815911703E+04  0.37815911703E+04  0.00000000000E+00 0. -1.
          1   -1    0    0  501    0 -0.00000000000E+00 -0.00000000000E+00 -0.62062610495E+02  0.62062610495E+02  0.00000000000E+00 0. -1.
         25    2    1    2    0    0 -0.16487057791E+02 -0.16246711852E+01  0.24290952363E+04  0.24323664076E+04  0.12501284519E+03 0.  0.
          2    1    1    2  501    0  0.32955941824E+02 -0.39152319898E+02 -0.49165728821E+02  0.70966662211E+02  0.00000000000E+00 0. -1.
          1    1    1    2  502    0 -0.16468884034E+02  0.40776991083E+02  0.13395990524E+04  0.13403207110E+04  0.00000000000E+00 0. -1.
         22    1    3    3    0    0  0.15631024751E+02  0.50342684520E+02  0.61897818977E+03  0.62121873300E+03  0.00000000000E+00 0.  1.
         22    1    3    3    0    0 -0.32118082542E+02 -0.51967355705E+02  0.18101170465E+04  0.18111476746E+04  0.00000000000E+00 0.  1.
</event>
<event>
 7    1  0.5064652E-006  0.5084983E+02  0.7818608E-02  0.1456286E+00
          2   -1    0    0  502    0  0.00000000000E+00  0.00000000000E+00  0.40296579822E+03  0.40296579822E+03  0.00000000000E+00 0. -1.
          1   -1    0    0  501    0 -0.00000000000E+00 -0.00000000000E+00 -0.10772268775E+04  0.10772268775E+04  0.00000000000E+00 0. -1.
         25    2    1    2    0    0  0.17236158466E+02 -0.17902607001E+02 -0.42379125519E+03  0.44253963348E+03  0.12499884290E+03 0.  0.
          2    1    1    2  501    0 -0.54903182089E+02 -0.73707103552E+01 -0.64155697812E+03  0.64394413030E+03  0.00000000000E+00 0. -1.
          1    1    1    2  502    0  0.37667023623E+02  0.25273317356E+02  0.39108715407E+03  0.39370891191E+03  0.00000000000E+00 0. -1.
         22    1    3    3    0    0  0.64819426966E+02 -0.37608224061E+02 -0.27779667124E+03  0.28772717491E+03  0.00000000000E+00 0.  1.
         22    1    3    3    0    0 -0.47583268501E+02  0.19705617060E+02 -0.14599458395E+03  0.15481245857E+03  0.00000000000E+00 0.  1.
</event>
<event>
 7    1  0.5064652E-006  0.1118693E+03  0.7818608E-02  0.1277762E+00
          2   -1    0    0  502    0  0.00000000000E+00  0.00000000000E+00  0.12296653851E+04  0.12296653851E+04  0.00000000000E+00 0. -1.
          1   -1    0    0  501    0 -0.00000000000E+00 -0.00000000000E+00 -0.33603132037E+03  0.33603132037E+03  0.00000000000E+00 0. -1.
         25    2    1    2    0    0  0.17282637450E+03  0.75380268627E+02  0.19885624576E+03  0.30119775495E+03  0.12500056194E+03 0.  0.
          2    1    1    2  501    0 -0.81292545017E+02 -0.72637412864E+02 -0.27218722196E+03  0.29320735909E+03  0.00000000000E+00 0. -1.
          1    1    1    2  502    0 -0.91533829485E+02 -0.27428557631E+01  0.96696504091E+03  0.97129159141E+03  0.00000000000E+00 0. -1.
         22    1    3    3    0    0  0.12936065550E+03  0.46995296626E+02  0.54919250038E+02  0.14818522572E+03  0.00000000000E+00 0. -1.
         22    1    3    3    0    0  0.43465719005E+02  0.28384972002E+02  0.14393699572E+03  0.15301252923E+03  0.00000000000E+00 0. -1.
</event>
<event>
 7    1  0.5064652E-006  0.7892514E+02  0.7818608E-02  0.1438840E+00
          2   -1    0    0  502    0  0.00000000000E+00  0.00000000000E+00  0.56024026933E+03  0.56024026933E+03  0.00000000000E+00 0. -1.
          1   -1    0    0  501    0 -0.00000000000E+00 -0.00000000000E+00 -0.36268588365E+03  0.36268588365E+03  0.00000000000E+00 0. -1.
         25    2    1    2    0    0  0.56501394379E+02 -0.63415421938E+01 -0.54871675402E+02  0.14787773318E+03  0.12499720191E+03 0.  0.
          2    1    1    2  501    0 -0.75048610534E+02  0.33935341467E+02 -0.25426254079E+03  0.26727016480E+03  0.00000000000E+00 0. -1.
          1    1    1    2  502    0  0.18547216156E+02 -0.27593799273E+02  0.50668860187E+03  0.50777825500E+03  0.00000000000E+00 0. -1.
         22    1    3    3    0    0 -0.19370213166E+02  0.42695933024E+02 -0.21394174727E+02  0.51535022724E+02  0.00000000000E+00 0.  1.
         22    1    3    3    0    0  0.75871607545E+02 -0.49037475218E+02 -0.33477500675E+02  0.96342710459E+02  0.00000000000E+00 0.  1.
</event>
<event>
 7    1  0.5064652E-006  0.8028572E+02  0.7818608E-02  0.1400125E+00
          2   -1    0    0  502    0  0.00000000000E+00  0.00000000000E+00  0.86791714063E+02  0.86791714063E+02  0.00000000000E+00 0. -1.
          1   -1    0    0  501    0 -0.00000000000E+00 -0.00000000000E+00 -0.10938907533E+04  0.10938907533E+04  0.00000000000E+00 0. -1.
         25    2    1    2    0    0  0.47093470677E+02 -0.51332081360E+02 -0.79300837002E+03  0.80581711933E+03  0.12500470925E+03 0.  0.
          2    1    1    2  501    0 -0.32051398404E+02  0.92714769687E+02 -0.27938769316E+03  0.29610944556E+03  0.00000000000E+00 0. -1.
          1    1    1    2  502    0 -0.15042072272E+02 -0.41382688327E+02  0.65297023967E+02  0.78755902448E+02  0.00000000000E+00 0. -1.
         22    1    3    3    0    0  0.68981087068E+02 -0.13670547617E+02 -0.69519596482E+03  0.69874366097E+03  0.00000000000E+00 0. -1.
         22    1    3    3    0    0 -0.21887616391E+02 -0.37661533743E+02 -0.97812405201E+02  0.10707345837E+03  0.00000000000E+00 0. -1.
</event>
<event>
 7    1  0.5064652E-006  0.1086856E+03  0.7818608E-02  0.1337643E+00
          2   -1    0    0  502    0  0.00000000000E+00  0.00000000000E+00  0.10845809852E+04  0.10845809852E+04  0.00000000000E+00 0. -1.
          1   -1    0    0  501    0 -0.00000000000E+00 -0.00000000000E+00 -0.17723860499E+04  0.17723860499E+04  0.00000000000E+00 0. -1.
         25    2    1    2    0    0  0.72548421560E+01  0.12529130991E+03 -0.39605802609E+02  0.18150231698E+03  0.12499570551E+03 0.  0.
          2    1    1    2  501    0 -0.48606667387E+02 -0.24914726664E+02 -0.16584743776E+04  0.16593735604E+04  0.00000000000E+00 0. -1.
          1    1    1    2  502    0  0.41351825231E+02 -0.10037658325E+03  0.10102751155E+04  0.10160911578E+04  0.00000000000E+00 0. -1.
         22    1    3    3    0    0  0.38745025917E+01 -0.20497545072E+01 -0.53211619332E+02  0.53391850462E+02  0.00000000000E+00 0.  1.
         22    1    3    3    0    0  0.33803395643E+01  0.12734106442E+03  0.13605816722E+02  0.12811046652E+03  0.00000000000E+00 0.  1.
</event>
<event>
 7    1  0.5064652E-006  0.8839793E+02  0.7818608E-02  0.1359941E+00
          2   -1    0    0  502    0  0.00000000000E+00  0.00000000000E+00  0.89639591755E+02  0.89639591755E+02  0.00000000000E+00 0. -1.
          1   -1    0    0  501    0 -0.00000000000E+00 -0.00000000000E+00 -0.19596127739E+04  0.19596127739E+04  0.00000000000E+00 0. -1.
         25    2    1    2    0    0  0.34089662273E+02  0.50149980060E+02 -0.26069661666E+03  0.29541257447E+03  0.12501494968E+03 0.  0.
          2    1    1    2  501    0 -0.35900572462E+02  0.42327378361E+02 -0.16513095305E+04  0.16522419991E+04  0.00000000000E+00 0. -1.
          1    1    1    2  502    0  0.18109101893E+01 -0.92477358421E+02  0.42032964990E+02  0.10159779211E+03  0.00000000000E+00 0. -1.
         22    1    3    3    0    0 -0.29827395299E+02  0.26931170388E+02 -0.19225837009E+02  0.44548785141E+02  0.00000000000E+00 0.  1.
         22    1    3    3    0    0  0.63917057572E+02  0.23218809672E+02 -0.24147077965E+03  0.25086378933E+03  0.00000000000E+00 0.  1.
</event>
<event>
 7    1  0.5064652E-006  0.6363351E+02  0.7818608E-02  0.1391260E+00
          2   -1    0    0  502    0  0.00000000000E+00  0.00000000000E+00  0.13874968734E+04  0.13874968734E+04  0.00000000000E+00 0. -1.
          1   -1    0    0  501    0 -0.00000000000E+00 -0.00000000000E+00 -0.16869651723E+03  0.16869651723E+03  0.00000000000E+00 0. -1.
         25    2    1    2    0    0  0.71799392878E+01  0.15387870070E+02  0.11018389007E+03  0.16749511443E+03  0.12500314257E+03 0.  0.
          2    1    1    2  501    0  0.58098362651E+02 -0.13387527417E+02 -0.13279768470E+03  0.14556740945E+03  0.00000000000E+00 0. -1.
          1    1    1    2  502    0 -0.65278301939E+02 -0.20003426523E+01  0.12414141508E+04  0.12431308667E+04  0.00000000000E+00 0. -1.
         22    1    3    3    0    0  0.24079812518E+02 -0.50458527644E+02  0.65626904999E+02  0.86213636059E+02  0.00000000000E+00 0.  1.
         22    1    3    3    0    0 -0.16899873230E+02  0.65846397714E+02  0.44556985068E+02  0.81281478366E+02  0.00000000000E+00 0.  1.
</event>
<event>
 7    1  0.5064652E-006  0.4265636E+02  0.7818608E-02  0.1543069E+00
          2   -1    0    0  502    0  0.00000000000E+00  0.00000000000E+00  0.83551745943E+03  0.83551745943E+03  0.00000000000E+00 0. -1.
          1   -1    0    0  501    0 -0.00000000000E+00 -0.00000000000E+00 -0.10700872015E+04  0.10700872015E+04  0.00000000000E+00 0. -1.
         25    2    1    2    0    0  0.26009875716E+00  0.71178488442E+02 -0.14964195022E+03  0.20756641110E+03  0.12499862754E+03 0.  0.
          2    1    1    2  501    0  0.49727592135E+01 -0.41879628462E+02 -0.89070934802E+03  0.89170722452E+03  0.00000000000E+00 0. -1.
          1    1    1    2  502    0 -0.52328579707E+01 -0.29298859980E+02  0.80578155620E+03  0.80633102527E+03  0.00000000000E+00 0. -1.
         22    1    3    3    0    0  0.35505143912E+01  0.10562236588E+03 -0.90926063057E+02  0.13941391347E+03  0.00000000000E+00 0.  1.
         22    1    3    3    0    0 -0.32904156340E+01 -0.34443877441E+02 -0.58715887160E+02  0.68152497630E+02  0.00000000000E+00 0.  1.
</event>
<event>
 7    1  0.5064652E-006  0.4082803E+02  0.7818608E-02  0.1503283E+00
          2   -1    0    0  502    0  0.00000000000E+00  0.00000000000E+00  0.57944089385E+03  0.57944089385E+03  0.00000000000E+00 0. -1.
          1   -1    0    0  501    0 -0.00000000000E+00 -0.00000000000E+00 -0.73682305160E+02  0.73682305160E+02  0.00000000000E+00 0. -1.
         25    2    1    2    0    0 -0.12716435566E+02 -0.26827317120E+02  0.79264964349E+02  0.15095922849E+03  0.12499736563E+03 0.  0.
          2    1    1    2  501    0 -0.27081311957E+02  0.34485120437E+02 -0.23908369927E+02  0.49942278096E+02  0.00000000000E+00 0. -1.
          1    1    1    2  502    0  0.39797747523E+02 -0.76578033163E+01  0.45040199426E+03  0.45222169242E+03  0.00000000000E+00 0. -1.
         22    1    3    3    0    0 -0.31777447896E+02  0.44444340185E+02  0.31410348991E+02  0.63021548640E+02  0.00000000000E+00 0. -1.
         22    1    3    3    0    0  0.19061012330E+02 -0.71271657305E+02  0.47854615359E+02  0.87937679849E+02  0.00000000000E+00 0. -1.
</event>
<event>
 7    1  0.5064652E-006  0.1046035E+03  0.7818608E-02  0.1345275E+00
          2   -1    0    0  502    0  0.00000000000E+00  0.00000000000E+00  0.17080338081E+04  0.17080338081E+04  0.00000000000E+00 0. -1.
          1   -1    0    0  501    0 -0.00000000000E+00 -0.00000000000E+00 -0.26121108857E+04  0.26121108857E+04  0.00000000000E+00 0. -1.
         25    2    1    2    0    0 -0.13644287709E+03 -0.41499236781E+02  0.20981383028E+03  0.28281615808E+03  0.12499716210E+03 0.  0.
          2    1    1    2  501    0  0.33446092330E+02  0.41279884329E+02 -0.25735208391E+04  0.25740691870E+04  0.00000000000E+00 0. -1.
          1    1    1    2  502    0  0.10299678476E+03  0.21935245214E+00  0.14596299312E+04  0.14632593488E+04  0.00000000000E+00 0. -1.
         22    1    3    3    0    0  0.21025130985E+02  0.99992797811E+01  0.34336067808E+02  0.41485024787E+02  0.00000000000E+00 0.  1.
         22    1    3    3    0    0 -0.15746800807E+03 -0.51498516562E+02  0.17547776247E+03  0.24133113330E+03  0.00000000000E+00 0.  1.
</event>
<event>
 7    1  0.5064652E-006  0.2089156E+03  0.7818608E-02  0.1303546E+00
          2   -1    0    0  502    0  0.00000000000E+00  0.00000000000E+00  0.79043416545E+03  0.79043416545E+03  0.00000000000E+00 0. -1.
          1   -1    0    0  501    0 -0.00000000000E+00 -0.00000000000E+00 -0.29152592437E+03  0.29152592437E+03  0.00000000000E+00 0. -1.
         25    2    1    2    0    0  0.20107258857E+03  0.30062735833E+02 -0.91614437654E+02  0.25564005369E+03  0.12499871161E+03 0.  0.
          2    1    1    2  501    0 -0.20653172502E+03 -0.68199358051E+02 -0.16453897512E+02  0.21812206817E+03  0.00000000000E+00 0. -1.
          1    1    1    2  502    0  0.54591364482E+01  0.38136622218E+02  0.60697657624E+03  0.60819796796E+03  0.00000000000E+00 0. -1.
         22    1    3    3    0    0  0.53341194452E+02 -0.44090112503E+02 -0.59386057178E+01  0.69458534997E+02  0.00000000000E+00 0.  1.
         22    1    3    3    0    0  0.14773139412E+03  0.74152848336E+02 -0.85675831936E+02  0.18618151869E+03  0.00000000000E+00 0.  1.
</event>
<event>
 7    1  0.5064652E-006  0.4486272E+02  0.7818608E-02  0.1596695E+00
          2   -1    0    0  502    0  0.00000000000E+00  0.00000000000E+00  0.89663887918E+02  0.89663887918E+02  0.00000000000E+00 0. -1.
          1   -1    0    0  501    0 -0.00000000000E+00 -0.00000000000E+00 -0.12764744852E+04  0.12764744852E+04  0.00000000000E+00 0. -1.
         25    2    1    2    0    0  0.24197110305E+02  0.28443995418E+02 -0.28676692154E+03  0.31504899725E+03  0.12500416935E+03 0.  0.
          2    1    1    2  501    0  0.17236886629E+02 -0.10591147442E+02 -0.96871344823E+03  0.96892467584E+03  0.00000000000E+00 0. -1.
          1    1    1    2  502    0 -0.41433996933E+02 -0.17852847976E+02  0.68669772473E+02  0.82164700049E+02  0.00000000000E+00 0. -1.
         22    1    3    3    0    0  0.91319076301E+01 -0.44027339891E+02 -0.51274285817E+02  0.68197146428E+02  0.00000000000E+00 0.  1.
         22    1    3    3    0    0  0.15065202674E+02  0.72471335310E+02 -0.23549263573E+03  0.24685185082E+03  0.00000000000E+00 0.  1.
</event>
<event>
 7    1  0.5178550E-006  0.1560391E+03  0.7818608E-02  0.1288866E+00
          2   -1    0    0  502    0  0.00000000000E+00  0.00000000000E+00  0.77388920964E+03  0.77388920964E+03  0.00000000000E+00 0. -1.
          1   -1    0    0  501    0 -0.00000000000E+00 -0.00000000000E+00 -0.17003452867E+04  0.17003452867E+04  0.00000000000E+00 0. -1.
         25    2    1    2    0    0 -0.12574776475E+03 -0.14511169213E+03 -0.39655256385E+03  0.45798214610E+03  0.12499522677E+03 0.  0.
          2    1    1    2  501    0 -0.37028834387E+01  0.58986899229E+02 -0.12642476601E+04  0.12656284256E+04  0.00000000000E+00 0. -1.
          1    1    1    2  502    0  0.12945064819E+03  0.86124792902E+02  0.73434414686E+03  0.75062392468E+03  0.00000000000E+00 0. -1.
         22    1    3    3    0    0 -0.31950366310E+02 -0.73918067652E+02 -0.28359976287E+03  0.29481101088E+03  0.00000000000E+00 0. -1.
         22    1    3    3    0    0 -0.93797398439E+02 -0.71193624479E+02 -0.11295280098E+03  0.16317113522E+03  0.00000000000E+00 0. -1.
</event>
<event>
 7    1  0.5064652E-006  0.9164376E+02  0.7818608E-02  0.1375278E+00
          2   -1    0    0  502    0  0.00000000000E+00  0.00000000000E+00  0.19090484281E+04  0.19090484281E+04  0.00000000000E+00 0. -1.
          1   -1    0    0  501    0 -0.00000000000E+00 -0.00000000000E+00 -0.30162584101E+03  0.30162584101E+03  0.00000000000E+00 0. -1.
         25    2    1    2    0    0 -0.57939484186E+02 -0.56560923662E+02  0.45443157337E+03  0.47821377432E+03  0.12499694862E+03 0.  0.
          2    1    1    2  501    0 -0.33429139483E+02  0.33224599339E+02 -0.28626470618E+03  0.29011870566E+03  0.00000000000E+00 0. -1.
          1    1    1    2  502    0  0.91368623668E+02  0.23336324323E+02  0.14392557199E+04  0.14423417891E+04  0.00000000000E+00 0. -1.
         22    1    3    3    0    0 -0.14424241895E+02 -0.82469359951E+02  0.17218950622E+03  0.19146404398E+03  0.00000000000E+00 0. -1.
         22    1    3    3    0    0 -0.43515242291E+02  0.25908436289E+02  0.28224206715E+03  0.28674973034E+03  0.00000000000E+00 0. -1.
</event>
<event>
 7    1  0.5064652E-006  0.1181696E+03  0.7818608E-02  0.1295609E+00
          2   -1    0    0  502    0  0.00000000000E+00  0.00000000000E+00  0.13783936443E+04  0.13783936443E+04  0.00000000000E+00 0. -1.
          1   -1    0    0  501    0 -0.00000000000E+00 -0.00000000000E+00 -0.58510549218E+03  0.58510549218E+03  0.00000000000E+00 0. -1.
         25    2    1    2    0    0  0.33735130320E+02  0.17993483110E+03  0.86829253967E+01  0.22184365513E+03  0.12499844666E+03 0.  0.
          2    1    1    2  501    0 -0.40703821495E+02 -0.10698283037E+03 -0.47059599758E+03  0.48431675587E+03  0.00000000000E+00 0. -1.
          1    1    1    2  502    0  0.69686911752E+01 -0.72952000734E+02  0.12552012243E+04  0.12573387254E+04  0.00000000000E+00 0. -1.
         22    1    3    3    0    0  0.52948129155E+02  0.19032356449E+02 -0.14614661757E+02  0.58131947424E+02  0.00000000000E+00 0.  1.
         22    1    3    3    0    0 -0.19212998836E+02  0.16090247465E+03  0.23297587154E+02  0.16371170771E+03  0.00000000000E+00 0.  1.
</event>
<event>
 7    1  0.5064652E-006  0.5344122E+02  0.7818608E-02  0.1523753E+00
          2   -1    0    0  502    0  0.00000000000E+00  0.00000000000E+00  0.11305333979E+04  0.11305333979E+04  0.00000000000E+00 0. -1.
          1   -1    0    0  501    0 -0.00000000000E+00 -0.00000000000E+00 -0.41611314296E+02  0.41611314296E+02  0.00000000000E+00 0. -1.
         25    2    1    2    0    0  0.24373048994E+02 -0.36114858273E+02  0.73294490845E+03  0.74480230599E+03  0.12499563066E+03 0.  0.
          2    1    1    2  501    0 -0.16039568916E+02 -0.21680728194E+02 -0.28043770580E+02  0.38907259147E+02  0.00000000000E+00 0. -1.
          1    1    1    2  502    0 -0.83334800788E+01  0.57795586466E+02  0.38402094570E+03  0.38843514702E+03  0.00000000000E+00 0. -1.
         22    1    3    3    0    0  0.48817318943E+02 -0.23323633810E+02  0.69886056727E+03  0.70095164956E+03  0.00000000000E+00 0. -1.
         22    1    3    3    0    0 -0.24444269949E+02 -0.12791224463E+02  0.34084341171E+02  0.43850656434E+02  0.00000000000E+00 0. -1.
</event>
<event>
 7    1  0.5064652E-006  0.2641102E+02  0.7818608E-02  0.1680803E+00
          2   -1    0    0  502    0  0.00000000000E+00  0.00000000000E+00  0.17541274442E+04  0.17541274442E+04  0.00000000000E+00 0. -1.
          1   -1    0    0  501    0 -0.00000000000E+00 -0.00000000000E+00 -0.17467887109E+04  0.17467887109E+04  0.00000000000E+00 0. -1.
         25    2    1    2    0    0 -0.12355601187E+02  0.57291876707E+00  0.59938274840E+03  0.61240078745E+03  0.12498822454E+03 0.  0.
          2    1    1    2  501    0  0.17132901008E+02  0.20103991013E+02 -0.17400813939E+04  0.17402818634E+04  0.00000000000E+00 0. -1.
          1    1    1    2  502    0 -0.47772998211E+01 -0.20676909780E+02  0.11480373788E+04  0.11482335043E+04  0.00000000000E+00 0. -1.
         22    1    3    3    0    0  0.45765173775E+02 -0.32138643146E+01  0.44563832138E+03  0.44799363113E+03  0.00000000000E+00 0. -1.
         22    1    3    3    0    0 -0.58120774962E+02  0.37867830816E+01  0.15374442702E+03  0.16440715632E+03  0.00000000000E+00 0. -1.
</event>
<event>
 7    1  0.5064652E-006  0.9328838E+02  0.7818608E-02  0.1321353E+00
          2   -1    0    0  502    0  0.00000000000E+00  0.00000000000E+00  0.30231733066E+04  0.30231733066E+04  0.00000000000E+00 0. -1.
          1   -1    0    0  501    0 -0.00000000000E+00 -0.00000000000E+00 -0.14099079255E+03  0.14099079255E+03  0.00000000000E+00 0. -1.
         25    2    1    2    0    0  0.16566501326E+02 -0.80244570544E+02  0.14725334521E+03  0.20981512429E+03  0.12500079455E+03 0.  0.
          2    1    1    2  501    0 -0.73280616774E+02  0.49582133291E+01 -0.96544223228E+02  0.12130712969E+03  0.00000000000E+00 0. -1.
          1    1    1    2  502    0  0.56714115448E+02  0.75286357215E+02  0.28314733921E+04  0.28330418452E+04  0.00000000000E+00 0. -1.
         22    1    3    3    0    0 -0.30106520173E+01  0.33162270337E+02  0.44160741813E+02  0.55307967933E+02  0.00000000000E+00 0.  1.
         22    1    3    3    0    0  0.19577153344E+02 -0.11340684088E+03  0.10309260339E+03  0.15450715636E+03  0.00000000000E+00 0.  1.
</event>
<event>
 7    1  0.5064652E-006  0.9032033E+02  0.7818608E-02  0.1437512E+00
          2   -1    0    0  502    0  0.00000000000E+00  0.00000000000E+00  0.13912971369E+04  0.13912971369E+04  0.00000000000E+00 0. -1.
          1   -1    0    0  501    0 -0.00000000000E+00 -0.00000000000E+00 -0.49202527579E+03  0.49202527579E+03  0.00000000000E+00 0. -1.
         25    2    1    2    0    0  0.20840754133E+01 -0.66539279392E+02  0.11726698025E+04  0.11811907060E+04  0.12500079698E+03 0.  0.
          2    1    1    2  501    0  0.17046704092E+02  0.88789212733E+02 -0.48254219708E+03  0.49093898437E+03  0.00000000000E+00 0. -1.
          1    1    1    2  502    0 -0.19130779505E+02 -0.22249933341E+02  0.20914425570E+03  0.21119272229E+03  0.00000000000E+00 0. -1.
         22    1    3    3    0    0  0.30969838943E+02  0.21055772582E+02  0.15978161337E+03  0.16411167068E+03  0.00000000000E+00 0. -1.
         22    1    3    3    0    0 -0.28885763530E+02 -0.87595051974E+02  0.10128881891E+04  0.10170790353E+04  0.00000000000E+00 0. -1.
</event>
<event>
 7    1  0.5064652E-006  0.8773524E+02  0.7818608E-02  0.1343854E+00
          2   -1    0    0  502    0  0.00000000000E+00  0.00000000000E+00  0.11756519545E+04  0.11756519545E+04  0.00000000000E+00 0. -1.
          1   -1    0    0  501    0 -0.00000000000E+00 -0.00000000000E+00 -0.27199494752E+03  0.27199494752E+03  0.00000000000E+00 0. -1.
         25    2    1    2    0    0 -0.48087790383E+02  0.35401090223E+02 -0.11167722309E+03  0.17794062360E+03  0.12500156238E+03 0.  0.
          2    1    1    2  501    0  0.11030464091E+03 -0.19884008654E+02 -0.10139329623E+03  0.15113930040E+03  0.00000000000E+00 0. -1.
          1    1    1    2  502    0 -0.62216850523E+02 -0.15517081569E+02  0.11167275263E+04  0.11185669780E+04  0.00000000000E+00 0. -1.
         22    1    3    3    0    0 -0.72063680943E+02  0.56751169852E+02 -0.41318585685E+02  0.10060365259E+03  0.00000000000E+00 0. -1.
         22    1    3    3    0    0  0.23975890560E+02 -0.21350079629E+02 -0.70358637405E+02  0.77336971015E+02  0.00000000000E+00 0. -1.
</event>
<event>
 7    1  0.5064652E-006  0.1037957E+03  0.7818608E-02  0.1422854E+00
          2   -1    0    0  502    0  0.00000000000E+00  0.00000000000E+00  0.51262764822E+03  0.51262764822E+03  0.00000000000E+00 0. -1.
          1   -1    0    0  501    0 -0.00000000000E+00 -0.00000000000E+00 -0.54222347604E+03  0.54222347604E+03  0.00000000000E+00 0. -1.
         25    2    1    2    0    0  0.11588822732E+03  0.34072896516E+02 -0.18998100975E+03  0.25750669038E+03  0.12500347202E+03 0.  0.
          2    1    1    2  501    0 -0.24573493016E+02  0.14502823492E+02 -0.31223640917E+03  0.31353749960E+03  0.00000000000E+00 0. -1.
          1    1    1    2  502    0 -0.91314734301E+02 -0.48575720008E+02  0.47262159110E+03  0.48380693427E+03  0.00000000000E+00 0. -1.
         22    1    3    3    0    0  0.17065274861E+02 -0.22740669526E+02  0.75746255472E+01  0.29423402399E+02  0.00000000000E+00 0. -1.
         22    1    3    3    0    0  0.98822952456E+02  0.56813566042E+02 -0.19755563530E+03  0.22808328798E+03  0.00000000000E+00 0. -1.
</event>
<event>
 7    1  0.5064652E-006  0.7324428E+02  0.7818608E-02  0.1473138E+00
          2   -1    0    0  502    0  0.00000000000E+00  0.00000000000E+00  0.93161274468E+01  0.93161274468E+01  0.00000000000E+00 0. -1.
          1   -1    0    0  501    0 -0.00000000000E+00 -0.00000000000E+00 -0.35309460316E+04  0.35309460316E+04  0.00000000000E+00 0. -1.
         25    2    1    2    0    0  0.90262795235E+02 -0.37679889570E+02 -0.14053816430E+04  0.14143161117E+04  0.12500142025E+03 0.  0.
          2    1    1    2  501    0 -0.63912992042E+02  0.28554109225E+02 -0.20748589294E+04  0.20760394468E+04  0.00000000000E+00 0. -1.
          1    1    1    2  502    0 -0.26349803193E+02  0.91257803443E+01 -0.41389331707E+02  0.49906600509E+02  0.00000000000E+00 0. -1.
         22    1    3    3    0    0  0.10516174064E+02 -0.70400777431E+02 -0.54544999099E+03  0.55007504220E+03  0.00000000000E+00 0. -1.
         22    1    3    3    0    0  0.79746621171E+02  0.32720887861E+02 -0.85993165204E+03  0.86424106953E+03  0.00000000000E+00 0. -1.
</event>
<event>
 7    1  0.5064652E-006  0.8493464E+02  0.7818608E-02  0.1492324E+00
          2   -1    0    0  502    0  0.00000000000E+00  0.00000000000E+00  0.18004671029E+02  0.18004671029E+02  0.00000000000E+00 0. -1.
          1   -1    0    0  501    0 -0.00000000000E+00 -0.00000000000E+00 -0.20592823608E+04  0.20592823608E+04  0.00000000000E+00 0. -1.
         25    2    1    2    0    0 -0.47213275630E+02 -0.63520735801E+02 -0.11851280229E+04  0.11943277111E+04  0.12500509493E+03 0.  0.
          2    1    1    2  501    0 -0.19029896196E+02  0.89044582559E+01 -0.73036561169E+03  0.73066774464E+03  0.00000000000E+00 0. -1.
          1    1    1    2  502    0  0.66243171826E+02  0.54616277545E+02 -0.12578405523E+03  0.15229157605E+03  0.00000000000E+00 0. -1.
         22    1    3    3    0    0  0.93247906851E+01 -0.75024873083E+02 -0.39995520596E+03  0.40703789759E+03  0.00000000000E+00 0.  1.
         22    1    3    3    0    0 -0.56538066315E+02  0.11504137283E+02 -0.78517281691E+03  0.78728981356E+03  0.00000000000E+00 0.  1.
</event>
<event>
 7    1  0.5064652E-006  0.1601842E+03  0.7818608E-02  0.1299544E+00
          2   -1    0    0  502    0  0.00000000000E+00  0.00000000000E+00  0.72322283126E+03  0.72322283126E+03  0.00000000000E+00 0. -1.
          1   -1    0    0  501    0 -0.00000000000E+00 -0.00000000000E+00 -0.11596160806E+04  0.11596160806E+04  0.00000000000E+00 0. -1.
         25    2    1    2    0    0  0.68231681662E+02 -0.19855092577E+03  0.22830941753E+02  0.24540672140E+03  0.12500069799E+03 0.  0.
          2    1    1    2  501    0 -0.54647672483E+02  0.14822268734E+03 -0.10412051109E+04  0.10531212732E+04  0.00000000000E+00 0. -1.
          1    1    1    2  502    0 -0.13584009178E+02  0.50328238430E+02  0.58198091985E+03  0.58431091720E+03  0.00000000000E+00 0. -1.
         22    1    3    3    0    0 -0.23768912195E+02 -0.79397007997E+02 -0.26467015564E+02  0.87002005601E+02  0.00000000000E+00 0.  1.
         22    1    3    3    0    0  0.92000593856E+02 -0.11915391778E+03  0.49297957317E+02  0.15840471580E+03  0.00000000000E+00 0.  1.
</event>
<event>
 7    1  0.5064652E-006  0.1415400E+03  0.7818608E-02  0.1351277E+00
          2   -1    0    0  502    0  0.00000000000E+00  0.00000000000E+00  0.24003310293E+04  0.24003310293E+04  0.00000000000E+00 0. -1.
          1   -1    0    0  501    0 -0.00000000000E+00 -0.00000000000E+00 -0.43330210195E+03  0.43330210195E+03  0.00000000000E+00 0. -1.
         25    2    1    2    0    0  0.25492921256E+02 -0.12039393636E+03 -0.31989218593E+02  0.17830123188E+03  0.12499372078E+03 0.  0.
          2    1    1    2  501    0 -0.30470111533E+02 -0.21513246010E+02 -0.32492296665E+03  0.32705684782E+03  0.00000000000E+00 0. -1.
          1    1    1    2  502    0  0.49771902778E+01  0.14190718237E+03  0.23239411126E+04  0.23282750516E+04  0.00000000000E+00 0. -1.
         22    1    3    3    0    0  0.32345992870E+02 -0.71149256304E+01  0.33637829348E+02  0.47205815158E+02  0.00000000000E+00 0. -1.
         22    1    3    3    0    0 -0.68530716147E+01 -0.11327901073E+03 -0.65627047942E+02  0.13109541672E+03  0.00000000000E+00 0. -1.
</event>
<event>
 7    1  0.5064652E-006  0.6646063E+02  0.7818608E-02  0.1440099E+00
          2   -1    0    0  502    0  0.00000000000E+00  0.00000000000E+00  0.25551842346E+04  0.25551842346E+04  0.00000000000E+00 0. -1.
          1   -1    0    0  501    0 -0.00000000000E+00 -0.00000000000E+00 -0.52217932929E+03  0.52217932929E+03  0.00000000000E+00 0. -1.
         25    2    1    2    0    0 -0.26705456571E+02  0.10077406056E+02  0.15552174223E+03  0.20156501831E+03  0.12500683492E+03 0.  0.
          2    1    1    2  501    0 -0.38738840395E+02  0.53984955634E+01 -0.49791487529E+03  0.49944876068E+03  0.00000000000E+00 0. -1.
          1    1    1    2  502    0  0.65444296966E+02 -0.15475901619E+02  0.23753980384E+04  0.23763497849E+04  0.00000000000E+00 0. -1.
         22    1    3    3    0    0  0.45277151730E+02  0.28776859922E+02  0.59602371429E+02  0.80190839974E+02  0.00000000000E+00 0.  1.
         22    1    3    3    0    0 -0.71982608301E+02 -0.18699453866E+02  0.95919370797E+02  0.12137417834E+03  0.00000000000E+00 0.  1.
</event>
<event>
 7    1  0.5064652E-006  0.5673501E+02  0.7818608E-02  0.1413895E+00
          2   -1    0    0  502    0  0.00000000000E+00  0.00000000000E+00  0.63073702763E+02  0.63073702763E+02  0.00000000000E+00 0. -1.
          1   -1    0    0  501    0 -0.00000000000E+00 -0.00000000000E+00 -0.81332959918E+03  0.81332959918E+03  0.00000000000E+00 0. -1.
         25    2    1    2    0    0 -0.25256407382E+02  0.24376993686E+02 -0.23943743266E+03  0.27235276159E+03  0.12495446632E+03 0.  0.
          2    1    1    2  501    0 -0.19605119874E+02 -0.57786226038E+02 -0.53828704470E+03  0.54173476087E+03  0.00000000000E+00 0. -1.
          1    1    1    2  502    0  0.44861527256E+02  0.33409232352E+02  0.27468580938E+02  0.62315779485E+02  0.00000000000E+00 0. -1.
         22    1    3    3    0    0  0.10989712819E+02 -0.30344345315E+02 -0.10113820123E+02  0.33820739760E+02  0.00000000000E+00 0. -1.
         22    1    3    3    0    0 -0.36246120201E+02  0.54721339001E+02 -0.22932361253E+03  0.23853202183E+03  0.00000000000E+00 0. -1.
</event>
<event>
 7    1  0.5064652E-006  0.6505788E+02  0.7818608E-02  0.1489501E+00
          2   -1    0    0  502    0  0.00000000000E+00  0.00000000000E+00  0.64192765246E+03  0.64192765246E+03  0.00000000000E+00 0. -1.
          1   -1    0    0  501    0 -0.00000000000E+00 -0.00000000000E+00 -0.21942483657E+03  0.21942483657E+03  0.00000000000E+00 0. -1.
         25    2    1    2    0    0  0.41706481875E+02 -0.81450200268E+01  0.17479244178E+03  0.21905085477E+03  0.12500042917E+03 0.  0.
          2    1    1    2  501    0 -0.58050224229E+02  0.30847195075E+02 -0.19136239024E+03  0.20233868235E+03  0.00000000000E+00 0. -1.
          1    1    1    2  502    0  0.16343742355E+02 -0.22702175048E+02  0.43907276435E+03  0.43996295191E+03  0.00000000000E+00 0. -1.
         22    1    3    3    0    0 -0.41342271081E+02 -0.10084559484E+02  0.29813773445E+02  0.51959049310E+02  0.00000000000E+00 0.  1.
         22    1    3    3    0    0  0.83048752956E+02  0.19395394572E+01  0.14497866833E+03  0.16709180546E+03  0.00000000000E+00 0.  1.
</event>
<event>
 7    1  0.5064652E-006  0.4789592E+02  0.7818608E-02  0.1495159E+00
          2   -1    0    0  502    0  0.00000000000E+00  0.00000000000E+00  0.21398537139E+04  0.21398537139E+04  0.00000000000E+00 0. -1.
          1   -1    0    0  501    0 -0.00000000000E+00 -0.00000000000E+00 -0.23926527907E+03  0.23926527907E+03  0.00000000000E+00 0. -1.
         25    2    1    2    0    0 -0.25354882497E+02  0.51712203876E+02  0.25023115955E+03  0.28557926403E+03  0.12499144266E+03 0.  0.
          2    1    1    2  501    0  0.36188524444E+02 -0.50038171507E+01 -0.21977609584E+03  0.22279178574E+03  0.00000000000E+00 0. -1.
          1    1    1    2  502    0 -0.10833641947E+02 -0.46708386725E+02  0.18701333711E+04  0.18707479432E+04  0.00000000000E+00 0. -1.
         22    1    3    3    0    0  0.20616724891E+02  0.30396360641E+02  0.73351886809E+01  0.37453879351E+02  0.00000000000E+00 0. -1.
         22    1    3    3    0    0 -0.45971607388E+02  0.21315843235E+02  0.24289597087E+03  0.24812538468E+03  0.00000000000E+00 0. -1.
</event>
<event>
 7    1  0.5064652E-006  0.1438327E+03  0.7818608E-02  0.1373732E+00
          2   -1    0    0  502    0  0.00000000000E+00  0.00000000000E+00  0.10255715421E+04  0.10255715421E+04  0.00000000000E+00 0. -1.
          1   -1    0    0  501    0 -0.00000000000E+00 -0.00000000000E+00 -0.20831219603E+03  0.20831219603E+03  0.00000000000E+00 0. -1.
         25    2    1    2    0    0 -0.14944008749E+03  0.64916978454E+01  0.13058581446E+03  0.23463206285E+03  0.12500027237E+03 0.  0.
          2    1    1    2  501    0  0.14143239141E+03  0.22849406904E+02 -0.12311137809E+03  0.18889581295E+03  0.00000000000E+00 0. -1.
          1    1    1    2  502    0  0.80076960820E+01 -0.29341104750E+02  0.80978490972E+03  0.81035586234E+03  0.00000000000E+00 0. -1.
         22    1    3    3    0    0 -0.10055262439E+03  0.38109233433E+02  0.13907233857E+03  0.17579607305E+03  0.00000000000E+00 0.  1.
         22    1    3    3    0    0 -0.48887463102E+02 -0.31617535588E+02 -0.84865241083E+01  0.58835989808E+02  0.00000000000E+00 0.  1.
</event>
<event>
 7    1  0.5064652E-006  0.8114151E+02  0.7818608E-02  0.1450820E+00
          2   -1    0    0  502    0  0.00000000000E+00  0.00000000000E+00  0.19751437342E+04  0.19751437342E+04  0.00000000000E+00 0. -1.
          1   -1    0    0  501    0 -0.00000000000E+00 -0.00000000000E+00 -0.24629499797E+02  0.24629499797E+02  0.00000000000E+00 0. -1.
         25    2    1    2    0    0 -0.69501952444E+02  0.11104993219E+02  0.96518739765E+03  0.97578953180E+03  0.12499862205E+03 0.  0.
          2    1    1    2  501    0  0.71824901603E+02 -0.40602094701E+02  0.70061677749E+02  0.10824040499E+03  0.00000000000E+00 0. -1.
          1    1    1    2  502    0 -0.23229491592E+01  0.29497101482E+02  0.91526515899E+03  0.91574329719E+03  0.00000000000E+00 0. -1.
         22    1    3    3    0    0 -0.22112876895E+02 -0.14588623004E+02  0.34284062766E+02  0.43326714686E+02  0.00000000000E+00 0.  1.
         22    1    3    3    0    0 -0.47389075549E+02  0.25693616222E+02  0.93090333488E+03  0.93246281711E+03  0.00000000000E+00 0.  1.
</event>
<event>
 7    1  0.5064652E-006  0.5844456E+02  0.7818608E-02  0.1508594E+00
          2   -1    0    0  502    0  0.00000000000E+00  0.00000000000E+00  0.17521243220E+03  0.17521243220E+03  0.00000000000E+00 0. -1.
          1   -1    0    0  501    0 -0.00000000000E+00 -0.00000000000E+00 -0.15461843706E+03  0.15461843706E+03  0.00000000000E+00 0. -1.
         25    2    1    2    0    0  0.65211720666E+02 -0.42396032395E+02 -0.16337475762E+02  0.14812855675E+03  0.12500065654E+03 0.  0.
          2    1    1    2  501    0 -0.11069029874E+02  0.24961079541E+02 -0.61909199610E+02  0.67663342443E+02  0.00000000000E+00 0. -1.
          1    1    1    2  502    0 -0.54142690792E+02  0.17434952854E+02  0.98840670511E+02  0.11403897007E+03  0.00000000000E+00 0. -1.
         22    1    3    3    0    0  0.10189371630E+03 -0.21455344106E+02 -0.18828846301E+02  0.10581675985E+03  0.00000000000E+00 0.  1.
         22    1    3    3    0    0 -0.36681995635E+02 -0.20940688289E+02  0.24913705390E+01  0.42311796900E+02  0.00000000000E+00 0.  1.
</event>
<event>
 7    1  0.5064652E-006  0.1850762E+03  0.7818608E-02  0.1279845E+00
          2   -1    0    0  502    0  0.00000000000E+00  0.00000000000E+00  0.45000003397E+03  0.45000003397E+03  0.00000000000E+00 0. -1.
          1   -1    0    0  501    0 -0.00000000000E+00 -0.00000000000E+00 -0.16153385095E+03  0.16153385095E+03  0.00000000000E+00 0. -1.
         25    2    1    2    0    0  0.11764558704E+03  0.88055830825E+02  0.14089663166E+02  0.19343751435E+03  0.12500095943E+03 0.  0.
          2    1    1    2  501    0  0.27107719815E+02  0.47007873373E+02 -0.24545833851E+02  0.59557254739E+02  0.00000000000E+00 0. -1.
          1    1    1    2  502    0 -0.14475330686E+03 -0.13506370420E+03  0.29892235371E+03  0.35853911583E+03  0.00000000000E+00 0. -1.
         22    1    3    3    0    0 -0.13975067334E+02 -0.13938118489E+02  0.18235940905E+02  0.26872350003E+02  0.00000000000E+00 0.  1.
         22    1    3    3    0    0  0.13162065438E+03  0.10199394931E+03 -0.41462777395E+01  0.16656516435E+03  0.00000000000E+00 0.  1.
</event>
<event>
 7    1  0.5064652E-006  0.2581011E+02  0.7818608E-02  0.1692528E+00
          2   -1    0    0  502    0  0.00000000000E+00  0.00000000000E+00  0.69120518720E+03  0.69120518720E+03  0.00000000000E+00 0. -1.
          1   -1    0    0  501    0 -0.00000000000E+00 -0.00000000000E+00 -0.17078639554E+02  0.17078639554E+02  0.00000000000E+00 0. -1.
         25    2    1    2    0    0  0.80187848692E+01  0.20384783135E+02  0.26114842009E+03  0.29035001793E+03  0.12499918122E+03 0.  0.
          2    1    1    2  501    0  0.16680021782E+02 -0.11717317617E+02  0.49755147496E+02  0.53768888412E+02  0.00000000000E+00 0. -1.
          1    1    1    2  502    0 -0.24698806652E+02 -0.86674655179E+01  0.36322298007E+03  0.36416492041E+03  0.00000000000E+00 0. -1.
         22    1    3    3    0    0  0.36102816699E+02  0.91508260878E+01  0.25715718098E+03  0.25984027155E+03  0.00000000000E+00 0. -1.
         22    1    3    3    0    0 -0.28084031829E+02  0.11233957048E+02  0.39912391099E+01  0.30509746383E+02  0.00000000000E+00 0. -1.
</event>
<event>
 7    1  0.5064652E-006  0.6076640E+02  0.7818608E-02  0.1494963E+00
          2   -1    0    0  502    0  0.00000000000E+00  0.00000000000E+00  0.41778149741E+02  0.41778149741E+02  0.00000000000E+00 0. -1.
          1   -1    0    0  501    0 -0.00000000000E+00 -0.00000000000E+00 -0.10593222339E+04  0.10593222339E+04  0.00000000000E+00 0. -1.
         25    2    1    2    0    0 -0.34473599069E+00  0.55657551369E+02 -0.62167659073E+03  0.63655711553E+03  0.12500118402E+03 0.  0.
          2    1    1    2  501    0  0.28800251446E+02 -0.13971735210E+01 -0.40194094906E+03  0.40297386157E+03  0.00000000000E+00 0. -1.
          1    1    1    2  502    0 -0.28455515455E+02 -0.54260377848E+02  0.60734555881E+01  0.61569406582E+02  0.00000000000E+00 0. -1.
         22    1    3    3    0    0  0.60853235899E+02  0.29840477626E+02 -0.25168737489E+03  0.26065322769E+03  0.00000000000E+00 0. -1.
         22    1    3    3    0    0 -0.61197971889E+02  0.25817073743E+02 -0.36998921584E+03  0.37590388784E+03  0.00000000000E+00 0. -1.
</event>
<event>
 7    1  0.5064652E-006  0.1536431E+03  0.7818608E-02  0.1354098E+00
          2   -1    0    0  502    0  0.00000000000E+00  0.00000000000E+00  0.98549172569E+03  0.98549172569E+03  0.00000000000E+00 0. -1.
          1   -1    0    0  501    0 -0.00000000000E+00 -0.00000000000E+00 -0.24698997944E+03  0.24698997944E+03  0.00000000000E+00 0. -1.
         25    2    1    2    0    0  0.10781834532E+03 -0.84432558075E+02 -0.61509889788E+02  0.19535197731E+03  0.12500110417E+03 0.  0.
          2    1    1    2  501    0 -0.12554428515E+03  0.11291443000E+03 -0.57944633533E+02  0.17851783270E+03  0.00000000000E+00 0. -1.
          1    1    1    2  502    0  0.17725939823E+02 -0.28481871929E+02  0.85795626957E+03  0.85861189513E+03  0.00000000000E+00 0. -1.
         22    1    3    3    0    0 -0.20504775281E+01 -0.51633776588E+01  0.30875156375E+02  0.31371009039E+02  0.00000000000E+00 0. -1.
         22    1    3    3    0    0  0.10986882285E+03 -0.79269180416E+02 -0.92385046163E+02  0.16398096827E+03  0.00000000000E+00 0. -1.
</event>
<event>
 7    1  0.5064652E-006  0.5311032E+02  0.7818608E-02  0.1510728E+00
          2   -1    0    0  502    0  0.00000000000E+00  0.00000000000E+00  0.46258062639E+03  0.46258062639E+03  0.00000000000E+00 0. -1.
          1   -1    0    0  501    0 -0.00000000000E+00 -0.00000000000E+00 -0.42405240220E+02  0.42405240220E+02  0.00000000000E+00 0. -1.
         25    2    1    2    0    0  0.15170833300E+02 -0.29051565920E+02  0.13986972343E+03  0.19042656108E+03  0.12499835186E+03 0.  0.
          2    1    1    2  501    0 -0.14013003799E+02  0.58645115179E+02  0.39823004819E+02  0.72259847236E+02  0.00000000000E+00 0. -1.
          1    1    1    2  502    0 -0.11578295006E+01 -0.29593549259E+02  0.24048265793E+03  0.24229945829E+03  0.00000000000E+00 0. -1.
         22    1    3    3    0    0  0.18078994754E+02 -0.38068617110E+02 -0.74547965686E+01  0.42797706152E+02  0.00000000000E+00 0.  1.
         22    1    3    3    0    0 -0.29081614547E+01  0.90170511904E+01  0.14732452000E+03  0.14762885493E+03  0.00000000000E+00 0.  1.
</event>
<event>
 7    1  0.5064652E-006  0.1081228E+03  0.7818608E-02  0.1367431E+00
          2   -1    0    0  502    0  0.00000000000E+00  0.00000000000E+00  0.20428247745E+03  0.20428247745E+03  0.00000000000E+00 0. -1.
          1   -1    0    0  501    0 -0.00000000000E+00 -0.00000000000E+00 -0.96521503441E+03  0.96521503441E+03  0.00000000000E+00 0. -1.
         25    2    1    2    0    0  0.87506465720E+02  0.79186872854E+02 -0.40147330020E+02  0.17656867021E+03  0.12504697044E+03 0.  0.
          2    1    1    2  501    0  0.12813974869E+02 -0.40651782104E+02 -0.83500950661E+03  0.83609666993E+03  0.00000000000E+00 0. -1.
          1    1    1    2  502    0 -0.10032044059E+03 -0.38535090750E+02  0.11422427967E+03  0.15683217172E+03  0.00000000000E+00 0. -1.
         22    1    3    3    0    0 -0.14611322843E+02  0.65157188088E+02 -0.24687019990E+01  0.66820987753E+02  0.00000000000E+00 0. -1.
         22    1    3    3    0    0  0.10211778856E+03  0.14029684766E+02 -0.37678628021E+02  0.10974768246E+03  0.00000000000E+00 0. -1.
</event>
<event>
 7    1  0.5064652E-006  0.7875577E+02  0.7818608E-02  0.1453413E+00
          2   -1    0    0  502    0  0.00000000000E+00  0.00000000000E+00  0.22183401798E+03  0.22183401798E+03  0.00000000000E+00 0. -1.
          1   -1    0    0  501    0 -0.00000000000E+00 -0.00000000000E+00 -0.46473744922E+03  0.46473744922E+03  0.00000000000E+00 0. -1.
         25    2    1    2    0    0  0.51470152595E+02  0.28557616391E+02 -0.28929607539E+03  0.32059621789E+03  0.12500000649E+03 0.  0.
          2    1    1    2  501    0  0.22408663718E+01  0.29825518013E+02 -0.15063527758E+03  0.15357594167E+03  0.00000000000E+00 0. -1.
          1    1    1    2  502    0 -0.53711018967E+02 -0.58383134404E+02  0.19702792173E+03  0.21239930764E+03  0.00000000000E+00 0. -1.
         22    1    3    3    0    0 -0.24600098254E+02 -0.31874852841E+02 -0.10059635292E+03  0.10835495973E+03  0.00000000000E+00 0.  1.
         22    1    3    3    0    0  0.76070250850E+02  0.60432469232E+02 -0.18869972248E+03  0.21224125816E+03  0.00000000000E+00 0.  1.
</event>
<event>
 7    1  0.5064652E-006  0.1565445E+03  0.7818608E-02  0.1409642E+00
          2   -1    0    0  502    0  0.00000000000E+00  0.00000000000E+00  0.62630331155E+03  0.62630331155E+03  0.00000000000E+00 0. -1.
          1   -1    0    0  501    0 -0.00000000000E+00 -0.00000000000E+00 -0.10702659327E+04  0.10702659327E+04  0.00000000000E+00 0. -1.
         25    2    1    2    0    0  0.15426447391E+02 -0.14370130497E+03 -0.21956377991E+03  0.29106805564E+03  0.12499727692E+03 0.  0.
          2    1    1    2  501    0  0.18605726564E+02 -0.96391667777E+01 -0.80436689083E+03  0.80463978379E+03  0.00000000000E+00 0. -1.
          1    1    1    2  502    0 -0.34032173955E+02  0.15334047175E+03  0.57996804964E+03  0.60086140477E+03  0.00000000000E+00 0. -1.
         22    1    3    3    0    0  0.25656363770E+02 -0.14071271247E+03 -0.23331641694E+03  0.27366926547E+03  0.00000000000E+00 0. -1.
         22    1    3    3    0    0 -0.10229916378E+02 -0.29885925036E+01  0.13752637025E+02  0.17398790170E+02  0.00000000000E+00 0. -1.
</event>
<event>
 7    1  0.5064652E-006  0.1093700E+03  0.7818608E-02  0.1350091E+00
          2   -1    0    0  502    0  0.00000000000E+00  0.00000000000E+00  0.16183806141E+04  0.16183806141E+04  0.00000000000E+00 0. -1.
          1   -1    0    0  501    0 -0.00000000000E+00 -0.00000000000E+00 -0.49825670434E+03  0.49825670434E+03  0.00000000000E+00 0. -1.
         25    2    1    2    0    0 -0.69541731918E+02 -0.17104874449E+01  0.36134927932E+02  0.14754662542E+03  0.12500118164E+03 0.  0.
          2    1    1    2  501    0 -0.37339976586E+02  0.31358494685E+02 -0.43918498364E+03  0.44188355807E+03  0.00000000000E+00 0. -1.
          1    1    1    2  502    0  0.10688170850E+03 -0.29648007240E+02  0.15231739655E+04  0.15272071349E+04  0.00000000000E+00 0. -1.
         22    1    3    3    0    0  0.10622065792E+02  0.47701336607E+02  0.13357236973E+02  0.50662230264E+02  0.00000000000E+00 0.  1.
         22    1    3    3    0    0 -0.80163797710E+02 -0.49411824052E+02  0.22777690959E+02  0.96884395157E+02  0.00000000000E+00 0.  1.
</event>
<event>
 7    1  0.5064652E-006  0.1258870E+03  0.7818608E-02  0.1245804E+00
          2   -1    0    0  502    0  0.00000000000E+00  0.00000000000E+00  0.26130108011E+04  0.26130108011E+04  0.00000000000E+00 0. -1.
          1   -1    0    0  501    0 -0.00000000000E+00 -0.00000000000E+00 -0.17905705521E+04  0.17905705521E+04  0.00000000000E+00 0. -1.
         25    2    1    2    0    0 -0.55926410975E+02 -0.14089346282E+03  0.69259890901E+02  0.20832956480E+03  0.12500217507E+03 0.  0.
          2    1    1    2  501    0 -0.61025944899E+02  0.93089499670E+02 -0.17176201456E+04  0.17212230493E+04  0.00000000000E+00 0. -1.
          1    1    1    2  502    0  0.11695235587E+03  0.47803963153E+02  0.24708005037E+04  0.24740287390E+04  0.00000000000E+00 0. -1.
         22    1    3    3    0    0 -0.63710875776E+02 -0.79012604416E+02 -0.15938203785E+02  0.10274285225E+03  0.00000000000E+00 0. -1.
         22    1    3    3    0    0  0.77844648009E+01 -0.61880858407E+02  0.85198094685E+02  0.10558671255E+03  0.00000000000E+00 0. -1.
</event>
<event>
 7    1  0.5064652E-006  0.1473929E+03  0.7818608E-02  0.1310754E+00
          2   -1    0    0  502    0  0.00000000000E+00  0.00000000000E+00  0.83530600787E+03  0.83530600787E+03  0.00000000000E+00 0. -1.
          1   -1    0    0  501    0 -0.00000000000E+00 -0.00000000000E+00 -0.34484536486E+03  0.34484536486E+03  0.00000000000E+00 0. -1.
         25    2    1    2    0    0  0.17166905074E+03  0.89196847576E+02  0.58005941367E+03  0.62411566358E+03  0.12500039015E+03 0.  0.
          2    1    1    2  501    0 -0.13658842435E+03 -0.51994047725E+02 -0.30310039001E+03  0.33649609967E+03  0.00000000000E+00 0. -1.
          1    1    1    2  502    0 -0.35080626385E+02 -0.37202799850E+02  0.21350161935E+03  0.21953960948E+03  0.00000000000E+00 0. -1.
         22    1    3    3    0    0  0.11465451034E+02  0.45257612056E+02  0.25316041119E+03  0.25742941131E+03  0.00000000000E+00 0.  1.
         22    1    3    3    0    0  0.16020359970E+03  0.43939235520E+02  0.32689900248E+03  0.36668625227E+03  0.00000000000E+00 0.  1.
</event>
<event>
 7    1  0.5064652E-006  0.6871629E+02  0.7818608E-02  0.1424163E+00
          2   -1    0    0  502    0  0.00000000000E+00  0.00000000000E+00  0.18853596229E+04  0.18853596229E+04  0.00000000000E+00 0. -1.
          1   -1    0    0  501    0 -0.00000000000E+00 -0.00000000000E+00 -0.16556534240E+03  0.16556534240E+03  0.00000000000E+00 0. -1.
         25    2    1    2    0    0  0.99393274634E+02  0.48042951833E+02  0.58672665748E+03  0.60997056797E+03  0.12501509879E+03 0.  0.
          2    1    1    2  501    0 -0.63389436114E+02 -0.25139932497E+02 -0.14601824636E+03  0.16115695793E+03  0.00000000000E+00 0. -1.
          1    1    1    2  502    0 -0.36003838520E+02 -0.22903019337E+02  0.12790858693E+04  0.12797974394E+04  0.00000000000E+00 0. -1.
         22    1    3    3    0    0  0.18182192137E+02 -0.20886796817E+02  0.34133918517E+03  0.34246063968E+03  0.00000000000E+00 0.  1.
         22    1    3    3    0    0  0.81211082497E+02  0.68929748650E+02  0.24538747231E+03  0.26750992829E+03  0.00000000000E+00 0.  1.
</event>
<event>
 7    1  0.5064652E-006  0.5643436E+02  0.7818608E-02  0.1454646E+00
          2   -1    0    0  502    0  0.00000000000E+00  0.00000000000E+00  0.77593513386E+03  0.77593513386E+03  0.00000000000E+00 0. -1.
          1   -1    0    0  501    0 -0.00000000000E+00 -0.00000000000E+00 -0.10324386062E+03  0.10324386062E+03  0.00000000000E+00 0. -1.
         25    2    1    2    0    0  0.34050816183E+02 -0.82861302268E+00  0.37887154916E+03  0.40041100026E+03  0.12500069474E+03 0.  0.
          2    1    1    2  501    0  0.17711892584E+02  0.37380542951E+02 -0.85081896049E+02  0.94604149832E+02  0.00000000000E+00 0. -1.
          1    1    1    2  502    0 -0.51762708767E+02 -0.36551929928E+02  0.37890162012E+03  0.38416384438E+03  0.00000000000E+00 0. -1.
         22    1    3    3    0    0  0.31191922674E+02 -0.51337787452E+02  0.30511258555E+03  0.31096976432E+03  0.00000000000E+00 0. -1.
         22    1    3    3    0    0  0.28588935092E+01  0.50509174430E+02  0.73758963610E+02  0.89441235940E+02  0.00000000000E+00 0. -1.
</event>
<event>
 7    1  0.5064652E-006  0.2374871E+03  0.7818608E-02  0.1250925E+00
          2   -1    0    0  502    0  0.00000000000E+00  0.00000000000E+00  0.10755734532E+04  0.10755734532E+04  0.00000000000E+00 0. -1.
          1   -1    0    0  501    0 -0.00000000000E+00 -0.00000000000E+00 -0.32844181970E+03  0.32844181970E+03  0.00000000000E+00 0. -1.
         25    2    1    2    0    0  0.26338623839E+02 -0.26895255151E+03  0.43769566598E+03  0.52937027174E+03  0.12500476195E+03 0.  0.
          2    1    1    2  501    0  0.17393315679E+02  0.23388912874E+03 -0.23224755511E+03  0.33006905160E+03  0.00000000000E+00 0. -1.
          1    1    1    2  502    0 -0.43731939518E+02  0.35063422766E+02  0.54168352259E+03  0.54457594952E+03  0.00000000000E+00 0. -1.
         22    1    3    3    0    0  0.26776726412E+02 -0.11996398907E+03  0.93898361237E+02  0.15467790402E+03  0.00000000000E+00 0.  1.
         22    1    3    3    0    0 -0.43810257228E+00 -0.14898856244E+03  0.34379730474E+03  0.37469236771E+03  0.00000000000E+00 0.  1.
</event>
<event>
 7    1  0.5064652E-006  0.1488593E+03  0.7818608E-02  0.1341290E+00
          2   -1    0    0  502    0  0.00000000000E+00  0.00000000000E+00  0.25014173836E+04  0.25014173836E+04  0.00000000000E+00 0. -1.
          1   -1    0    0  501    0 -0.00000000000E+00 -0.00000000000E+00 -0.33206218868E+03  0.33206218868E+03  0.00000000000E+00 0. -1.
         25    2    1    2    0    0 -0.51371231497E+02  0.12450097598E+03  0.60427017406E+03  0.63159158337E+03  0.12500395385E+03 0.  0.
          2    1    1    2  501    0 -0.38624985078E+02 -0.10165516894E+01 -0.31411680201E+03  0.31648426209E+03  0.00000000000E+00 0. -1.
          1    1    1    2  502    0  0.89996216575E+02 -0.12348442429E+03  0.18792018228E+04  0.18854037268E+04  0.00000000000E+00 0. -1.
         22    1    3    3    0    0 -0.73581263554E+02  0.30185801244E+02  0.18683604656E+03  0.20305933427E+03  0.00000000000E+00 0. -1.
         22    1    3    3    0    0  0.22210032057E+02  0.94315174735E+02  0.41743412751E+03  0.42853224910E+03  0.00000000000E+00 0. -1.
</event>
<event>
 7    1  0.5064652E-006  0.6275642E+02  0.7818608E-02  0.1408411E+00
          2   -1    0    0  502    0  0.00000000000E+00  0.00000000000E+00  0.19812819602E+03  0.19812819602E+03  0.00000000000E+00 0. -1.
          1   -1    0    0  501    0 -0.00000000000E+00 -0.00000000000E+00 -0.18394902060E+03  0.18394902060E+03  0.00000000000E+00 0. -1.
         25    2    1    2    0    0  0.52412453758E+02  0.74770241177E+01  0.38129864432E+02  0.14095186453E+03  0.12494226809E+03 0.  0.
          2    1    1    2  501    0 -0.15693421119E+02  0.50388261139E+02 -0.11537145007E+03  0.12686934940E+03  0.00000000000E+00 0. -1.
          1    1    1    2  502    0 -0.36719032639E+02 -0.57865285256E+02  0.91420761061E+02  0.11425600268E+03  0.00000000000E+00 0. -1.
         22    1    3    3    0    0  0.41917358042E+02 -0.54753312883E+02  0.36854384188E+01  0.69054852351E+02  0.00000000000E+00 0. -1.
         22    1    3    3    0    0  0.10495095716E+02  0.62230337001E+02  0.34444426013E+02  0.71897012182E+02  0.00000000000E+00 0. -1.
</event>
<event>
 7    1  0.5064652E-006  0.1022503E+03  0.7818608E-02  0.1377253E+00
          2   -1    0    0  502    0  0.00000000000E+00  0.00000000000E+00  0.10059300175E+04  0.10059300175E+04  0.00000000000E+00 0. -1.
          1   -1    0    0  501    0 -0.00000000000E+00 -0.00000000000E+00 -0.34374695294E+03  0.34374695294E+03  0.00000000000E+00 0. -1.
         25    2    1    2    0    0  0.12553796743E+01  0.71557702372E+02 -0.83861751011E+02  0.16667198818E+03  0.12499871045E+03 0.  0.
          2    1    1    2  501    0 -0.96644102161E+00 -0.11312048940E+03 -0.20335143908E+03  0.23269934874E+03  0.00000000000E+00 0. -1.
          1    1    1    2  502    0 -0.28893865267E+00  0.41562787023E+02  0.94939625463E+03  0.95030563350E+03  0.00000000000E+00 0. -1.
         22    1    3    3    0    0  0.62709235117E+02  0.27860108022E+02 -0.38884371444E+02  0.78870958727E+02  0.00000000000E+00 0. -1.
         22    1    3    3    0    0 -0.61453855442E+02  0.43697594350E+02 -0.44977379567E+02  0.87801029456E+02  0.00000000000E+00 0. -1.
</event>
<event>
 7    1  0.5064652E-006  0.5792233E+02  0.7818608E-02  0.1518111E+00
          2   -1    0    0  502    0  0.00000000000E+00  0.00000000000E+00  0.45785525919E+03  0.45785525919E+03  0.00000000000E+00 0. -1.
          1   -1    0    0  501    0 -0.00000000000E+00 -0.00000000000E+00 -0.16726176441E+03  0.16726176441E+03  0.00000000000E+00 0. -1.
         25    2    1    2    0    0 -0.51376533717E+02 -0.55058336796E+02  0.33141259254E+02  0.14964976870E+03  0.12500296613E+03 0.  0.
          2    1    1    2  501    0  0.20655566089E+01  0.25755187546E+02 -0.10518986641E+03  0.10831668480E+03  0.00000000000E+00 0. -1.
          1    1    1    2  502    0  0.49310977108E+02  0.29303149250E+02  0.36264210194E+03  0.36715057009E+03  0.00000000000E+00 0. -1.
         22    1    3    3    0    0 -0.92104261578E+02 -0.40873556398E+02  0.11569021433E+02  0.10142822522E+03  0.00000000000E+00 0.  1.
         22    1    3    3    0    0  0.40727727861E+02 -0.14184780397E+02  0.21572237821E+02  0.48221543487E+02  0.00000000000E+00 0.  1.
</event>
<event>
 7    1  0.5064652E-006  0.9235641E+02  0.7818608E-02  0.1382190E+00
          2   -1    0    0  502    0  0.00000000000E+00  0.00000000000E+00  0.71049514329E+02  0.71049514329E+02  0.00000000000E+00 0. -1.
          1   -1    0    0  501    0 -0.00000000000E+00 -0.00000000000E+00 -0.83891022341E+03  0.83891022341E+03  0.00000000000E+00 0. -1.
         25    2    1    2    0    0 -0.52387598418E+02 -0.28226651141E+02 -0.26777599167E+03  0.30144729856E+03  0.12500115117E+03 0.  0.
          2    1    1    2  501    0 -0.43438667993E+02  0.81668198313E+01 -0.50834341892E+03  0.51026135106E+03  0.00000000000E+00 0. -1.
          1    1    1    2  502    0  0.95826266411E+02  0.20059831309E+02  0.82587015073E+01  0.98251088121E+02  0.00000000000E+00 0. -1.
         22    1    3    3    0    0  0.14605783007E+02  0.33553815107E+02 -0.13867308801E+03  0.14342040561E+03  0.00000000000E+00 0. -1.
         22    1    3    3    0    0 -0.66993381425E+02 -0.61780466247E+02 -0.12910290365E+03  0.15802689295E+03  0.00000000000E+00 0. -1.
</event>
<event>
 7    1  0.5064652E-006  0.1509632E+03  0.7818608E-02  0.1336137E+00
          2   -1    0    0  502    0  0.00000000000E+00  0.00000000000E+00  0.99573476012E+03  0.99573476012E+03  0.00000000000E+00 0. -1.
          1   -1    0    0  501    0 -0.00000000000E+00 -0.00000000000E+00 -0.58259172052E+03  0.58259172052E+03  0.00000000000E+00 0. -1.
         25    2    1    2    0    0 -0.96627965088E+02 -0.11596553441E+03 -0.25769759990E+03  0.32375357381E+03  0.12499341886E+03 0.  0.
          2    1    1    2  501    0 -0.27065844487E+02  0.29238399947E+02 -0.28454316165E+03  0.28731908188E+03  0.00000000000E+00 0. -1.
          1    1    1    2  502    0  0.12369380958E+03  0.86727134462E+02  0.95538380115E+03  0.96725382494E+03  0.00000000000E+00 0. -1.
         22    1    3    3    0    0 -0.84125994271E+02 -0.14213142021E+03 -0.23336542326E+03  0.28589848600E+03  0.00000000000E+00 0. -1.
         22    1    3    3    0    0 -0.12501970817E+02  0.26165885797E+02 -0.24332176635E+02  0.37855087817E+02  0.00000000000E+00 0. -1.
</event>
<event>
 7    1  0.5064652E-006  0.6102411E+02  0.7818608E-02  0.1522946E+00
          2   -1    0    0  502    0  0.00000000000E+00  0.00000000000E+00  0.97357056899E+03  0.97357056899E+03  0.00000000000E+00 0. -1.
          1   -1    0    0  501    0 -0.00000000000E+00 -0.00000000000E+00 -0.20858383983E+03  0.20858383983E+03  0.00000000000E+00 0. -1.
         25    2    1    2    0    0 -0.14542773486E+02  0.52161295155E+02  0.20468052027E+03  0.24586819660E+03  0.12499904699E+03 0.  0.
          2    1    1    2  501    0  0.37939174810E+02 -0.48107760792E+02 -0.18280338791E+03  0.19279734507E+03  0.00000000000E+00 0. -1.
          1    1    1    2  502    0 -0.23396401324E+02 -0.40535343628E+01  0.74310959680E+03  0.74348886716E+03  0.00000000000E+00 0. -1.
         22    1    3    3    0    0  0.99180541828E+01  0.46927462727E+02  0.21389780731E+03  0.21920954936E+03  0.00000000000E+00 0.  1.
         22    1    3    3    0    0 -0.24460827669E+02  0.52338324280E+01 -0.92172870457E+01  0.26658647239E+02  0.00000000000E+00 0.  1.
</event>
<event>
 7    1  0.5064652E-006  0.1190081E+03  0.7818608E-02  0.1259123E+00
          2   -1    0    0  502    0  0.00000000000E+00  0.00000000000E+00  0.12994182473E+03  0.12994182473E+03  0.00000000000E+00 0. -1.
          1   -1    0    0  501    0 -0.00000000000E+00 -0.00000000000E+00 -0.28204840188E+04  0.28204840188E+04  0.00000000000E+00 0. -1.
         25    2    1    2    0    0  0.10403302135E+03 -0.16892669265E+03 -0.79515086144E+03  0.82900367704E+03  0.12499242811E+03 0.  0.
          2    1    1    2  501    0 -0.18608726604E+02  0.11114679481E+03 -0.19829416796E+04  0.19861413845E+04  0.00000000000E+00 0. -1.
          1    1    1    2  502    0 -0.85424294741E+02  0.57779897846E+02  0.87550346929E+02  0.13528078199E+03  0.00000000000E+00 0. -1.
         22    1    3    3    0    0  0.80097314313E+02 -0.38544911960E+02 -0.19376245542E+03  0.21317874924E+03  0.00000000000E+00 0. -1.
         22    1    3    3    0    0  0.23935707033E+02 -0.13038178069E+03 -0.60138840602E+03  0.61582492780E+03  0.00000000000E+00 0. -1.
</event>
<event>
 7    1  0.5064652E-006  0.7837868E+02  0.7818608E-02  0.1418550E+00
          2   -1    0    0  502    0  0.00000000000E+00  0.00000000000E+00  0.24528273695E+03  0.24528273695E+03  0.00000000000E+00 0. -1.
          1   -1    0    0  501    0 -0.00000000000E+00 -0.00000000000E+00 -0.10345706820E+04  0.10345706820E+04  0.00000000000E+00 0. -1.
         25    2    1    2    0    0  0.46849926032E+02  0.83259080509E+02 -0.76532097222E+03  0.78132470927E+03  0.12500048296E+03 0.  0.
          2    1    1    2  501    0 -0.54079849296E+02 -0.44876544159E+02 -0.25485193922E+03  0.26436347184E+03  0.00000000000E+00 0. -1.
          1    1    1    2  502    0  0.72299232640E+01 -0.38382536350E+02  0.23088496641E+03  0.23416523782E+03  0.00000000000E+00 0. -1.
         22    1    3    3    0    0  0.73542026724E+02  0.25313261737E+02 -0.58297317891E+03  0.58813851961E+03  0.00000000000E+00 0.  1.
         22    1    3    3    0    0 -0.26692100692E+02  0.57945818772E+02 -0.18234779331E+03  0.19318618966E+03  0.00000000000E+00 0.  1.
</event>
<event>
 7    1  0.5064652E-006  0.3855659E+02  0.7818608E-02  0.1569095E+00
          2   -1    0    0  502    0  0.00000000000E+00  0.00000000000E+00  0.73697445488E+02  0.73697445488E+02  0.00000000000E+00 0. -1.
          1   -1    0    0  501    0 -0.00000000000E+00 -0.00000000000E+00 -0.75884193585E+03  0.75884193585E+03  0.00000000000E+00 0. -1.
         25    2    1    2    0    0 -0.11418255892E+02 -0.94456647285E+01 -0.23660774932E+03  0.26801021894E+03  0.12500661290E+03 0.  0.
          2    1    1    2  501    0 -0.27521606783E+02  0.45519739421E+01 -0.49945940700E+03  0.50023780200E+03  0.00000000000E+00 0. -1.
          1    1    1    2  502    0  0.38939862676E+02  0.48936907865E+01  0.50922665955E+02  0.64291360404E+02  0.00000000000E+00 0. -1.
         22    1    3    3    0    0 -0.15881138225E+02  0.55198737147E+02 -0.14354905900E+03  0.15461385279E+03  0.00000000000E+00 0.  1.
         22    1    3    3    0    0  0.44628823326E+01 -0.64644401875E+02 -0.93058690322E+02  0.11339636615E+03  0.00000000000E+00 0.  1.
</event>
<event>
 7    1  0.5064652E-006  0.7500092E+02  0.7818608E-02  0.1379993E+00
          2   -1    0    0  502    0  0.00000000000E+00  0.00000000000E+00  0.14758847771E+04  0.14758847771E+04  0.00000000000E+00 0. -1.
          1   -1    0    0  501    0 -0.00000000000E+00 -0.00000000000E+00 -0.75769295712E+02  0.75769295712E+02  0.00000000000E+00 0. -1.
         25    2    1    2    0    0 -0.12459149529E+02  0.66155179799E+02  0.36648049164E+03  0.39302144862E+03  0.12500468031E+03 0.  0.
          2    1    1    2  501    0  0.55391278206E+02 -0.14403810638E+01 -0.48546346723E+02  0.73668284757E+02  0.00000000000E+00 0. -1.
          1    1    1    2  502    0 -0.42932128677E+02 -0.64714798735E+02  0.10821813365E+04  0.10849643394E+04  0.00000000000E+00 0. -1.
         22    1    3    3    0    0  0.48386104226E+02  0.64541077944E+02  0.19327599328E+03  0.20943346294E+03  0.00000000000E+00 0.  1.
         22    1    3    3    0    0 -0.60845253755E+02  0.16141018556E+01  0.17320449837E+03  0.18358798568E+03  0.00000000000E+00 0.  1.
</event>
<event>
 7    1  0.5064652E-006  0.1073608E+03  0.7818608E-02  0.1331193E+00
          2   -1    0    0  502    0  0.00000000000E+00  0.00000000000E+00  0.18214437544E+04  0.18214437544E+04  0.00000000000E+00 0. -1.
          1   -1    0    0  501    0 -0.00000000000E+00 -0.00000000000E+00 -0.74078154848E+02  0.74078154848E+02  0.00000000000E+00 0. -1.
         25    2    1    2    0    0 -0.38483968795E+02 -0.13633378777E+03  0.35805509101E+03  0.40484052362E+03  0.12499793530E+03 0.  0.
          2    1    1    2  501    0  0.49212490054E+02  0.31628301274E+02 -0.31184349766E+02  0.66292399935E+02  0.00000000000E+00 0. -1.
          1    1    1    2  502    0 -0.10728521259E+02  0.10470548649E+03  0.14204948583E+04  0.14243889856E+04  0.00000000000E+00 0. -1.
         22    1    3    3    0    0 -0.12426104105E+02 -0.10405742216E+03  0.10478809670E+03  0.14819885419E+03  0.00000000000E+00 0. -1.
         22    1    3    3    0    0 -0.26057864689E+02 -0.32276365602E+02  0.25326699430E+03  0.25664166944E+03  0.00000000000E+00 0. -1.
</event>
<event>
 7    1  0.5064652E-006  0.8937992E+02  0.7818608E-02  0.1343777E+00
          2   -1    0    0  502    0  0.00000000000E+00  0.00000000000E+00  0.12005438057E+04  0.12005438057E+04  0.00000000000E+00 0. -1.
          1   -1    0    0  501    0 -0.00000000000E+00 -0.00000000000E+00 -0.29398922484E+03  0.29398922484E+03  0.00000000000E+00 0. -1.
         25    2    1    2    0    0 -0.80469272123E+01 -0.78418221336E+02 -0.91250465728E+02  0.17368499210E+03  0.12500263401E+03 0.  0.
          2    1    1    2  501    0  0.62585804431E+02  0.70783530987E+01 -0.15356585356E+03  0.16598059338E+03  0.00000000000E+00 0. -1.
          1    1    1    2  502    0 -0.54538877218E+02  0.71339868238E+02  0.11513709001E+04  0.11548674450E+04  0.00000000000E+00 0. -1.
         22    1    3    3    0    0  0.50545914451E+02 -0.61267043250E+02 -0.24260866886E+02  0.83048959767E+02  0.00000000000E+00 0.  1.
         22    1    3    3    0    0 -0.58592841664E+02 -0.17151178087E+02 -0.66989598842E+02  0.90636032332E+02  0.00000000000E+00 0.  1.
</event>
<event>
 7    1  0.5064652E-006  0.9171042E+02  0.7818608E-02  0.1427283E+00
          2   -1    0    0  502    0  0.00000000000E+00  0.00000000000E+00  0.12671721693E+04  0.12671721693E+04  0.00000000000E+00 0. -1.
          1   -1    0    0  501    0 -0.00000000000E+00 -0.00000000000E+00 -0.36804323035E+02  0.36804323035E+02  0.00000000000E+00 0. -1.
         25    2    1    2    0    0  0.88045146516E+02 -0.48716083336E+02  0.55346254500E+03  0.57625640668E+03  0.12500181164E+03 0.  0.
          2    1    1    2  501    0 -0.62290400686E+02  0.66362813703E+02  0.57780561524E+02  0.10780867474E+03  0.00000000000E+00 0. -1.
          1    1    1    2  502    0 -0.25754745830E+02 -0.17646730367E+02  0.61912473970E+03  0.61991141088E+03  0.00000000000E+00 0. -1.
         22    1    3    3    0    0  0.19225628825E+02 -0.30728073751E+02  0.44547170048E+03  0.44694392853E+03  0.00000000000E+00 0.  1.
         22    1    3    3    0    0  0.68819517691E+02 -0.17988009585E+02  0.10799084453E+03  0.12931247815E+03  0.00000000000E+00 0.  1.
</event>
<event>
 7    1  0.5064652E-006  0.9821079E+02  0.7818608E-02  0.1352407E+00
          2   -1    0    0  502    0  0.00000000000E+00  0.00000000000E+00  0.28893796520E+03  0.28893796520E+03  0.00000000000E+00 0. -1.
          1   -1    0    0  501    0 -0.00000000000E+00 -0.00000000000E+00 -0.18150834949E+03  0.18150834949E+03  0.00000000000E+00 0. -1.
         25    2    1    2    0    0  0.38664593293E+00  0.97968751317E+02  0.58077962452E+02  0.16910358888E+03  0.12499979328E+03 0.  0.
          2    1    1    2  501    0 -0.52124872137E+02 -0.10844961461E+02 -0.10440708526E+03  0.11719835723E+03  0.00000000000E+00 0. -1.
          1    1    1    2  502    0  0.51738226204E+02 -0.87123789856E+02  0.15375873852E+03  0.18414436858E+03  0.00000000000E+00 0. -1.
         22    1    3    3    0    0 -0.46139346991E+02  0.51733533123E+02 -0.14981357021E+02  0.70919946759E+02  0.00000000000E+00 0. -1.
         22    1    3    3    0    0  0.46525992924E+02  0.46235218194E+02  0.73059319473E+02  0.98183642124E+02  0.00000000000E+00 0. -1.
</event>
<event>
 7    1  0.5064652E-006  0.6235706E+02  0.7818608E-02  0.1504106E+00
          2   -1    0    0  502    0  0.00000000000E+00  0.00000000000E+00  0.12536281526E+04  0.12536281526E+04  0.00000000000E+00 0. -1.
          1   -1    0    0  501    0 -0.00000000000E+00 -0.00000000000E+00 -0.57309272592E+03  0.57309272592E+03  0.00000000000E+00 0. -1.
         25    2    1    2    0    0  0.78138682831E+02  0.31390670778E+02 -0.15394815544E+03  0.21544404622E+03  0.12500029809E+03 0.  0.
          2    1    1    2  501    0 -0.51755461709E+02 -0.31814976225E+02 -0.38587745871E+03  0.39063055906E+03  0.00000000000E+00 0. -1.
          1    1    1    2  502    0 -0.26383221122E+02  0.42430544768E+00  0.12203610408E+04  0.12206462732E+04  0.00000000000E+00 0. -1.
         22    1    3    3    0    0  0.80732523653E+02 -0.96161627159E+01 -0.15423744808E+03  0.17435424099E+03  0.00000000000E+00 0.  1.
         22    1    3    3    0    0 -0.25938408221E+01  0.41006833493E+02  0.28929264613E+00  0.41089805227E+02  0.00000000000E+00 0.  1.
</event>
<event>
 7    1  0.5064652E-006  0.1265413E+03  0.7818608E-02  0.1357623E+00
          2   -1    0    0  502    0  0.00000000000E+00  0.00000000000E+00  0.27506333777E+03  0.27506333777E+03  0.00000000000E+00 0. -1.
          1   -1    0    0  501    0 -0.00000000000E+00 -0.00000000000E+00 -0.13390118633E+04  0.13390118633E+04  0.00000000000E+00 0. -1.
         25    2    1    2    0    0  0.90560131735E+02 -0.11524474224E+03 -0.31462315761E+03  0.36890928872E+03  0.12499537563E+03 0.  0.
          2    1    1    2  501    0  0.91039210724E+01  0.38473675482E+02 -0.98086223808E+03  0.98165871625E+03  0.00000000000E+00 0. -1.
          1    1    1    2  502    0 -0.99664052808E+02  0.76771066755E+02  0.23153687020E+03  0.26350719606E+03  0.00000000000E+00 0. -1.
         22    1    3    3    0    0  0.56819237065E+01 -0.10645684182E+03 -0.19012487045E+03  0.21797433287E+03  0.00000000000E+00 0.  1.
         22    1    3    3    0    0  0.84878208029E+02 -0.87879004151E+01 -0.12449828716E+03  0.15093495585E+03  0.00000000000E+00 0.  1.
</event>
<event>
 7    1  0.5064652E-006  0.1334686E+03  0.7818608E-02  0.1360262E+00
          2   -1    0    0  502    0  0.00000000000E+00  0.00000000000E+00  0.63540801477E+03  0.63540801477E+03  0.00000000000E+00 0. -1.
          1   -1    0    0  501    0 -0.00000000000E+00 -0.00000000000E+00 -0.69565910006E+03  0.69565910006E+03  0.00000000000E+00 0. -1.
         25    2    1    2    0    0  0.27952033011E+02  0.11747148030E+03  0.20403763514E+03  0.26802039869E+03  0.12499085058E+03 0.  0.
          2    1    1    2  501    0  0.48374417783E+01 -0.13386803457E+03 -0.65604375746E+03  0.66958006484E+03  0.00000000000E+00 0. -1.
          1    1    1    2  502    0 -0.32789474789E+02  0.16396554265E+02  0.39175503703E+03  0.39346665130E+03  0.00000000000E+00 0. -1.
         22    1    3    3    0    0 -0.48390917061E+02  0.40001827943E+02  0.54679749118E+02  0.83256843901E+02  0.00000000000E+00 0. -1.
         22    1    3    3    0    0  0.76342950072E+02  0.77469652360E+02  0.14935788602E+03  0.18476355479E+03  0.00000000000E+00 0. -1.
</event>
<event>
 7    1  0.5064652E-006  0.4834624E+02  0.7818608E-02  0.1490654E+00
          2   -1    0    0  502    0  0.00000000000E+00  0.00000000000E+00  0.11516122340E+04  0.11516122340E+04  0.00000000000E+00 0. -1.
          1   -1    0    0  501    0 -0.00000000000E+00 -0.00000000000E+00 -0.15197508280E+03  0.15197508280E+03  0.00000000000E+00 0. -1.
         25    2    1    2    0    0 -0.25510642581E+01  0.23528805151E+02  0.37980406695E+03  0.40054495171E+03  0.12500006588E+03 0.  0.
          2    1    1    2  501    0  0.33199337537E+02  0.17093802523E+02 -0.13827496880E+03  0.14322835297E+03  0.00000000000E+00 0. -1.
          1    1    1    2  502    0 -0.30648273279E+02 -0.40622607674E+02  0.75810805309E+03  0.75981401215E+03  0.00000000000E+00 0. -1.
         22    1    3    3    0    0 -0.23172149244E+02 -0.47695471246E+02  0.15313279188E+03  0.16205387507E+03  0.00000000000E+00 0.  1.
         22    1    3    3    0    0  0.20621084986E+02  0.71224276397E+02  0.22667127507E+03  0.23849107664E+03  0.00000000000E+00 0.  1.
</event>
<event>
 7    1  0.5064652E-006  0.5965194E+02  0.7818608E-02  0.1463263E+00
          2   -1    0    0  502    0  0.00000000000E+00  0.00000000000E+00  0.26736646712E+03  0.26736646712E+03  0.00000000000E+00 0. -1.
          1   -1    0    0  501    0 -0.00000000000E+00 -0.00000000000E+00 -0.61582983100E+03  0.61582983100E+03  0.00000000000E+00 0. -1.
         25    2    1    2    0    0  0.72195663671E+02  0.10353422647E+00 -0.30735038075E+03  0.33956244313E+03  0.12500468658E+03 0.  0.
          2    1    1    2  501    0 -0.50771057422E+02  0.29762059495E+02 -0.28803775583E+03  0.29398848488E+03  0.00000000000E+00 0. -1.
          1    1    1    2  502    0 -0.21424606248E+02 -0.29865593721E+02  0.24692477270E+03  0.24964537011E+03  0.00000000000E+00 0. -1.
         22    1    3    3    0    0  0.40902148931E+02  0.58138991529E+02 -0.21227733588E+03  0.22386334102E+03  0.00000000000E+00 0. -1.
         22    1    3    3    0    0  0.31293514740E+02 -0.58035457303E+02 -0.95073044871E+02  0.11569910212E+03  0.00000000000E+00 0. -1.
</event>
<event>
 7    1  0.5064652E-006  0.1051321E+03  0.7818608E-02  0.1324403E+00
          2   -1    0    0  502    0  0.00000000000E+00  0.00000000000E+00  0.76186219448E+02  0.76186219448E+02  0.00000000000E+00 0. -1.
          1   -1    0    0  501    0 -0.00000000000E+00 -0.00000000000E+00 -0.15002957179E+04  0.15002957179E+04  0.00000000000E+00 0. -1.
         25    2    1    2    0    0  0.13796365203E+01  0.51391294242E+02 -0.46348533349E+03  0.48279133723E+03  0.12500340965E+03 0.  0.
          2    1    1    2  501    0 -0.31387188942E+02  0.55119687444E+02 -0.97939987383E+03  0.98145170458E+03  0.00000000000E+00 0. -1.
          1    1    1    2  502    0  0.30007552422E+02 -0.10651098169E+03  0.18775708885E+02  0.11223889551E+03  0.00000000000E+00 0. -1.
         22    1    3    3    0    0 -0.39862399015E+02  0.71951329046E+02 -0.21766311996E+03  0.23268699662E+03  0.00000000000E+00 0.  1.
         22    1    3    3    0    0  0.41242035535E+02 -0.20560034805E+02 -0.24582221353E+03  0.25010434061E+03  0.00000000000E+00 0.  1.
</event>
<event>
 7    1  0.5064652E-006  0.9860529E+02  0.7818608E-02  0.1452987E+00
          2   -1    0    0  502    0  0.00000000000E+00  0.00000000000E+00  0.47279026135E+02  0.47279026135E+02  0.00000000000E+00 0. -1.
          1   -1    0    0  501    0 -0.00000000000E+00 -0.00000000000E+00 -0.73116485234E+03  0.73116485234E+03  0.00000000000E+00 0. -1.
         25    2    1    2    0    0 -0.88243386010E+02 -0.35669947985E+02 -0.15272891499E+03  0.21911572925E+03  0.12500536375E+03 0.  0.
          2    1    1    2  501    0  0.80511342853E+02  0.58351755231E+02 -0.52534196236E+03  0.53466922586E+03  0.00000000000E+00 0. -1.
          1    1    1    2  502    0  0.77320431573E+01 -0.22681807246E+02 -0.58149488494E+01  0.24658923364E+02  0.00000000000E+00 0. -1.
         22    1    3    3    0    0  0.63311540145E+01 -0.10836970413E+02 -0.11280129623E+03  0.11349738266E+03  0.00000000000E+00 0. -1.
         22    1    3    3    0    0 -0.94574540025E+02 -0.24832977572E+02 -0.39927618758E+02  0.10561834659E+03  0.00000000000E+00 0. -1.
</event>
<event>
 7    1  0.5064652E-006  0.1809074E+03  0.7818608E-02  0.1181373E+00
          2   -1    0    0  502    0  0.00000000000E+00  0.00000000000E+00  0.38222770484E+03  0.38222770484E+03  0.00000000000E+00 0. -1.
          1   -1    0    0  501    0 -0.00000000000E+00 -0.00000000000E+00 -0.12020641457E+04  0.12020641457E+04  0.00000000000E+00 0. -1.
         25    2    1    2    0    0 -0.13008453548E+03  0.18219560419E+03 -0.26137466122E+03  0.36614032766E+03  0.12499920581E+03 0.  0.
          2    1    1    2  501    0  0.17849657985E+03 -0.36487845568E+02 -0.86036760799E+03  0.87944574180E+03  0.00000000000E+00 0. -1.
          1    1    1    2  502    0 -0.48412044372E+02 -0.14570775862E+03  0.30190582834E+03  0.33870578109E+03  0.00000000000E+00 0. -1.
         22    1    3    3    0    0 -0.29428032119E+02  0.18239467674E+02 -0.12658079709E+03  0.13123027641E+03  0.00000000000E+00 0.  1.
         22    1    3    3    0    0 -0.10065650336E+03  0.16395613651E+03 -0.13479386413E+03  0.23491005125E+03  0.00000000000E+00 0.  1.
</event>
<event>
 7    1  0.5064652E-006  0.4698518E+02  0.7818608E-02  0.1534812E+00
          2   -1    0    0  502    0  0.00000000000E+00  0.00000000000E+00  0.75217192313E+02  0.75217192313E+02  0.00000000000E+00 0. -1.
          1   -1    0    0  501    0 -0.00000000000E+00 -0.00000000000E+00 -0.10651755619E+04  0.10651755619E+04  0.00000000000E+00 0. -1.
         25    2    1    2    0    0  0.21240406491E+02 -0.35735116306E+01 -0.13789611678E+03  0.18737487060E+03  0.12502031137E+03 0.  0.
          2    1    1    2  501    0  0.23493906770E+02 -0.16158900232E+02 -0.89041857706E+03  0.89087502832E+03  0.00000000000E+00 0. -1.
          1    1    1    2  502    0 -0.44734313261E+02  0.19732411863E+02  0.38356324217E+02  0.62142855328E+02  0.00000000000E+00 0. -1.
         22    1    3    3    0    0 -0.15627877064E+02 -0.95798431826E+01  0.18818125927E+02  0.26270245532E+02  0.00000000000E+00 0.  1.
         22    1    3    3    0    0  0.36868283554E+02  0.60063315520E+01 -0.15671424270E+03  0.16110462506E+03  0.00000000000E+00 0.  1.
</event>
<event>
 7    1  0.5064652E-006  0.5011663E+02  0.7818608E-02  0.1526664E+00
          2   -1    0    0  502    0  0.00000000000E+00  0.00000000000E+00  0.12404703526E+03  0.12404703526E+03  0.00000000000E+00 0. -1.
          1   -1    0    0  501    0 -0.00000000000E+00 -0.00000000000E+00 -0.16006017949E+04  0.16006017949E+04  0.00000000000E+00 0. -1.
         25    2    1    2    0    0  0.19083925231E+02 -0.14077639543E+02 -0.47680463371E+03  0.49348801997E+03  0.12500156394E+03 0.  0.
          2    1    1    2  501    0  0.12320286471E+02 -0.25374655747E+02 -0.11097738049E+04  0.11101322266E+04  0.00000000000E+00 0. -1.
          1    1    1    2  502    0 -0.31404211702E+02  0.39452295290E+02  0.11002367894E+03  0.12102858358E+03  0.00000000000E+00 0. -1.
         22    1    3    3    0    0  0.27803911490E+02 -0.60194131438E+02 -0.15952668450E+03  0.17275750062E+03  0.00000000000E+00 0. -1.
         22    1    3    3    0    0 -0.87199862589E+01  0.46116491894E+02 -0.31727794921E+03  0.32073051935E+03  0.00000000000E+00 0. -1.
</event>
<event>
 7    1  0.5064652E-006  0.2061486E+03  0.7818608E-02  0.1294006E+00
          2   -1    0    0  502    0  0.00000000000E+00  0.00000000000E+00  0.38140908981E+03  0.38140908981E+03  0.00000000000E+00 0. -1.
          1   -1    0    0  501    0 -0.00000000000E+00 -0.00000000000E+00 -0.46693658603E+03  0.46693658603E+03  0.00000000000E+00 0. -1.
         25    2    1    2    0    0 -0.14910556140E+03  0.18793699559E+03 -0.22374110365E+03  0.35105090740E+03  0.12499550140E+03 0.  0.
          2    1    1    2  501    0  0.92060330975E+01 -0.41632958071E+02 -0.14389215347E+03  0.15007666731E+03  0.00000000000E+00 0. -1.
          1    1    1    2  502    0  0.13989952830E+03 -0.14630403752E+03  0.28210576090E+03  0.34721810112E+03  0.00000000000E+00 0. -1.
         22    1    3    3    0    0 -0.64031313289E+02  0.73518216017E+01 -0.90276452631E+02  0.11092292938E+03  0.00000000000E+00 0. -1.
         22    1    3    3    0    0 -0.85074248112E+02  0.18058517399E+03 -0.13346465102E+03  0.24012797802E+03  0.00000000000E+00 0. -1.
</event>
<event>
 7    1  0.5064652E-006  0.1295474E+03  0.7818608E-02  0.1231465E+00
          2   -1    0    0  502    0  0.00000000000E+00  0.00000000000E+00  0.11136724751E+03  0.11136724751E+03  0.00000000000E+00 0. -1.
          1   -1    0    0  501    0 -0.00000000000E+00 -0.00000000000E+00 -0.26274998023E+04  0.26274998023E+04  0.00000000000E+00 0. -1.
         25    2    1    2    0    0 -0.13709818267E+02  0.60327197824E+01 -0.13250219034E+04  0.13309891126E+04  0.12499848209E+03 0.  0.
          2    1    1    2  501    0 -0.14719122605E+02  0.12429086907E+03 -0.12541245374E+04  0.12603544057E+04  0.00000000000E+00 0. -1.
          1    1    1    2  502    0  0.28428940872E+02 -0.13032358885E+03  0.63013886072E+02  0.14752353144E+03  0.00000000000E+00 0. -1.
         22    1    3    3    0    0  0.23359569639E+02  0.48219893956E+02 -0.97673802525E+03  0.97820652096E+03  0.00000000000E+00 0. -1.
         22    1    3    3    0    0 -0.37069387906E+02 -0.42187174174E+02 -0.34828387817E+03  0.35278259166E+03  0.00000000000E+00 0. -1.
</event>
<event>
 7    1  0.5064652E-006  0.2668252E+03  0.7818608E-02  0.1139007E+00
          2   -1    0    0  502    0  0.00000000000E+00  0.00000000000E+00  0.40308730300E+03  0.40308730300E+03  0.00000000000E+00 0. -1.
          1   -1    0    0  501    0 -0.00000000000E+00 -0.00000000000E+00 -0.85720121923E+03  0.85720121923E+03  0.00000000000E+00 0. -1.
         25    2    1    2    0    0 -0.22325329318E+03  0.19511919472E+03 -0.24809108133E+03  0.40630919082E+03  0.12499776339E+03 0.  0.
          2    1    1    2  501    0  0.26784052241E+03 -0.30599985942E+02 -0.46878530837E+03  0.54077219781E+03  0.00000000000E+00 0. -1.
          1    1    1    2  502    0 -0.44587229235E+02 -0.16451920878E+03  0.26276247347E+03  0.31320713359E+03  0.00000000000E+00 0. -1.
         22    1    3    3    0    0  0.70565327188E+01  0.12455934628E+02 -0.49578662657E+02  0.51604154410E+02  0.00000000000E+00 0. -1.
         22    1    3    3    0    0 -0.23030982590E+03  0.18266326009E+03 -0.19851241867E+03  0.35470503641E+03  0.00000000000E+00 0. -1.
</event>
<event>
 7    1  0.5064652E-006  0.9157151E+02  0.7818608E-02  0.1308521E+00
          2   -1    0    0  502    0  0.00000000000E+00  0.00000000000E+00  0.75154292551E+03  0.75154292551E+03  0.00000000000E+00 0. -1.
          1   -1    0    0  501    0 -0.00000000000E+00 -0.00000000000E+00 -0.26480241118E+03  0.26480241118E+03  0.00000000000E+00 0. -1.
         25    2    1    2    0    0  0.85940313009E+02  0.67396819196E+02  0.48432584219E+02  0.17291169090E+03  0.12499867599E+03 0.  0.
          2    1    1    2  501    0  0.50885910874E+01 -0.83836483665E+02 -0.19032380131E+03  0.20803268757E+03  0.00000000000E+00 0. -1.
          1    1    1    2  502    0 -0.91028904096E+02  0.16439664469E+02  0.62863173142E+03  0.63540095821E+03  0.00000000000E+00 0. -1.
         22    1    3    3    0    0 -0.14359034351E+02 -0.21158199720E+02 -0.92730603768E+01  0.27200017126E+02  0.00000000000E+00 0.  1.
         22    1    3    3    0    0  0.10029934736E+03  0.88555018916E+02  0.57705644596E+02  0.14571167377E+03  0.00000000000E+00 0.  1.
</event>
<event>
 7    1  0.5064652E-006  0.1199862E+03  0.7818608E-02  0.1264391E+00
          2   -1    0    0  502    0  0.00000000000E+00  0.00000000000E+00  0.10680545687E+04  0.10680545687E+04  0.00000000000E+00 0. -1.
          1   -1    0    0  501    0 -0.00000000000E+00 -0.00000000000E+00 -0.61737168698E+03  0.61737168698E+03  0.00000000000E+00 0. -1.
         25    2    1    2    0    0  0.10648163253E+03  0.14021129894E+02  0.46459795122E+03  0.49296178590E+03  0.12500054374E+03 0.  0.
          2    1    1    2  501    0 -0.64780152671E+02 -0.10175797236E+03 -0.59307290034E+03  0.60521617479E+03  0.00000000000E+00 0. -1.
          1    1    1    2  502    0 -0.41701479855E+02  0.87736842462E+02  0.57915783084E+03  0.58724829499E+03  0.00000000000E+00 0. -1.
         22    1    3    3    0    0  0.22242250449E+02 -0.42663235056E+02  0.26159258541E+03  0.26598035655E+03  0.00000000000E+00 0.  1.
         22    1    3    3    0    0  0.84239382077E+02  0.56684364950E+02  0.20300536581E+03  0.22698142935E+03  0.00000000000E+00 0.  1.
</event>
<event>
 7    1  0.5064652E-006  0.5223952E+02  0.7818608E-02  0.1477462E+00
          2   -1    0    0  502    0  0.00000000000E+00  0.00000000000E+00  0.63199779453E+03  0.63199779453E+03  0.00000000000E+00 0. -1.
          1   -1    0    0  501    0 -0.00000000000E+00 -0.00000000000E+00 -0.88157857841E+03  0.88157857841E+03  0.00000000000E+00 0. -1.
         25    2    1    2    0    0 -0.11974153675E+02  0.52771385572E+02 -0.11765900059E+03  0.17999626234E+03  0.12500725798E+03 0.  0.
          2    1    1    2  501    0 -0.25343628567E+02 -0.46074909920E+02 -0.73120768866E+03  0.73309609247E+03  0.00000000000E+00 0. -1.
          1    1    1    2  502    0  0.37317782242E+02 -0.66964756530E+01  0.59928590537E+03  0.60048401813E+03  0.00000000000E+00 0. -1.
         22    1    3    3    0    0  0.48476232879E+01  0.67564608853E+02 -0.13541445998E+03  0.15141186147E+03  0.00000000000E+00 0. -1.
         22    1    3    3    0    0 -0.16821776963E+02 -0.14793223281E+02  0.17755459395E+02  0.28584400878E+02  0.00000000000E+00 0. -1.
</event>
<event>
 7    1  0.5064652E-006  0.1402429E+03  0.7818608E-02  0.1342611E+00
          2   -1    0    0  502    0  0.00000000000E+00  0.00000000000E+00  0.10750018934E+03  0.10750018934E+03  0.00000000000E+00 0. -1.
          1   -1    0    0  501    0 -0.00000000000E+00 -0.00000000000E+00 -0.13443002932E+04  0.13443002932E+04  0.00000000000E+00 0. -1.
         25    2    1    2    0    0 -0.61173809777E+00  0.15180287102E+03 -0.57321271642E+03  0.60600554359E+03  0.12500165887E+03 0.  0.
          2    1    1    2  501    0  0.36834046452E+02 -0.16950283478E+02 -0.70025512983E+03  0.70142804759E+03  0.00000000000E+00 0. -1.
          1    1    1    2  502    0 -0.36222308355E+02 -0.13485258755E+03  0.36667742390E+02  0.14436689136E+03  0.00000000000E+00 0. -1.
         22    1    3    3    0    0  0.36135954847E+02 -0.34114199919E+01 -0.85937159557E+02  0.93287943550E+02  0.00000000000E+00 0. -1.
         22    1    3    3    0    0 -0.36747692945E+02  0.15521429102E+03 -0.48727555686E+03  0.51271760004E+03  0.00000000000E+00 0. -1.
</event>
<event>
 7    1  0.5064652E-006  0.1151962E+03  0.7818608E-02  0.1263526E+00
          2   -1    0    0  502    0  0.00000000000E+00  0.00000000000E+00  0.14857194551E+04  0.14857194551E+04  0.00000000000E+00 0. -1.
          1   -1    0    0  501    0 -0.00000000000E+00 -0.00000000000E+00 -0.22742797430E+03  0.22742797430E+03  0.00000000000E+00 0. -1.
         25    2    1    2    0    0 -0.73758317799E+02  0.13865393795E+03 -0.55603657585E+01  0.20079943315E+03  0.12499716289E+03 0.  0.
          2    1    1    2  501    0 -0.33296491285E+02 -0.96454935279E+02 -0.10045899155E+03  0.14319294624E+03  0.00000000000E+00 0. -1.
          1    1    1    2  502    0  0.10705480908E+03 -0.42199002672E+02  0.13643108381E+04  0.13691550500E+04  0.00000000000E+00 0. -1.
         22    1    3    3    0    0 -0.27502375131E+02  0.91343272444E+02 -0.62050542155E+02  0.11379913814E+03  0.00000000000E+00 0. -1.
         22    1    3    3    0    0 -0.46255942668E+02  0.47310665508E+02  0.56490176396E+02  0.87000295012E+02  0.00000000000E+00 0. -1.
</event>
<event>
 7    1  0.5064652E-006  0.5081581E+02  0.7818608E-02  0.1576990E+00
          2   -1    0    0  502    0  0.00000000000E+00  0.00000000000E+00  0.55999430164E+03  0.55999430164E+03  0.00000000000E+00 0. -1.
          1   -1    0    0  501    0 -0.00000000000E+00 -0.00000000000E+00 -0.13461264026E+04  0.13461264026E+04  0.00000000000E+00 0. -1.
         25    2    1    2    0    0 -0.10792764019E+02  0.63491040705E+02 -0.50376323286E+03  0.52301671286E+03  0.12498596382E+03 0.  0.
          2    1    1    2  501    0  0.15465160670E+02 -0.12916673169E+02 -0.83144234579E+03  0.83168647098E+03  0.00000000000E+00 0. -1.
          1    1    1    2  502    0 -0.46723966507E+01 -0.50574367536E+02  0.54907347767E+03  0.55141752042E+03  0.00000000000E+00 0. -1.
         22    1    3    3    0    0  0.39765508429E+00 -0.31510572411E+02 -0.48689656166E+02  0.57997904452E+02  0.00000000000E+00 0. -1.
         22    1    3    3    0    0 -0.11190419103E+02  0.95001613116E+02 -0.45507357669E+03  0.46501880841E+03  0.00000000000E+00 0. -1.
</event>
<event>
 7    1  0.5064652E-006  0.3109423E+02  0.7818608E-02  0.1630266E+00
          2   -1    0    0  502    0  0.00000000000E+00  0.00000000000E+00  0.30118463798E+03  0.30118463798E+03  0.00000000000E+00 0. -1.
          1   -1    0    0  501    0 -0.00000000000E+00 -0.00000000000E+00 -0.56074535644E+03  0.56074535644E+03  0.00000000000E+00 0. -1.
         25    2    1    2    0    0 -0.77420130029E+01 -0.62751460899E+01 -0.31675971320E+03  0.34067841084E+03  0.12500298988E+03 0.  0.
          2    1    1    2  501    0  0.30932335690E+02  0.12190355847E+02 -0.23033554205E+03  0.23272274513E+03  0.00000000000E+00 0. -1.
          1    1    1    2  502    0 -0.23190322687E+02 -0.59152097569E+01  0.28753453679E+03  0.28852883846E+03  0.00000000000E+00 0. -1.
         22    1    3    3    0    0  0.22198309717E+02 -0.44564919934E+02 -0.53953192476E+02  0.73414876022E+02  0.00000000000E+00 0.  1.
         22    1    3    3    0    0 -0.29940322720E+02  0.38289773844E+02 -0.26280652073E+03  0.26726353481E+03  0.00000000000E+00 0.  1.
</event>
<event>
 7    1  0.5064652E-006  0.1248815E+03  0.7818608E-02  0.1416015E+00
          2   -1    0    0  502    0  0.00000000000E+00  0.00000000000E+00  0.88511904631E+03  0.88511904631E+03  0.00000000000E+00 0. -1.
          1   -1    0    0  501    0 -0.00000000000E+00 -0.00000000000E+00 -0.86586616818E+03  0.86586616818E+03  0.00000000000E+00 0. -1.
         25    2    1    2    0    0 -0.23701194899E+02  0.10104309672E+03  0.17584350867E+03  0.23940844732E+03  0.12499604422E+03 0.  0.
          2    1    1    2  501    0  0.14991745517E+02 -0.12447489086E+03 -0.82913879457E+03  0.83856418451E+03  0.00000000000E+00 0. -1.
          1    1    1    2  502    0  0.87094493819E+01  0.23431794140E+02  0.67254816403E+03  0.67301258266E+03  0.00000000000E+00 0. -1.
         22    1    3    3    0    0 -0.28860610182E+02  0.50139097053E+02  0.17902935714E+03  0.18814455770E+03  0.00000000000E+00 0.  1.
         22    1    3    3    0    0  0.51594152830E+01  0.50903999665E+02 -0.31858484728E+01  0.51263889615E+02  0.00000000000E+00 0.  1.
</event>
<event>
 7    1  0.5064652E-006  0.3382354E+03  0.7818608E-02  0.1291036E+00
          2   -1    0    0  502    0  0.00000000000E+00  0.00000000000E+00  0.22681614727E+04  0.22681614727E+04  0.00000000000E+00 0. -1.
          1   -1    0    0  501    0 -0.00000000000E+00 -0.00000000000E+00 -0.10309453896E+04  0.10309453896E+04  0.00000000000E+00 0. -1.
         25    2    1    2    0    0 -0.31882034607E+03  0.31995814704E+02  0.29802778507E+03  0.45510166296E+03  0.12500727070E+03 0.  0.
          2    1    1    2  501    0  0.33557690051E+03 -0.52805717374E+02 -0.92201781845E+03  0.98260732619E+03  0.00000000000E+00 0. -1.
          1    1    1    2  502    0 -0.16756554438E+02  0.20809902670E+02  0.18612061164E+04  0.18613978731E+04  0.00000000000E+00 0. -1.
         22    1    3    3    0    0 -0.36012898168E+02 -0.20667564573E+02  0.92991741662E+02  0.10184076334E+03  0.00000000000E+00 0.  1.
         22    1    3    3    0    0 -0.28280744790E+03  0.52663379277E+02  0.20503604340E+03  0.35326089962E+03  0.00000000000E+00 0.  1.
</event>
<event>
 7    1  0.5064652E-006  0.8036761E+02  0.7818608E-02  0.1367140E+00
          2   -1    0    0  502    0  0.00000000000E+00  0.00000000000E+00  0.19238419402E+03  0.19238419402E+03  0.00000000000E+00 0. -1.
          1   -1    0    0  501    0 -0.00000000000E+00 -0.00000000000E+00 -0.95028706122E+03  0.95028706122E+03  0.00000000000E+00 0. -1.
         25    2    1    2    0    0  0.23060599386E+02  0.15034005300E+02 -0.15827633505E+02  0.12897264197E+03  0.12500246331E+03 0.  0.
          2    1    1    2  501    0 -0.80517520475E+02 -0.16760605039E+02 -0.86977647430E+03  0.87365617049E+03  0.00000000000E+00 0. -1.
          1    1    1    2  502    0  0.57456921089E+02  0.17265997389E+01  0.12770124061E+03  0.14004244278E+03  0.00000000000E+00 0. -1.
         22    1    3    3    0    0  0.31830734274E+02  0.67288639796E+02 -0.32166744582E+01  0.74507071373E+02  0.00000000000E+00 0. -1.
         22    1    3    3    0    0 -0.87701348880E+01 -0.52254634496E+02 -0.12610959046E+02  0.54465570596E+02  0.00000000000E+00 0. -1.
</event>
<event>
 7    1  0.5064652E-006  0.9586870E+02  0.7818608E-02  0.1294931E+00
          2   -1    0    0  502    0  0.00000000000E+00  0.00000000000E+00  0.32660051232E+04  0.32660051232E+04  0.00000000000E+00 0. -1.
          1   -1    0    0  501    0 -0.00000000000E+00 -0.00000000000E+00 -0.42459612628E+03  0.42459612628E+03  0.00000000000E+00 0. -1.
         25    2    1    2    0    0  0.42968570426E+01  0.27677325506E+02  0.15681976110E+04  0.15734203235E+04  0.12499307975E+03 0.  0.
          2    1    1    2  501    0  0.84907078987E+02 -0.45164280835E+02 -0.41526679734E+03  0.42625759500E+03  0.00000000000E+00 0. -1.
          1    1    1    2  502    0 -0.89203936030E+02  0.17486955329E+02  0.16884781832E+04  0.16909233309E+04  0.00000000000E+00 0. -1.
         22    1    3    3    0    0  0.26392541650E+02  0.64572734802E+02  0.56330630183E+03  0.56760919127E+03  0.00000000000E+00 0. -1.
         22    1    3    3    0    0 -0.22095684608E+02 -0.36895409297E+02  0.10048913091E+04  0.10058111322E+04  0.00000000000E+00 0. -1.
</event>
<event>
 7    1  0.5064652E-006  0.5041970E+02  0.7818608E-02  0.1456096E+00
          2   -1    0    0  502    0  0.00000000000E+00  0.00000000000E+00  0.18115858448E+04  0.18115858448E+04  0.00000000000E+00 0. -1.
          1   -1    0    0  501    0 -0.00000000000E+00 -0.00000000000E+00 -0.18138258137E+03  0.18138258137E+03  0.00000000000E+00 0. -1.
         25    2    1    2    0    0 -0.50137866150E+02 -0.41214761108E+02  0.10943797469E+03  0.17836486635E+03  0.12499957235E+03 0.  0.
          2    1    1    2  501    0  0.52288342253E+01  0.50258330835E+02 -0.14224972966E+03  0.15095769644E+03  0.00000000000E+00 0. -1.
          1    1    1    2  502    0  0.44909031925E+02 -0.90435697272E+01  0.16630150184E+04  0.16636458634E+04  0.00000000000E+00 0. -1.
         22    1    3    3    0    0 -0.22738321981E+02 -0.84211830530E+02  0.51952519719E+02  0.10152698160E+03  0.00000000000E+00 0. -1.
         22    1    3    3    0    0 -0.27399544169E+02  0.42997069423E+02  0.57485454967E+02  0.76837884747E+02  0.00000000000E+00 0. -1.
</event>
<event>
 7    1  0.5064652E-006  0.1896234E+03  0.7818608E-02  0.1262500E+00
          2   -1    0    0  502    0  0.00000000000E+00  0.00000000000E+00  0.33571966271E+03  0.33571966271E+03  0.00000000000E+00 0. -1.
          1   -1    0    0  501    0 -0.00000000000E+00 -0.00000000000E+00 -0.77043903972E+03  0.77043903972E+03  0.00000000000E+00 0. -1.
         25    2    1    2    0    0  0.16126420190E+03  0.15849274372E+03 -0.19698612529E+03  0.32489095840E+03  0.12499803464E+03 0.  0.
          2    1    1    2  501    0 -0.15366486735E+03 -0.96340718669E+02 -0.48940136001E+03  0.52192730979E+03  0.00000000000E+00 0. -1.
          1    1    1    2  502    0 -0.75993345567E+01 -0.62152025050E+02  0.25166810828E+03  0.25934043424E+03  0.00000000000E+00 0. -1.
         22    1    3    3    0    0  0.34210284170E+02  0.64011154285E+02 -0.13800865347E+03  0.15592998380E+03  0.00000000000E+00 0. -1.
         22    1    3    3    0    0  0.12705391773E+03  0.94481589434E+02 -0.58977471817E+02  0.16896097459E+03  0.00000000000E+00 0. -1.
</event>
<event>
 7    1  0.5064652E-006  0.1169658E+03  0.7818608E-02  0.1273668E+00
          2   -1    0    0  502    0  0.00000000000E+00  0.00000000000E+00  0.96047517041E+02  0.96047517041E+02  0.00000000000E+00 0. -1.
          1   -1    0    0  501    0 -0.00000000000E+00 -0.00000000000E+00 -0.30280990256E+04  0.30280990256E+04  0.00000000000E+00 0. -1.
         25    2    1    2    0    0  0.14626677668E+03 -0.13656402148E+03 -0.87856102144E+03  0.90969148889E+03  0.12500173857E+03 0.  0.
          2    1    1    2  501    0 -0.50628803711E+02  0.75722086934E+02 -0.20925740038E+04  0.20945555785E+04  0.00000000000E+00 0. -1.
          1    1    1    2  502    0 -0.95637972973E+02  0.60841934546E+02  0.39083516699E+02  0.11989947519E+03  0.00000000000E+00 0. -1.
         22    1    3    3    0    0  0.11389074601E+03 -0.14385134166E+03 -0.55741599068E+03  0.58683634617E+03  0.00000000000E+00 0.  1.
         22    1    3    3    0    0  0.32376030670E+02  0.72873201820E+01 -0.32114503076E+03  0.32285514272E+03  0.00000000000E+00 0.  1.
</event>
<event>
 7    1  0.5064652E-006  0.7661371E+02  0.7818608E-02  0.1477856E+00
          2   -1    0    0  502    0  0.00000000000E+00  0.00000000000E+00  0.25328160768E+03  0.25328160768E+03  0.00000000000E+00 0. -1.
          1   -1    0    0  501    0 -0.00000000000E+00 -0.00000000000E+00 -0.70237740208E+02  0.70237740208E+02  0.00000000000E+00 0. -1.
         25    2    1    2    0    0  0.33307509321E+02  0.55227461626E+02  0.65824278983E+02  0.15529826812E+03  0.12500101473E+03 0.  0.
          2    1    1    2  501    0 -0.46078783260E+02 -0.77621559306E+02  0.10819775572E+03  0.14090817960E+03  0.00000000000E+00 0. -1.
          1    1    1    2  502    0  0.12771273939E+02  0.22394097680E+02  0.90218327677E+01  0.27312900165E+02  0.00000000000E+00 0. -1.
         22    1    3    3    0    0  0.10251973417E+02 -0.27154002195E+02  0.63387526344E+02  0.69716721740E+02  0.00000000000E+00 0.  1.
         22    1    3    3    0    0  0.23055535904E+02  0.82381463821E+02  0.24367526385E+01  0.85581546379E+02  0.00000000000E+00 0.  1.
</event>
<event>
 7    1  0.5064652E-006  0.7900749E+02  0.7818608E-02  0.1425023E+00
          2   -1    0    0  502    0  0.00000000000E+00  0.00000000000E+00  0.35604164539E+04  0.35604164539E+04  0.00000000000E+00 0. -1.
          1   -1    0    0  501    0 -0.00000000000E+00 -0.00000000000E+00 -0.59212097409E+02  0.59212097409E+02  0.00000000000E+00 0. -1.
         25    2    1    2    0    0  0.24912133384E+02  0.10657420420E+03  0.97421101039E+03  0.98827646536E+03  0.12499841531E+03 0.  0.
          2    1    1    2  501    0 -0.33368116789E+02 -0.70686987572E+02 -0.22696706861E+02  0.81395466289E+02  0.00000000000E+00 0. -1.
          1    1    1    2  502    0  0.84559834044E+01 -0.35887216630E+02  0.25496900530E+04  0.25499566197E+04  0.00000000000E+00 0. -1.
         22    1    3    3    0    0  0.68968653330E+02  0.97316828901E+02  0.63669878206E+03  0.64777509941E+03  0.00000000000E+00 0. -1.
         22    1    3    3    0    0 -0.44056519946E+02  0.92573753010E+01  0.33751222833E+03  0.34050136595E+03  0.00000000000E+00 0. -1.
</event>
<event>
 7    1  0.5064652E-006  0.1933823E+03  0.7818608E-02  0.1222375E+00
          2   -1    0    0  502    0  0.00000000000E+00  0.00000000000E+00  0.40973655542E+04  0.40973655542E+04  0.00000000000E+00 0. -1.
          1   -1    0    0  501    0 -0.00000000000E+00 -0.00000000000E+00 -0.98288967065E+03  0.98288967065E+03  0.00000000000E+00 0. -1.
         25    2    1    2    0    0  0.96521183631E+02 -0.25035474993E+03  0.12499288981E+04  0.12845002343E+04  0.12499904834E+03 0.  0.
          2    1    1    2  501    0 -0.10905780901E+03  0.15907253069E+03 -0.95521332771E+03  0.97448970090E+03  0.00000000000E+00 0. -1.
          1    1    1    2  502    0  0.12536625380E+02  0.91282219233E+02  0.28197603132E+04  0.28212652896E+04  0.00000000000E+00 0. -1.
         22    1    3    3    0    0  0.94507046122E+02 -0.76697610131E+02  0.55647916902E+03  0.56963424293E+03  0.00000000000E+00 0. -1.
         22    1    3    3    0    0  0.20141375087E+01 -0.17365713980E+03  0.69344972903E+03  0.71486599139E+03  0.00000000000E+00 0. -1.
</event>
<event>
 7    1  0.5064652E-006  0.1033140E+03  0.7818608E-02  0.1274035E+00
          2   -1    0    0  502    0  0.00000000000E+00  0.00000000000E+00  0.53610223955E+03  0.53610223955E+03  0.00000000000E+00 0. -1.
          1   -1    0    0  501    0 -0.00000000000E+00 -0.00000000000E+00 -0.67916388009E+03  0.67916388009E+03  0.00000000000E+00 0. -1.
         25    2    1    2    0    0  0.52809774370E+02  0.12735252052E+03  0.39265868893E+02  0.19019628997E+03  0.12500113402E+03 0.  0.
          2    1    1    2  501    0 -0.97617791129E+02 -0.34874104899E+02 -0.59286880525E+03  0.60186282206E+03  0.00000000000E+00 0. -1.
          1    1    1    2  502    0  0.44808016759E+02 -0.92478415619E+02  0.41054129582E+03  0.42320700762E+03  0.00000000000E+00 0. -1.
         22    1    3    3    0    0  0.39043925184E+02  0.84169300005E+02  0.84981817491E+02  0.12582054070E+03  0.00000000000E+00 0.  1.
         22    1    3    3    0    0  0.13765849186E+02  0.43183220514E+02 -0.45715948598E+02  0.64375749269E+02  0.00000000000E+00 0.  1.
</event>
<event>
 7    1  0.5064652E-006  0.3146510E+02  0.7818608E-02  0.1623752E+00
          2   -1    0    0  502    0  0.00000000000E+00  0.00000000000E+00  0.59681643416E+03  0.59681643416E+03  0.00000000000E+00 0. -1.
          1   -1    0    0  501    0 -0.00000000000E+00 -0.00000000000E+00 -0.41046603703E+03  0.41046603703E+03  0.00000000000E+00 0. -1.
         25    2    1    2    0    0 -0.39036591480E+02 -0.39087659408E+02  0.11557123711E+03  0.17897698203E+03  0.12499739460E+03 0.  0.
          2    1    1    2  501    0  0.18889620237E+02  0.25035752136E+02 -0.37777734029E+03  0.37907693873E+03  0.00000000000E+00 0. -1.
          1    1    1    2  502    0  0.20146971243E+02  0.14051907271E+02  0.44855650031E+03  0.44922855043E+03  0.00000000000E+00 0. -1.
         22    1    3    3    0    0 -0.52795502394E+02 -0.54687285103E+02  0.16549638125E+02  0.77794310506E+02  0.00000000000E+00 0. -1.
         22    1    3    3    0    0  0.13758910915E+02  0.15599625695E+02  0.99021598988E+02  0.10118267153E+03  0.00000000000E+00 0. -1.
</event>
<event>
 7    1  0.5064652E-006  0.7019099E+02  0.7818608E-02  0.1382981E+00
          2   -1    0    0  502    0  0.00000000000E+00  0.00000000000E+00  0.68019941141E+03  0.68019941141E+03  0.00000000000E+00 0. -1.
          1   -1    0    0  501    0 -0.00000000000E+00 -0.00000000000E+00 -0.42038331537E+03  0.42038331537E+03  0.00000000000E+00 0. -1.
         25    2    1    2    0    0 -0.46863412812E+02  0.51740703393E+02  0.49743635749E+03  0.51763044217E+03  0.12500026025E+03 0.  0.
          2    1    1    2  501    0 -0.80013912109E+01 -0.69878661830E+02 -0.40231365166E+03  0.40841562648E+03  0.00000000000E+00 0. -1.
          1    1    1    2  502    0  0.54864804023E+02  0.18137958438E+02  0.16469339020E+03  0.17453665813E+03  0.00000000000E+00 0. -1.
         22    1    3    3    0    0  0.33739540766E+02 -0.76710239174E+00  0.52483723124E+02  0.62397806453E+02  0.00000000000E+00 0.  1.
         22    1    3    3    0    0 -0.80602953578E+02  0.52507805784E+02  0.44495263437E+03  0.45523263572E+03  0.00000000000E+00 0.  1.
</event>
<event>
 7    1  0.5064652E-006  0.2170646E+03  0.7818608E-02  0.1175251E+00
          2   -1    0    0  502    0  0.00000000000E+00  0.00000000000E+00  0.55471558361E+03  0.55471558361E+03  0.00000000000E+00 0. -1.
          1   -1    0    0  501    0 -0.00000000000E+00 -0.00000000000E+00 -0.77335275430E+03  0.77335275430E+03  0.00000000000E+00 0. -1.
         25    2    1    2    0    0 -0.33199303465E+03  0.15899679667E+02 -0.79287717080E+02  0.36384685288E+03  0.12500326154E+03 0.  0.
          2    1    1    2  501    0  0.20079862329E+03  0.23928408291E+02 -0.52090514002E+03  0.55877976049E+03  0.00000000000E+00 0. -1.
          1    1    1    2  502    0  0.13119441136E+03 -0.39828087958E+02  0.38155568641E+03  0.40544172454E+03  0.00000000000E+00 0. -1.
         22    1    3    3    0    0  0.44538444168E+01 -0.17914848106E+01 -0.21482315557E+02  0.22012179120E+02  0.00000000000E+00 0.  1.
         22    1    3    3    0    0 -0.33644687907E+03  0.17691164477E+02 -0.57805401522E+02  0.34183467375E+03  0.00000000000E+00 0.  1.
</event>
<event>
 7    1  0.5064652E-006  0.1924300E+03  0.7818608E-02  0.1323731E+00
          2   -1    0    0  502    0  0.00000000000E+00  0.00000000000E+00  0.48743445065E+03  0.48743445065E+03  0.00000000000E+00 0. -1.
          1   -1    0    0  501    0 -0.00000000000E+00 -0.00000000000E+00 -0.32280092007E+03  0.32280092007E+03  0.00000000000E+00 0. -1.
         25    2    1    2    0    0  0.17751152214E+03 -0.13080620121E+03  0.25863613320E+03  0.36211507683E+03  0.12495629919E+03 0.  0.
          2    1    1    2  501    0 -0.16080973845E+03  0.10020586302E+03 -0.23557508755E+03  0.30231872062E+03  0.00000000000E+00 0. -1.
          1    1    1    2  502    0 -0.16701783684E+02  0.30600338194E+02  0.14157248493E+03  0.14580157326E+03  0.00000000000E+00 0. -1.
         22    1    3    3    0    0  0.19440899395E+03 -0.10081962172E+03  0.22537512571E+03  0.31425053753E+03  0.00000000000E+00 0.  1.
         22    1    3    3    0    0 -0.16897471812E+02 -0.29986579490E+02  0.33261007488E+02  0.47864539299E+02  0.00000000000E+00 0.  1.
</event>
<event>
 7    1  0.5064652E-006  0.3128575E+02  0.7818608E-02  0.1633593E+00
          2   -1    0    0  502    0  0.00000000000E+00  0.00000000000E+00  0.71208513228E+02  0.71208513228E+02  0.00000000000E+00 0. -1.
          1   -1    0    0  501    0 -0.00000000000E+00 -0.00000000000E+00 -0.36060068955E+03  0.36060068955E+03  0.00000000000E+00 0. -1.
         25    2    1    2    0    0 -0.45974472861E+01  0.94402210870E+01 -0.10048596682E+03  0.16072618098E+03  0.12500088572E+03 0.  0.
          2    1    1    2  501    0 -0.96291104630E+00 -0.32101538511E+02 -0.22544954959E+03  0.22772557033E+03  0.00000000000E+00 0. -1.
          1    1    1    2  502    0  0.55603583324E+01  0.22661317424E+02  0.36543340087E+02  0.43357451457E+02  0.00000000000E+00 0. -1.
         22    1    3    3    0    0  0.15958492825E+02 -0.16127243840E+02 -0.12028663845E+03  0.12240766674E+03  0.00000000000E+00 0. -1.
         22    1    3    3    0    0 -0.20555940111E+02  0.25567464927E+02  0.19800671635E+02  0.38318514244E+02  0.00000000000E+00 0. -1.
</event>
<event>
 7    1  0.5064652E-006  0.1038631E+03  0.7818608E-02  0.1404961E+00
          2   -1    0    0  502    0  0.00000000000E+00  0.00000000000E+00  0.22099426102E+02  0.22099426102E+02  0.00000000000E+00 0. -1.
          1   -1    0    0  501    0 -0.00000000000E+00 -0.00000000000E+00 -0.20545986806E+04  0.20545986806E+04  0.00000000000E+00 0. -1.
         25    2    1    2    0    0 -0.83821186860E+02  0.99437844547E+02 -0.10772032817E+04  0.10922025917E+04  0.12500285891E+03 0.  0.
          2    1    1    2  501    0  0.11577872122E+02 -0.30648487678E+02 -0.79513033572E+03  0.79580501864E+03  0.00000000000E+00 0. -1.
          1    1    1    2  502    0  0.72243314737E+02 -0.68789356868E+02 -0.16016563702E+03  0.18869049638E+03  0.00000000000E+00 0. -1.
         22    1    3    3    0    0 -0.40598863710E-02 -0.46967649443E+01 -0.48812126680E+03  0.48814386273E+03  0.00000000000E+00 0. -1.
         22    1    3    3    0    0 -0.83817126973E+02  0.10413460949E+03 -0.58908201493E+03  0.60405872892E+03  0.00000000000E+00 0. -1.
</event>
<event>
 7    1  0.5064652E-006  0.8880682E+02  0.7818608E-02  0.1394884E+00
          2   -1    0    0  502    0  0.00000000000E+00  0.00000000000E+00  0.31217960463E+04  0.31217960463E+04  0.00000000000E+00 0. -1.
          1   -1    0    0  501    0 -0.00000000000E+00 -0.00000000000E+00 -0.94371399997E+03  0.94371399997E+03  0.00000000000E+00 0. -1.
         25    2    1    2    0    0  0.99361652553E+02  0.55811694983E+02  0.68789566638E+02  0.18260535700E+03  0.12500011453E+03 0.  0.
          2    1    1    2  501    0 -0.59091651725E+02 -0.65840613195E+02 -0.88445547283E+03  0.88886910908E+03  0.00000000000E+00 0. -1.
          1    1    1    2  502    0 -0.40270000827E+02  0.10028918212E+02  0.29937479525E+04  0.29940355802E+04  0.00000000000E+00 0. -1.
         22    1    3    3    0    0  0.10125058733E+01  0.36093903263E+02  0.73814997684E+02  0.82173285829E+02  0.00000000000E+00 0. -1.
         22    1    3    3    0    0  0.98349146679E+02  0.19717791720E+02 -0.50254310461E+01  0.10043207117E+03  0.00000000000E+00 0. -1.
</event>
<event>
 7    1  0.5064652E-006  0.1179633E+03  0.7818608E-02  0.1294606E+00
          2   -1    0    0  502    0  0.00000000000E+00  0.00000000000E+00  0.69944085058E+03  0.69944085058E+03  0.00000000000E+00 0. -1.
          1   -1    0    0  501    0 -0.00000000000E+00 -0.00000000000E+00 -0.20234558563E+04  0.20234558563E+04  0.00000000000E+00 0. -1.
         25    2    1    2    0    0 -0.11880727396E+02  0.86779699239E+02  0.96115663326E+02  0.18037711310E+03  0.12500325719E+03 0.  0.
          2    1    1    2  501    0  0.85816615401E+02 -0.81858253720E+02 -0.19770944274E+04  0.19806482879E+04  0.00000000000E+00 0. -1.
          1    1    1    2  502    0 -0.73935888006E+02 -0.49214455190E+01  0.55696375843E+03  0.56187130588E+03  0.00000000000E+00 0. -1.
         22    1    3    3    0    0  0.34173323786E+02  0.56503537835E+02  0.10550744579E+03  0.12446801583E+03  0.00000000000E+00 0. -1.
         22    1    3    3    0    0 -0.46054051181E+02  0.30276161404E+02 -0.93917824654E+01  0.55909097269E+02  0.00000000000E+00 0. -1.
</event>
<event>
 7    1  0.5064652E-006  0.5587365E+02  0.7818608E-02  0.1463884E+00
          2   -1    0    0  502    0  0.00000000000E+00  0.00000000000E+00  0.59866680310E+03  0.59866680310E+03  0.00000000000E+00 0. -1.
          1   -1    0    0  501    0 -0.00000000000E+00 -0.00000000000E+00 -0.60914733333E+02  0.60914733333E+02  0.00000000000E+00 0. -1.
         25    2    1    2    0    0  0.16676629811E+02 -0.25135724050E+02  0.28224728085E+03  0.31015962540E+03  0.12500220427E+03 0.  0.
          2    1    1    2  501    0 -0.55049838571E+02  0.17816251412E+02 -0.27267319707E+02  0.63964132645E+02  0.00000000000E+00 0. -1.
          1    1    1    2  502    0  0.38373208760E+02  0.73194726379E+01  0.28277210862E+03  0.28545777839E+03  0.00000000000E+00 0. -1.
         22    1    3    3    0    0  0.71195104329E+01 -0.49577693928E+02  0.34016763156E+02  0.60545646744E+02  0.00000000000E+00 0. -1.
         22    1    3    3    0    0  0.95571193786E+01  0.24441969879E+02  0.24823051770E+03  0.24961397865E+03  0.00000000000E+00 0. -1.
</event>
<event>
 7    1  0.5064652E-006  0.1956979E+03  0.7818608E-02  0.1228292E+00
          2   -1    0    0  502    0  0.00000000000E+00  0.00000000000E+00  0.26921454067E+04  0.26921454067E+04  0.00000000000E+00 0. -1.
          1   -1    0    0  501    0 -0.00000000000E+00 -0.00000000000E+00 -0.58572903739E+03  0.58572903739E+03  0.00000000000E+00 0. -1.
         25    2    1    2    0    0  0.13632216859E+03  0.83032112641E+02  0.27543594290E+03  0.34200914040E+03  0.12500891206E+03 0.  0.
          2    1    1    2  501    0 -0.11086520615E+03 -0.16477228180E+03 -0.53379430194E+03  0.56954135545E+03  0.00000000000E+00 0. -1.
          1    1    1    2  502    0 -0.25456962444E+02  0.81740169155E+02  0.23647747284E+04  0.23663239482E+04  0.00000000000E+00 0. -1.
         22    1    3    3    0    0  0.15724018200E+03  0.86981295746E+02  0.25842478324E+03  0.31475957371E+03  0.00000000000E+00 0.  1.
         22    1    3    3    0    0 -0.20918013406E+02 -0.39491831047E+01  0.17011159654E+02  0.27249566690E+02  0.00000000000E+00 0.  1.
</event>
<event>
 7    1  0.5064652E-006  0.6949455E+02  0.7818608E-02  0.1475413E+00
          2   -1    0    0  502    0  0.00000000000E+00  0.00000000000E+00  0.13573154014E+03  0.13573154014E+03  0.00000000000E+00 0. -1.
          1   -1    0    0  501    0 -0.00000000000E+00 -0.00000000000E+00 -0.10828423125E+04  0.10828423125E+04  0.00000000000E+00 0. -1.
         25    2    1    2    0    0  0.71665412432E+02  0.48573189120E+02  0.39880206618E+02  0.15717105886E+03  0.12496809521E+03 0.  0.
          2    1    1    2  501    0 -0.66343510995E+02 -0.20149375989E+02 -0.10172136872E+04  0.10195740014E+04  0.00000000000E+00 0. -1.
          1    1    1    2  502    0 -0.53219014365E+01 -0.28423813131E+02  0.30222708194E+02  0.41828792457E+02  0.00000000000E+00 0. -1.
         22    1    3    3    0    0  0.16821649178E+02  0.83577410210E+02  0.10904549697E+02  0.85948010929E+02  0.00000000000E+00 0.  1.
         22    1    3    3    0    0  0.54843763254E+02 -0.35004221090E+02  0.28975656921E+02  0.71223047927E+02  0.00000000000E+00 0.  1.
</event>
<event>
 7    1  0.5064652E-006  0.9047954E+02  0.7818608E-02  0.1445402E+00
          2   -1    0    0  502    0  0.00000000000E+00  0.00000000000E+00  0.13599986818E+04  0.13599986818E+04  0.00000000000E+00 0. -1.
          1   -1    0    0  501    0 -0.00000000000E+00 -0.00000000000E+00 -0.17749455691E+03  0.17749455691E+03  0.00000000000E+00 0. -1.
         25    2    1    2    0    0 -0.11675233072E+03  0.11706262780E+02  0.56385763519E+02  0.18047939897E+03  0.12500126323E+03 0.  0.
          2    1    1    2  501    0  0.27282217389E+02 -0.42952649418E+01 -0.11214728652E+03  0.11549797643E+03  0.00000000000E+00 0. -1.
          1    1    1    2  502    0  0.89470113334E+02 -0.74109978378E+01  0.12382656479E+04  0.12415158633E+04  0.00000000000E+00 0. -1.
         22    1    3    3    0    0 -0.87347861694E+02  0.65403813910E+02  0.45832846645E+02  0.11835521809E+03  0.00000000000E+00 0. -1.
         22    1    3    3    0    0 -0.29404469029E+02 -0.53697551131E+02  0.10552916874E+02  0.62124180887E+02  0.00000000000E+00 0. -1.
</event>
<event>
 7    1  0.5064652E-006  0.2107072E+03  0.7818608E-02  0.1302003E+00
          2   -1    0    0  502    0  0.00000000000E+00  0.00000000000E+00  0.12288719925E+04  0.12288719925E+04  0.00000000000E+00 0. -1.
          1   -1    0    0  501    0 -0.00000000000E+00 -0.00000000000E+00 -0.27898545141E+03  0.27898545141E+03  0.00000000000E+00 0. -1.
         25    2    1    2    0    0 -0.17363862131E+03 -0.36342244647E+02  0.50049166694E+02  0.22271197661E+03  0.12499830351E+03 0.  0.
          2    1    1    2  501    0 -0.38608240488E+02  0.32247615990E+01 -0.18001343037E+03  0.18413535901E+03  0.00000000000E+00 0. -1.
          1    1    1    2  502    0  0.21224686180E+03  0.33117483048E+02  0.10798508048E+04  0.11010101083E+04  0.00000000000E+00 0. -1.
         22    1    3    3    0    0 -0.16492495828E+03 -0.31342706630E+02 -0.38138889104E+01  0.16792007882E+03  0.00000000000E+00 0. -1.
         22    1    3    3    0    0 -0.87136630310E+01 -0.49995380168E+01  0.53863055604E+02  0.54791897785E+02  0.00000000000E+00 0. -1.
</event>
<event>
 7    1  0.5064652E-006  0.7471497E+02  0.7818608E-02  0.1465248E+00
          2   -1    0    0  502    0  0.00000000000E+00  0.00000000000E+00  0.16853234909E+04  0.16853234909E+04  0.00000000000E+00 0. -1.
          1   -1    0    0  501    0 -0.00000000000E+00 -0.00000000000E+00 -0.27998927566E+03  0.27998927566E+03  0.00000000000E+00 0. -1.
         25    2    1    2    0    0 -0.76145111199E+02 -0.18583166074E+02  0.14169586493E+04  0.14246180048E+04  0.12498493477E+03 0.  0.
          2    1    1    2  501    0  0.74012915163E+02 -0.10265880801E+02 -0.27028409871E+03  0.28042252751E+03  0.00000000000E+00 0. -1.
          1    1    1    2  502    0  0.21321960365E+01  0.28849046875E+02  0.25865966467E+03  0.26027223420E+03  0.00000000000E+00 0. -1.
         22    1    3    3    0    0  0.30052714301E+02  0.11240505655E+02  0.50389473305E+03  0.50491525685E+03  0.00000000000E+00 0.  1.
         22    1    3    3    0    0 -0.10619782550E+03 -0.29823671729E+02  0.91306391623E+03  0.91970274799E+03  0.00000000000E+00 0.  1.
</event>
<event>
 7    1  0.5064652E-006  0.1253775E+03  0.7818608E-02  0.1407188E+00
          2   -1    0    0  502    0  0.00000000000E+00  0.00000000000E+00  0.85353427382E+03  0.85353427382E+03  0.00000000000E+00 0. -1.
          1   -1    0    0  501    0 -0.00000000000E+00 -0.00000000000E+00 -0.66096683574E+02  0.66096683574E+02  0.00000000000E+00 0. -1.
         25    2    1    2    0    0  0.32833405645E+02 -0.14201762949E+03  0.53654910524E+03  0.56987460010E+03  0.12500031160E+03 0.  0.
          2    1    1    2  501    0 -0.39305909036E+02  0.11614464487E+03  0.28643174671E+02  0.12591649801E+03  0.00000000000E+00 0. -1.
          1    1    1    2  502    0  0.64725033908E+01  0.25872984626E+02  0.22224531033E+03  0.22383985927E+03  0.00000000000E+00 0. -1.
         22    1    3    3    0    0  0.27737557839E+02  0.94043005343E+01  0.33464191166E+02  0.44470946401E+02  0.00000000000E+00 0.  1.
         22    1    3    3    0    0  0.50958478056E+01 -0.15142193003E+03  0.50308491407E+03  0.52540365370E+03  0.00000000000E+00 0.  1.
</event>
<event>
 7    1  0.5064652E-006  0.1140696E+03  0.7818608E-02  0.1437182E+00
          2   -1    0    0  502    0  0.00000000000E+00  0.00000000000E+00  0.22517411560E+04  0.22517411560E+04  0.00000000000E+00 0. -1.
          1   -1    0    0  501    0 -0.00000000000E+00 -0.00000000000E+00 -0.84248076661E+03  0.84248076661E+03  0.00000000000E+00 0. -1.
         25    2    1    2    0    0 -0.57828232639E+02  0.11456395580E+03  0.17823850610E+03  0.25271012531E+03  0.12499775165E+03 0.  0.
          2    1    1    2  501    0  0.22292995873E+02 -0.67478313604E+01 -0.80349387071E+03  0.80383139473E+03  0.00000000000E+00 0. -1.
          1    1    1    2  502    0  0.35535236767E+02 -0.10781612444E+03  0.20345157540E+04  0.20376804025E+04  0.00000000000E+00 0. -1.
         22    1    3    3    0    0 -0.88248475707E+02  0.95199216432E+02  0.17297660488E+03  0.21626740417E+03  0.00000000000E+00 0. -1.
         22    1    3    3    0    0  0.30420243068E+02  0.19364739372E+02  0.52619012211E+01  0.36442721135E+02  0.00000000000E+00 0. -1.
</event>
<event>
 7    1  0.5064652E-006  0.5061777E+02  0.7818608E-02  0.1493235E+00
          2   -1    0    0  502    0  0.00000000000E+00  0.00000000000E+00  0.16126463105E+04  0.16126463105E+04  0.00000000000E+00 0. -1.
          1   -1    0    0  501    0 -0.00000000000E+00 -0.00000000000E+00 -0.49537074707E+03  0.49537074707E+03  0.00000000000E+00 0. -1.
         25    2    1    2    0    0 -0.14341012023E+02 -0.22791231855E+02  0.50116538475E+03  0.51721899381E+03  0.12499455915E+03 0.  0.
          2    1    1    2  501    0  0.48465965808E+02  0.14870764591E+02 -0.48574639304E+03  0.48838473341E+03  0.00000000000E+00 0. -1.
          1    1    1    2  502    0 -0.34124953785E+02  0.79204672640E+01  0.11018565718E+04  0.11024133304E+04  0.00000000000E+00 0. -1.
         22    1    3    3    0    0 -0.85973601276E+01 -0.73989872598E+02  0.33811610479E+03  0.34622379492E+03  0.00000000000E+00 0. -1.
         22    1    3    3    0    0 -0.57436518953E+01  0.51198640742E+02  0.16304927996E+03  0.17099519890E+03  0.00000000000E+00 0. -1.
</event>
<event>
 7    1  0.5064652E-006  0.5364783E+02  0.7818608E-02  0.1462677E+00
          2   -1    0    0  502    0  0.00000000000E+00  0.00000000000E+00  0.26299281817E+04  0.26299281817E+04  0.00000000000E+00 0. -1.
          1   -1    0    0  501    0 -0.00000000000E+00 -0.00000000000E+00 -0.67478399702E+02  0.67478399702E+02  0.00000000000E+00 0. -1.
         25    2    1    2    0    0 -0.40804382576E+01  0.69874593736E+02  0.63278265024E+03  0.64879643826E+03  0.12499530799E+03 0.  0.
          2    1    1    2  501    0  0.33805001182E+02 -0.41573548102E+02 -0.47145727115E+02  0.71371265870E+02  0.00000000000E+00 0. -1.
          1    1    1    2  502    0 -0.29724562924E+02 -0.28301045634E+02  0.19768128589E+04  0.19772388773E+04  0.00000000000E+00 0. -1.
         22    1    3    3    0    0  0.10084229949E+02  0.86266670114E+02  0.61403310912E+03  0.62014537744E+03  0.00000000000E+00 0.  1.
         22    1    3    3    0    0 -0.14164668207E+02 -0.16392076379E+02  0.18749541121E+02  0.28651060812E+02  0.00000000000E+00 0.  1.
</event>
<event>
 7    1  0.5064652E-006  0.1095023E+03  0.7818608E-02  0.1357043E+00
          2   -1    0    0  502    0  0.00000000000E+00  0.00000000000E+00  0.28139210837E+04  0.28139210837E+04  0.00000000000E+00 0. -1.
          1   -1    0    0  501    0 -0.00000000000E+00 -0.00000000000E+00 -0.12445693391E+03  0.12445693391E+03  0.00000000000E+00 0. -1.
         25    2    1    2    0    0 -0.12905083179E+03  0.76918756243E+02  0.79984972822E+03  0.82338007808E+03  0.12499821200E+03 0.  0.
          2    1    1    2  501    0  0.10004171949E+03 -0.41332115689E+02 -0.86370666467E+02  0.13847953441E+03  0.00000000000E+00 0. -1.
          1    1    1    2  502    0  0.29009112302E+02 -0.35586640555E+02  0.19759850881E+04  0.19765184051E+04  0.00000000000E+00 0. -1.
         22    1    3    3    0    0  0.13347496325E+02  0.46782016979E+02  0.24300308395E+03  0.24782496157E+03  0.00000000000E+00 0.  1.
         22    1    3    3    0    0 -0.14239832811E+03  0.30136739264E+02  0.55684664427E+03  0.57555511651E+03  0.00000000000E+00 0.  1.
</event>
<event>
 7    1  0.5064652E-006  0.6297390E+02  0.7818608E-02  0.1539986E+00
          2   -1    0    0  502    0  0.00000000000E+00  0.00000000000E+00  0.50739393203E+03  0.50739393203E+03  0.00000000000E+00 0. -1.
          1   -1    0    0  501    0 -0.00000000000E+00 -0.00000000000E+00 -0.38051045644E+03  0.38051045644E+03  0.00000000000E+00 0. -1.
         25    2    1    2    0    0  0.45584912092E+02  0.15398991199E+02 -0.15844501376E+03  0.20747430764E+03  0.12500261120E+03 0.  0.
          2    1    1    2  501    0 -0.65620274047E+02 -0.10749504480E+02 -0.19172743794E+03  0.20293098007E+03  0.00000000000E+00 0. -1.
          1    1    1    2  502    0  0.20035361955E+02 -0.46494867194E+01  0.47705592730E+03  0.47749910076E+03  0.00000000000E+00 0. -1.
         22    1    3    3    0    0  0.35939820222E+02 -0.19085898639E+02  0.42228570324E+01  0.40911792016E+02  0.00000000000E+00 0.  1.
         22    1    3    3    0    0  0.96450918704E+01  0.34484889838E+02 -0.16266787079E+03  0.16656251562E+03  0.00000000000E+00 0.  1.
</event>
<event>
 7    1  0.5064652E-006  0.1119057E+03  0.7818608E-02  0.1340740E+00
          2   -1    0    0  502    0  0.00000000000E+00  0.00000000000E+00  0.14845724285E+04  0.14845724285E+04  0.00000000000E+00 0. -1.
          1   -1    0    0  501    0 -0.00000000000E+00 -0.00000000000E+00 -0.61676139218E+02  0.61676139218E+02  0.00000000000E+00 0. -1.
         25    2    1    2    0    0 -0.10604880578E+03  0.57154290332E+02  0.15394135057E+03  0.23202508025E+03  0.12499894536E+03 0.  0.
          2    1    1    2  501    0 -0.58517276653E+01 -0.51309917799E+02  0.12965074103E+02  0.53245126798E+02  0.00000000000E+00 0. -1.
          1    1    1    2  502    0  0.11190053344E+03 -0.58443725329E+01  0.12559898646E+04  0.12609783607E+04  0.00000000000E+00 0. -1.
         22    1    3    3    0    0 -0.13213794747E+02  0.13168316301E+02  0.12347210084E+03  0.12487341035E+03  0.00000000000E+00 0.  1.
         22    1    3    3    0    0 -0.92835011031E+02  0.43985974031E+02  0.30469249732E+02  0.10715166991E+03  0.00000000000E+00 0.  1.
</event>
<event>
 7    1  0.5064652E-006  0.8121438E+02  0.7818608E-02  0.1381647E+00
          2   -1    0    0  502    0  0.00000000000E+00  0.00000000000E+00  0.12318692593E+02  0.12318692593E+02  0.00000000000E+00 0. -1.
          1   -1    0    0  501    0 -0.00000000000E+00 -0.00000000000E+00 -0.30591045578E+04  0.30591045578E+04  0.00000000000E+00 0. -1.
         25    2    1    2    0    0 -0.68476544723E+01 -0.10987704845E+03 -0.14675752625E+04  0.14769974663E+04  0.12499803319E+03 0.  0.
          2    1    1    2  501    0 -0.29771535483E+02  0.40774092867E+02 -0.13723040374E+04  0.13732324065E+04  0.00000000000E+00 0. -1.
          1    1    1    2  502    0  0.36619189955E+02  0.69102955585E+02 -0.20690656525E+03  0.22119337759E+03  0.00000000000E+00 0. -1.
         22    1    3    3    0    0  0.31439253607E+02 -0.39379199605E+02 -0.10816044316E+04  0.10827775831E+04  0.00000000000E+00 0. -1.
         22    1    3    3    0    0 -0.38286908079E+02 -0.70497848848E+02 -0.38597083090E+03  0.39421988323E+03  0.00000000000E+00 0. -1.
</event>
<event>
 7    1  0.5064652E-006  0.4895211E+02  0.7818608E-02  0.1550500E+00
          2   -1    0    0  502    0  0.00000000000E+00  0.00000000000E+00  0.17160753571E+03  0.17160753571E+03  0.00000000000E+00 0. -1.
          1   -1    0    0  501    0 -0.00000000000E+00 -0.00000000000E+00 -0.17294202117E+03  0.17294202117E+03  0.00000000000E+00 0. -1.
         25    2    1    2    0    0 -0.69665402543E+01  0.27342340708E+02 -0.17845552178E+02  0.12938402886E+03  0.12500250763E+03 0.  0.
          2    1    1    2  501    0  0.17983907677E+01 -0.51516923905E+02 -0.91142534834E+02  0.10471002490E+03  0.00000000000E+00 0. -1.
          1    1    1    2  502    0  0.51681494866E+01  0.24174583197E+02  0.10765360156E+03  0.11045550312E+03  0.00000000000E+00 0. -1.
         22    1    3    3    0    0 -0.64444131122E+02  0.20457801972E+02  0.34537714590E+01  0.67701523135E+02  0.00000000000E+00 0. -1.
         22    1    3    3    0    0  0.57477590867E+02  0.68845387367E+01 -0.21299323637E+02  0.61682505728E+02  0.00000000000E+00 0. -1.
</event>
<event>
 7    1  0.5064652E-006  0.4552761E+02  0.7818608E-02  0.1518876E+00
          2   -1    0    0  502    0  0.00000000000E+00  0.00000000000E+00  0.21852909790E+02  0.21852909790E+02  0.00000000000E+00 0. -1.
          1   -1    0    0  501    0 -0.00000000000E+00 -0.00000000000E+00 -0.73618522123E+03  0.73618522123E+03  0.00000000000E+00 0. -1.
         25    2    1    2    0    0  0.33016237070E+02  0.10349841656E+02 -0.28733775209E+03  0.31525460811E+03  0.12500117212E+03 0.  0.
          2    1    1    2  501    0 -0.42744629824E+02  0.20873940450E+02 -0.39203873358E+03  0.39491415953E+03  0.00000000000E+00 0. -1.
          1    1    1    2  502    0  0.97283927536E+01 -0.31223782107E+02 -0.34955825778E+02  0.47869363380E+02  0.00000000000E+00 0. -1.
         22    1    3    3    0    0 -0.10663025264E+02  0.89844998558E+01 -0.26645719164E+03  0.26682176884E+03  0.00000000000E+00 0.  1.
         22    1    3    3    0    0  0.43679262334E+02  0.13653418006E+01 -0.20880560440E+02  0.48432839279E+02  0.00000000000E+00 0.  1.
</event>
<event>
 7    1  0.5064652E-006  0.8448605E+02  0.7818608E-02  0.1325823E+00
          2   -1    0    0  502    0  0.00000000000E+00  0.00000000000E+00  0.82931703927E+03  0.82931703927E+03  0.00000000000E+00 0. -1.
          1   -1    0    0  501    0 -0.00000000000E+00 -0.00000000000E+00 -0.40532273562E+03  0.40532273562E+03  0.00000000000E+00 0. -1.
         25    2    1    2    0    0  0.25486640233E+02 -0.34640661650E+01  0.35462153656E+03  0.37688721331E+03  0.12500387507E+03 0.  0.
          2    1    1    2  501    0  0.73181064294E+02 -0.42218772970E+02 -0.38314809584E+03  0.39235233695E+03  0.00000000000E+00 0. -1.
          1    1    1    2  502    0 -0.98667704527E+02  0.45682839135E+02  0.45252086292E+03  0.46540022463E+03  0.00000000000E+00 0. -1.
         22    1    3    3    0    0 -0.10488861550E+02  0.56328378205E+02  0.14272475871E+03  0.15379616106E+03  0.00000000000E+00 0. -1.
         22    1    3    3    0    0  0.35975501783E+02 -0.59792444370E+02  0.21189677785E+03  0.22309105225E+03  0.00000000000E+00 0. -1.
</event>
<event>
 7    1  0.5064652E-006  0.1968398E+03  0.7818608E-02  0.1303725E+00
          2   -1    0    0  502    0  0.00000000000E+00  0.00000000000E+00  0.30521457257E+03  0.30521457257E+03  0.00000000000E+00 0. -1.
          1   -1    0    0  501    0 -0.00000000000E+00 -0.00000000000E+00 -0.22121181686E+03  0.22121181686E+03  0.00000000000E+00 0. -1.
         25    2    1    2    0    0 -0.29893459654E+02  0.21310330430E+03  0.37225734752E+02  0.25162451276E+03  0.12499001104E+03 0.  0.
          2    1    1    2  501    0 -0.18140096984E+01 -0.18739221167E+03 -0.28123399826E+02  0.18949949141E+03  0.00000000000E+00 0. -1.
          1    1    1    2  502    0  0.31707469352E+02 -0.25711092632E+02  0.74900420787E+02  0.85302385260E+02  0.00000000000E+00 0. -1.
         22    1    3    3    0    0  0.77153128250E+01  0.18905962809E+03 -0.62409054763E+01  0.18931988255E+03  0.00000000000E+00 0.  1.
         22    1    3    3    0    0 -0.37608772479E+02  0.24043676207E+02  0.43466640228E+02  0.62304630210E+02  0.00000000000E+00 0.  1.
</event>
<event>
 7    1  0.5064652E-006  0.8191669E+02  0.7818608E-02  0.1491339E+00
          2   -1    0    0  502    0  0.00000000000E+00  0.00000000000E+00  0.10068079656E+04  0.10068079656E+04  0.00000000000E+00 0. -1.
          1   -1    0    0  501    0 -0.00000000000E+00 -0.00000000000E+00 -0.26238790492E+03  0.26238790492E+03  0.00000000000E+00 0. -1.
         25    2    1    2    0    0  0.24101123828E+02 -0.80504226704E+02 -0.10025428688E+03  0.18093599527E+03  0.12500047064E+03 0.  0.
          2    1    1    2  501    0 -0.43157238590E+02  0.69643454554E+02 -0.10787316060E+03  0.13545987148E+03  0.00000000000E+00 0. -1.
          1    1    1    2  502    0  0.19056114761E+02  0.10860772150E+02  0.95254750820E+03  0.95280000381E+03  0.00000000000E+00 0. -1.
         22    1    3    3    0    0  0.61388169670E+02 -0.32513625236E+02 -0.97996434085E+02  0.12012054069E+03  0.00000000000E+00 0. -1.
         22    1    3    3    0    0 -0.37287045842E+02 -0.47990601468E+02 -0.22578527960E+01  0.60815454583E+02  0.00000000000E+00 0. -1.
</event>
<event>
 7    1  0.5064652E-006  0.9163010E+02  0.7818608E-02  0.1319155E+00
          2   -1    0    0  502    0  0.00000000000E+00  0.00000000000E+00  0.11080994160E+04  0.11080994160E+04  0.00000000000E+00 0. -1.
          1   -1    0    0  501    0 -0.00000000000E+00 -0.00000000000E+00 -0.20321564662E+04  0.20321564662E+04  0.00000000000E+00 0. -1.
         25    2    1    2    0    0  0.83013545583E+01  0.15917304378E+03  0.23780227802E+03  0.31237930730E+03  0.12500375132E+03 0.  0.
          2    1    1    2  501    0 -0.22884466939E+02 -0.72745476406E+02 -0.19918306497E+04  0.19932899790E+04  0.00000000000E+00 0. -1.
          1    1    1    2  502    0  0.14583112381E+02 -0.86427567372E+02  0.82997132151E+03  0.83458659592E+03  0.00000000000E+00 0. -1.
         22    1    3    3    0    0  0.81721045172E+01  0.17254182382E+03  0.24291209121E+03  0.29806668434E+03  0.00000000000E+00 0. -1.
         22    1    3    3    0    0  0.12925004108E+00 -0.13368780038E+02 -0.51098131865E+01  0.14312622962E+02  0.00000000000E+00 0. -1.
</event>
<event>
 7    1  0.5064652E-006  0.1343000E+03  0.7818608E-02  0.1233917E+00
          2   -1    0    0  502    0  0.00000000000E+00  0.00000000000E+00  0.55734117559E+03  0.55734117559E+03  0.00000000000E+00 0. -1.
          1   -1    0    0  501    0 -0.00000000000E+00 -0.00000000000E+00 -0.13243431889E+04  0.13243431889E+04  0.00000000000E+00 0. -1.
         25    2    1    2    0    0  0.99869653584E+02 -0.64822600830E+02 -0.10104982604E+03  0.20003064231E+03  0.12500109293E+03 0.  0.
          2    1    1    2  501    0 -0.85763918291E+01  0.13915236206E+03 -0.11627598496E+04  0.11710881275E+04  0.00000000000E+00 0. -1.
          1    1    1    2  502    0 -0.91293261755E+02 -0.74329761228E+02  0.49680766240E+03  0.51056559468E+03  0.00000000000E+00 0. -1.
         22    1    3    3    0    0  0.10520816673E+03 -0.42122023794E+02 -0.12353079148E+03  0.16763913528E+03  0.00000000000E+00 0. -1.
         22    1    3    3    0    0 -0.53385131432E+01 -0.22700577036E+02  0.22480965438E+02  0.32391507025E+02  0.00000000000E+00 0. -1.
</event>
<event>
 7    1  0.5064652E-006  0.9081219E+02  0.7818608E-02  0.1436170E+00
          2   -1    0    0  502    0  0.00000000000E+00  0.00000000000E+00  0.16213374086E+04  0.16213374086E+04  0.00000000000E+00 0. -1.
          1   -1    0    0  501    0 -0.00000000000E+00 -0.00000000000E+00 -0.49627977055E+03  0.49627977055E+03  0.00000000000E+00 0. -1.
         25    2    1    2    0    0  0.61396001968E+02  0.35876695372E+01 -0.22684094266E+03  0.26620628292E+03  0.12500652530E+03 0.  0.
          2    1    1    2  501    0  0.29341075867E+02  0.28600417345E+01 -0.24758940029E+03  0.24933830373E+03  0.00000000000E+00 0. -1.
          1    1    1    2  502    0 -0.90737077835E+02 -0.64477112717E+01  0.15994879810E+04  0.16020725925E+04  0.00000000000E+00 0. -1.
         22    1    3    3    0    0  0.72442829367E+02  0.22712910073E+02 -0.57001757126E+02  0.94937032428E+02  0.00000000000E+00 0. -1.
         22    1    3    3    0    0 -0.11046827400E+02 -0.19125240535E+02 -0.16983918553E+03  0.17126925049E+03  0.00000000000E+00 0. -1.
</event>
<event>
 7    1  0.5064652E-006  0.8017547E+02  0.7818608E-02  0.1364642E+00
          2   -1    0    0  502    0  0.00000000000E+00  0.00000000000E+00  0.61376425906E+03  0.61376425906E+03  0.00000000000E+00 0. -1.
          1   -1    0    0  501    0 -0.00000000000E+00 -0.00000000000E+00 -0.37681287917E+04  0.37681287917E+04  0.00000000000E+00 0. -1.
         25    2    1    2    0    0  0.17161843469E+02  0.25239260450E+02 -0.63339024200E+03  0.64632778255E+03  0.12499941878E+03 0.  0.
          2    1    1    2  501    0 -0.12683164073E+02 -0.83900156757E+02 -0.31262679341E+04  0.31274192707E+04  0.00000000000E+00 0. -1.
          1    1    1    2  502    0 -0.44786793959E+01  0.58660896307E+02  0.60529364352E+03  0.60814599745E+03  0.00000000000E+00 0. -1.
         22    1    3    3    0    0 -0.34677368274E+02  0.16280625806E+02 -0.64562988945E+02  0.75073019045E+02  0.00000000000E+00 0. -1.
         22    1    3    3    0    0  0.51839211743E+02  0.89586346440E+01 -0.56882725305E+03  0.57125476350E+03  0.00000000000E+00 0. -1.
</event>
<event>
 7    1  0.5064652E-006  0.5228163E+02  0.7818608E-02  0.1450542E+00
          2   -1    0    0  502    0  0.00000000000E+00  0.00000000000E+00  0.99348230360E+03  0.99348230360E+03  0.00000000000E+00 0. -1.
          1   -1    0    0  501    0 -0.00000000000E+00 -0.00000000000E+00 -0.93136566057E+03  0.93136566057E+03  0.00000000000E+00 0. -1.
         25    2    1    2    0    0  0.66966490450E+02 -0.95668913032E+01  0.72222717154E+02  0.15942821445E+03  0.12500079374E+03 0.  0.
          2    1    1    2  501    0 -0.43025755676E+02 -0.29730265140E+02 -0.88638848665E+03  0.88792998237E+03  0.00000000000E+00 0. -1.
          1    1    1    2  502    0 -0.23940734774E+02  0.39297156443E+02  0.87628241253E+03  0.87748976735E+03  0.00000000000E+00 0. -1.
         22    1    3    3    0    0  0.96575065995E+02 -0.35070149653E+02  0.56938179359E+02  0.11746750630E+03  0.00000000000E+00 0. -1.
         22    1    3    3    0    0 -0.29608575545E+02  0.25503258350E+02  0.15284537795E+02  0.41960708143E+02  0.00000000000E+00 0. -1.
</event>
<event>
 7    1  0.5064652E-006  0.8120844E+02  0.7818608E-02  0.1353048E+00
          2   -1    0    0  502    0  0.00000000000E+00  0.00000000000E+00  0.24725362982E+03  0.24725362982E+03  0.00000000000E+00 0. -1.
          1   -1    0    0  501    0 -0.00000000000E+00 -0.00000000000E+00 -0.36578470828E+03  0.36578470828E+03  0.00000000000E+00 0. -1.
         25    2    1    2    0    0 -0.86503388921E+02  0.57328523079E+02  0.56050659585E+00  0.16246514801E+03  0.12500085718E+03 0.  0.
          2    1    1    2  501    0  0.61042112977E+02  0.19358304497E+02 -0.27102576008E+03  0.27848850270E+03  0.00000000000E+00 0. -1.
          1    1    1    2  502    0  0.25461275944E+02 -0.76686827576E+02  0.15193417502E+03  0.17208468739E+03  0.00000000000E+00 0. -1.
         22    1    3    3    0    0 -0.24486781101E+02  0.77661075858E+02 -0.34433177589E+02  0.88410909230E+02  0.00000000000E+00 0.  1.
         22    1    3    3    0    0 -0.62016607820E+02 -0.20332552779E+02  0.34993684185E+02  0.74054238777E+02  0.00000000000E+00 0.  1.
</event>
<event>
 7    1  0.5064652E-006  0.7845044E+02  0.7818608E-02  0.1417679E+00
          2   -1    0    0  502    0  0.00000000000E+00  0.00000000000E+00  0.25018672849E+03  0.25018672849E+03  0.00000000000E+00 0. -1.
          1   -1    0    0  501    0 -0.00000000000E+00 -0.00000000000E+00 -0.30719711453E+03  0.30719711453E+03  0.00000000000E+00 0. -1.
         25    2    1    2    0    0  0.19572350444E+02  0.48058509603E+02 -0.11575467406E+03  0.17809516919E+03  0.12500418983E+03 0.  0.
          2    1    1    2  501    0 -0.47197016618E+02 -0.75990367222E+02 -0.14577340778E+03  0.17103210431E+03  0.00000000000E+00 0. -1.
          1    1    1    2  502    0  0.27624666173E+02  0.27931857619E+02  0.20451769580E+03  0.20825656952E+03  0.00000000000E+00 0. -1.
         22    1    3    3    0    0 -0.16570118243E+02 -0.37030347078E+02 -0.51275117689E+02  0.65383125632E+02  0.00000000000E+00 0. -1.
         22    1    3    3    0    0  0.36142468688E+02  0.85088856681E+02 -0.64479556372E+02  0.11271204356E+03  0.00000000000E+00 0. -1.
</event>
<event>
 7    1  0.5064652E-006  0.1056617E+03  0.7818608E-02  0.1283700E+00
          2   -1    0    0  502    0  0.00000000000E+00  0.00000000000E+00  0.25048272930E+03  0.25048272930E+03  0.00000000000E+00 0. -1.
          1   -1    0    0  501    0 -0.00000000000E+00 -0.00000000000E+00 -0.24420115767E+04  0.24420115767E+04  0.00000000000E+00 0. -1.
         25    2    1    2    0    0  0.15161888488E+02 -0.12728131160E+03 -0.54130500847E+03  0.57014664792E+03  0.12500269117E+03 0.  0.
          2    1    1    2  501    0  0.65718178511E+02  0.84208465975E+02 -0.18758160650E+04  0.18788549318E+04  0.00000000000E+00 0. -1.
          1    1    1    2  502    0 -0.80880066999E+02  0.43072845626E+02  0.22559222613E+03  0.24349272630E+03  0.00000000000E+00 0. -1.
         22    1    3    3    0    0  0.34372487699E+02 -0.65690045767E+02 -0.46200748558E+03  0.46791833342E+03  0.00000000000E+00 0.  1.
         22    1    3    3    0    0 -0.19210599211E+02 -0.61591265834E+02 -0.79297522893E+02  0.10222831450E+03  0.00000000000E+00 0.  1.
</event>
<event>
 7    1  0.5064652E-006  0.1094784E+03  0.7818608E-02  0.1353601E+00
          2   -1    0    0  502    0  0.00000000000E+00  0.00000000000E+00  0.21825859853E+04  0.21825859853E+04  0.00000000000E+00 0. -1.
          1   -1    0    0  501    0 -0.00000000000E+00 -0.00000000000E+00 -0.64986588779E+02  0.64986588779E+02  0.00000000000E+00 0. -1.
         25    2    1    2    0    0 -0.21128320356E+02  0.74520977510E+02  0.67858826296E+03  0.69433966057E+03  0.12500300635E+03 0.  0.
          2    1    1    2  501    0 -0.35850779045E+02  0.30823315756E+02 -0.44480649010E+02  0.64914430512E+02  0.00000000000E+00 0. -1.
          1    1    1    2  502    0  0.56979099401E+02 -0.10534429327E+03  0.14834917826E+04  0.14883184830E+04  0.00000000000E+00 0. -1.
         22    1    3    3    0    0  0.37194214019E+02  0.55614640264E+02  0.18066140356E+03  0.19265238255E+03  0.00000000000E+00 0.  1.
         22    1    3    3    0    0 -0.58322534374E+02  0.18906337245E+02  0.49792685940E+03  0.50168727801E+03  0.00000000000E+00 0.  1.
</event>
<event>
 7    1  0.5064652E-006  0.4703827E+02  0.7818608E-02  0.1497377E+00
          2   -1    0    0  502    0  0.00000000000E+00  0.00000000000E+00  0.40173380693E+03  0.40173380693E+03  0.00000000000E+00 0. -1.
          1   -1    0    0  501    0 -0.00000000000E+00 -0.00000000000E+00 -0.93902133060E+03  0.93902133060E+03  0.00000000000E+00 0. -1.
         25    2    1    2    0    0 -0.62401874736E+02  0.25035753397E+02 -0.49188480679E+03  0.51195329856E+03  0.12499893533E+03 0.  0.
          2    1    1    2  501    0  0.45040795654E+02  0.72224362286E+01 -0.43505066454E+03  0.43743561535E+03  0.00000000000E+00 0. -1.
          1    1    1    2  502    0  0.17361079082E+02 -0.32258189625E+02  0.38964794767E+03  0.39136622362E+03  0.00000000000E+00 0. -1.
         22    1    3    3    0    0  0.28814565372E+02  0.40159690849E+02 -0.16521160041E+03  0.17244695665E+03  0.00000000000E+00 0.  1.
         22    1    3    3    0    0 -0.91216440108E+02 -0.15123937452E+02 -0.32667320638E+03  0.33950634191E+03  0.00000000000E+00 0.  1.
</event>
<event>
 7    1  0.5064652E-006  0.3362944E+02  0.7818608E-02  0.1601524E+00
          2   -1    0    0  502    0  0.00000000000E+00  0.00000000000E+00  0.12527358510E+04  0.12527358510E+04  0.00000000000E+00 0. -1.
          1   -1    0    0  501    0 -0.00000000000E+00 -0.00000000000E+00 -0.70913675516E+02  0.70913675516E+02  0.00000000000E+00 0. -1.
         25    2    1    2    0    0  0.46496986607E+02  0.36581788207E+02  0.24817812297E+03  0.28410842900E+03  0.12500008686E+03 0.  0.
          2    1    1    2  501    0 -0.22264818609E+02 -0.13837884877E+02 -0.49405717208E+02  0.55929724641E+02  0.00000000000E+00 0. -1.
          1    1    1    2  502    0 -0.24232167998E+02 -0.22743903330E+02  0.98304976968E+03  0.98361137283E+03  0.00000000000E+00 0. -1.
         22    1    3    3    0    0  0.85980887830E+02  0.31880422260E+01  0.16694247829E+03  0.18781019073E+03  0.00000000000E+00 0. -1.
         22    1    3    3    0    0 -0.39483901223E+02  0.33393745981E+02  0.81235644681E+02  0.96298238266E+02  0.00000000000E+00 0. -1.
</event>
<event>
 7    1  0.5064652E-006  0.4697201E+02  0.7818608E-02  0.1509859E+00
          2   -1    0    0  502    0  0.00000000000E+00  0.00000000000E+00  0.23411824948E+03  0.23411824948E+03  0.00000000000E+00 0. -1.
          1   -1    0    0  501    0 -0.00000000000E+00 -0.00000000000E+00 -0.30109908473E+03  0.30109908473E+03  0.00000000000E+00 0. -1.
         25    2    1    2    0    0  0.88397377806E+01 -0.10619493059E+02  0.13135548207E+03  0.18185168210E+03  0.12499942806E+03 0.  0.
          2    1    1    2  501    0 -0.26668390824E+02  0.39198384155E+02 -0.27002624645E+03  0.27415668907E+03  0.00000000000E+00 0. -1.
          1    1    1    2  502    0  0.17828653043E+02 -0.28578891096E+02  0.71689929132E+02  0.79208963031E+02  0.00000000000E+00 0. -1.
         22    1    3    3    0    0  0.52398839651E+02 -0.32136565626E+02  0.11533868362E+03  0.13069586522E+03  0.00000000000E+00 0.  1.
         22    1    3    3    0    0 -0.43559101871E+02  0.21517072567E+02  0.16016798453E+02  0.51155816877E+02  0.00000000000E+00 0.  1.
</event>
<event>
 7    1  0.5064652E-006  0.7255428E+02  0.7818608E-02  0.1473145E+00
          2   -1    0    0  502    0  0.00000000000E+00  0.00000000000E+00  0.18751042745E+04  0.18751042745E+04  0.00000000000E+00 0. -1.
          1   -1    0    0  501    0 -0.00000000000E+00 -0.00000000000E+00 -0.11307386207E+03  0.11307386207E+03  0.00000000000E+00 0. -1.
         25    2    1    2    0    0 -0.49401672729E+02 -0.85647452791E+01  0.49961736110E+03  0.51745178830E+03  0.12499986228E+03 0.  0.
          2    1    1    2  501    0 -0.20559369541E+02 -0.19227307407E+02 -0.10119744365E+03  0.10503951460E+03  0.00000000000E+00 0. -1.
          1    1    1    2  502    0  0.69961042270E+02  0.27792052686E+02  0.13636104950E+04  0.13656868337E+04  0.00000000000E+00 0. -1.
         22    1    3    3    0    0 -0.80276519909E+02  0.29434569109E+02  0.30336128034E+03  0.31518055130E+03  0.00000000000E+00 0. -1.
         22    1    3    3    0    0  0.30874847180E+02 -0.37999314388E+02  0.19625608076E+03  0.20227123700E+03  0.00000000000E+00 0. -1.
</event>
<event>
 7    1  0.5064652E-006  0.1002673E+03  0.7818608E-02  0.1316707E+00
          2   -1    0    0  502    0  0.00000000000E+00  0.00000000000E+00  0.35417993554E+03  0.35417993554E+03  0.00000000000E+00 0. -1.
          1   -1    0    0  501    0 -0.00000000000E+00 -0.00000000000E+00 -0.63348454193E+03  0.63348454193E+03  0.00000000000E+00 0. -1.
         25    2    1    2    0    0  0.17688517666E+02  0.16340319047E+03 -0.24599175695E+03  0.32117506248E+03  0.12501195926E+03 0.  0.
          2    1    1    2  501    0 -0.28317258833E+02 -0.65366384835E+02 -0.33842313359E+03  0.34583933953E+03  0.00000000000E+00 0. -1.
          1    1    1    2  502    0  0.10628741167E+02 -0.98036805632E+02  0.30511028416E+03  0.32065007546E+03  0.00000000000E+00 0. -1.
         22    1    3    3    0    0 -0.39757021102E+02  0.63605552802E+02 -0.16239078057E+03  0.17887720002E+03  0.00000000000E+00 0.  1.
         22    1    3    3    0    0  0.57445538768E+02  0.99797637665E+02 -0.83600976383E+02  0.14229786246E+03  0.00000000000E+00 0.  1.
</event>
<event>
 7    1  0.5064652E-006  0.1472663E+03  0.7818608E-02  0.1295923E+00
          2   -1    0    0  502    0  0.00000000000E+00  0.00000000000E+00  0.26184506724E+04  0.26184506724E+04  0.00000000000E+00 0. -1.
          1   -1    0    0  501    0 -0.00000000000E+00 -0.00000000000E+00 -0.57029660470E+03  0.57029660470E+03  0.00000000000E+00 0. -1.
         25    2    1    2    0    0  0.66871446985E+02 -0.19361509637E+03  0.56653716774E+03  0.61526266295E+03  0.12500074414E+03 0.  0.
          2    1    1    2  501    0 -0.44931833307E+02  0.13924109344E+03 -0.53569734060E+03  0.55531846041E+03  0.00000000000E+00 0. -1.
          1    1    1    2  502    0 -0.21939613678E+02  0.54374002930E+02  0.20173142406E+04  0.20181661538E+04  0.00000000000E+00 0. -1.
         22    1    3    3    0    0  0.30848851516E+02  0.84117040434E+01  0.48840245413E+02  0.58376176449E+02  0.00000000000E+00 0.  1.
         22    1    3    3    0    0  0.36022595469E+02 -0.20202680041E+03  0.51769692232E+03  0.55688648650E+03  0.00000000000E+00 0.  1.
</event>
<event>
 7    1  0.5064652E-006  0.5998868E+02  0.7818608E-02  0.1454712E+00
          2   -1    0    0  502    0  0.00000000000E+00  0.00000000000E+00  0.25530363278E+03  0.25530363278E+03  0.00000000000E+00 0. -1.
          1   -1    0    0  501    0 -0.00000000000E+00 -0.00000000000E+00 -0.14911049578E+04  0.14911049578E+04  0.00000000000E+00 0. -1.
         25    2    1    2    0    0 -0.21576786248E+02  0.60838036817E+02 -0.62398669333E+02  0.15389083520E+03  0.12498788260E+03 0.  0.
          2    1    1    2  501    0  0.49628245672E+02 -0.33895054518E+02 -0.13804960186E+04  0.13818035659E+04  0.00000000000E+00 0. -1.
          1    1    1    2  502    0 -0.28051459423E+02 -0.26942982299E+02  0.20709336291E+03  0.21071418944E+03  0.00000000000E+00 0. -1.
         22    1    3    3    0    0 -0.16947863345E+02  0.11166215511E+02  0.37268019250E+02  0.42436066025E+02  0.00000000000E+00 0.  1.
         22    1    3    3    0    0 -0.46289229035E+01  0.49671821305E+02 -0.99666688583E+02  0.11145476918E+03  0.00000000000E+00 0.  1.
</event>
<event>
 7    1  0.5064652E-006  0.1056428E+03  0.7818608E-02  0.1294426E+00
          2   -1    0    0  502    0  0.00000000000E+00  0.00000000000E+00  0.74059618819E+03  0.74059618819E+03  0.00000000000E+00 0. -1.
          1   -1    0    0  501    0 -0.00000000000E+00 -0.00000000000E+00 -0.27456222924E+03  0.27456222924E+03  0.00000000000E+00 0. -1.
         25    2    1    2    0    0  0.23009136751E+02 -0.42958564104E+02 -0.22203234413E+02  0.13598410722E+03  0.12499534069E+03 0.  0.
          2    1    1    2  501    0 -0.21136179376E+02  0.12581681338E+03 -0.17177976356E+03  0.21397405398E+03  0.00000000000E+00 0. -1.
          1    1    1    2  502    0 -0.18729573746E+01 -0.82858249275E+02  0.66001695693E+03  0.66520025622E+03  0.00000000000E+00 0. -1.
         22    1    3    3    0    0  0.18643102066E+02 -0.79085300976E+02 -0.45158826931E+02  0.92958968017E+02  0.00000000000E+00 0. -1.
         22    1    3    3    0    0  0.43660346851E+01  0.36126736872E+02  0.22955592518E+02  0.43025139207E+02  0.00000000000E+00 0. -1.
</event>
<event>
 7    1  0.5064652E-006  0.3856348E+02  0.7818608E-02  0.1539622E+00
          2   -1    0    0  502    0  0.00000000000E+00  0.00000000000E+00  0.10017840673E+04  0.10017840673E+04  0.00000000000E+00 0. -1.
          1   -1    0    0  501    0 -0.00000000000E+00 -0.00000000000E+00 -0.40907075464E+03  0.40907075464E+03  0.00000000000E+00 0. -1.
         25    2    1    2    0    0 -0.58720266082E+02 -0.12517971978E+02  0.32908208935E+03  0.35710665476E+03  0.12500148827E+03 0.  0.
          2    1    1    2  501    0  0.22731781664E+02  0.24833820407E+02 -0.39379046425E+03  0.39522700093E+03  0.00000000000E+00 0. -1.
          1    1    1    2  502    0  0.35988484418E+02 -0.12315848429E+02  0.65742168759E+03  0.65852116628E+03  0.00000000000E+00 0. -1.
         22    1    3    3    0    0 -0.53663873474E+01  0.52967129729E+02  0.14824090028E+03  0.15751088680E+03  0.00000000000E+00 0.  1.
         22    1    3    3    0    0 -0.53353878734E+02 -0.65485101706E+02  0.18084118907E+03  0.19959576796E+03  0.00000000000E+00 0.  1.
</event>
<event>
 7    1  0.5064652E-006  0.9734500E+02  0.7818608E-02  0.1431272E+00
          2   -1    0    0  502    0  0.00000000000E+00  0.00000000000E+00  0.25423451695E+03  0.25423451695E+03  0.00000000000E+00 0. -1.
          1   -1    0    0  501    0 -0.00000000000E+00 -0.00000000000E+00 -0.17482161787E+03  0.17482161787E+03  0.00000000000E+00 0. -1.
         25    2    1    2    0    0 -0.10867063427E+03  0.37995992927E+02  0.20258164189E+02  0.17114050022E+03  0.12500270144E+03 0.  0.
          2    1    1    2  501    0  0.27019346917E+02  0.91801814513E+01 -0.82751719746E+02  0.87533810384E+02  0.00000000000E+00 0. -1.
          1    1    1    2  502    0  0.81651287356E+02 -0.47176174378E+02  0.14190645464E+03  0.17038182422E+03  0.00000000000E+00 0. -1.
         22    1    3    3    0    0 -0.20694591887E+02  0.54185907988E+02 -0.33296948485E+02  0.66880980378E+02  0.00000000000E+00 0.  1.
         22    1    3    3    0    0 -0.87976042386E+02 -0.16189915061E+02  0.53555112674E+02  0.10425951984E+03  0.00000000000E+00 0.  1.
</event>
<event>
 7    1  0.5064652E-006  0.1148037E+03  0.7818608E-02  0.1396621E+00
          2   -1    0    0  502    0  0.00000000000E+00  0.00000000000E+00  0.96855299004E+03  0.96855299004E+03  0.00000000000E+00 0. -1.
          1   -1    0    0  501    0 -0.00000000000E+00 -0.00000000000E+00 -0.57930237848E+02  0.57930237848E+02  0.00000000000E+00 0. -1.
         25    2    1    2    0    0 -0.99177803374E+02 -0.45086805464E+02  0.52319657491E+03  0.54884307199E+03  0.12500001983E+03 0.  0.
          2    1    1    2  501    0 -0.19336574168E+02  0.25070522093E+02 -0.29779999765E+02  0.43465878165E+02  0.00000000000E+00 0. -1.
          1    1    1    2  502    0  0.11851437754E+03  0.20016283371E+02  0.41720617705E+03  0.43417427774E+03  0.00000000000E+00 0. -1.
         22    1    3    3    0    0 -0.70882103730E+02 -0.83698379312E+02  0.43364065354E+03  0.44729621922E+03  0.00000000000E+00 0.  1.
         22    1    3    3    0    0 -0.28295699644E+02  0.38611573848E+02  0.89555921374E+02  0.10154685276E+03  0.00000000000E+00 0.  1.
</event>
<event>
 7    1  0.5064652E-006  0.8728761E+02  0.7818608E-02  0.1361862E+00
          2   -1    0    0  502    0  0.00000000000E+00  0.00000000000E+00  0.64467256761E+02  0.64467256761E+02  0.00000000000E+00 0. -1.
          1   -1    0    0  501    0 -0.00000000000E+00 -0.00000000000E+00 -0.92195016083E+03  0.92195016083E+03  0.00000000000E+00 0. -1.
         25    2    1    2    0    0  0.54626259339E+02 -0.79173415758E+01 -0.26249147321E+03  0.29592653454E+03  0.12499611125E+03 0.  0.
          2    1    1    2  501    0  0.17454250031E+02 -0.52482959227E+02 -0.59387276922E+03  0.59644276999E+03  0.00000000000E+00 0. -1.
          1    1    1    2  502    0 -0.72080509370E+02  0.60400300802E+02 -0.11186616468E+01  0.94048113070E+02  0.00000000000E+00 0. -1.
         22    1    3    3    0    0  0.82984319922E+02  0.30871018753E+02 -0.17399685900E+03  0.19522890179E+03  0.00000000000E+00 0. -1.
         22    1    3    3    0    0 -0.28358060583E+02 -0.38788360329E+02 -0.88494614213E+02  0.10069763275E+03  0.00000000000E+00 0. -1.
</event>
<event>
 7    1  0.5064652E-006  0.5423150E+02  0.7818608E-02  0.1431128E+00
          2   -1    0    0  502    0  0.00000000000E+00  0.00000000000E+00  0.27939153003E+04  0.27939153003E+04  0.00000000000E+00 0. -1.
          1   -1    0    0  501    0 -0.00000000000E+00 -0.00000000000E+00 -0.10199295086E+04  0.10199295086E+04  0.00000000000E+00 0. -1.
         25    2    1    2    0    0 -0.39663537547E+02  0.17228552889E+02  0.17032226448E+03  0.21565335733E+03  0.12500670984E+03 0.  0.
          2    1    1    2  501    0 -0.31713217490E+01 -0.51180118423E+02 -0.99631737004E+03  0.99763608779E+03  0.00000000000E+00 0. -1.
          1    1    1    2  502    0  0.42834859296E+02  0.33951565534E+02  0.25999808972E+04  0.26005553637E+04  0.00000000000E+00 0. -1.
         22    1    3    3    0    0 -0.22227112519E+02  0.25101706773E+02  0.18717710617E+03  0.19015627596E+03  0.00000000000E+00 0. -1.
         22    1    3    3    0    0 -0.17436425028E+02 -0.78731538845E+01 -0.16854841690E+02  0.25497081368E+02  0.00000000000E+00 0. -1.
</event>
<event>
 7    1  0.5064652E-006  0.1765463E+03  0.7818608E-02  0.1196461E+00
          2   -1    0    0  502    0  0.00000000000E+00  0.00000000000E+00  0.99944625651E+03  0.99944625651E+03  0.00000000000E+00 0. -1.
          1   -1    0    0  501    0 -0.00000000000E+00 -0.00000000000E+00 -0.93805164366E+03  0.93805164366E+03  0.00000000000E+00 0. -1.
         25    2    1    2    0    0  0.21057547215E+03 -0.17424035389E+02  0.28927091591E+03  0.37940500762E+03  0.12499948213E+03 0.  0.
          2    1    1    2  501    0 -0.14637581545E+03 -0.99210785464E+02 -0.87741182784E+03  0.89505316878E+03  0.00000000000E+00 0. -1.
          1    1    1    2  502    0 -0.64199656702E+02  0.11663482085E+03  0.64953552478E+03  0.66303972378E+03  0.00000000000E+00 0. -1.
         22    1    3    3    0    0  0.21432672409E+03  0.33724550121E+01  0.22074254211E+03  0.30769235936E+03  0.00000000000E+00 0.  1.
         22    1    3    3    0    0 -0.37512519399E+01 -0.20796490401E+02  0.68528373803E+02  0.71712648258E+02  0.00000000000E+00 0.  1.
</event>
<event>
 7    1  0.5064652E-006  0.1491198E+03  0.7818608E-02  0.1216253E+00
          2   -1    0    0  502    0  0.00000000000E+00  0.00000000000E+00  0.35531888663E+03  0.35531888663E+03  0.00000000000E+00 0. -1.
          1   -1    0    0  501    0 -0.00000000000E+00 -0.00000000000E+00 -0.66674867081E+03  0.66674867081E+03  0.00000000000E+00 0. -1.
         25    2    1    2    0    0 -0.83038253319E+01 -0.53148316294E+01 -0.50620746311E+02  0.13526209417E+03  0.12504468485E+03 0.  0.
          2    1    1    2  501    0 -0.12119352834E+03  0.86884050361E+02 -0.54445355150E+03  0.56450542890E+03  0.00000000000E+00 0. -1.
          1    1    1    2  502    0  0.12949735367E+03 -0.81569218732E+02  0.28364451363E+03  0.32230003438E+03  0.00000000000E+00 0. -1.
         22    1    3    3    0    0 -0.54642091509E+02  0.31993418370E+02 -0.12315307400E+02  0.64505842989E+02  0.00000000000E+00 0.  1.
         22    1    3    3    0    0  0.46338266177E+02 -0.37308249999E+02 -0.38305438911E+02  0.70756251176E+02  0.00000000000E+00 0.  1.
</event>
<event>
 7    1  0.5064652E-006  0.6030394E+02  0.7818608E-02  0.1405887E+00
          2   -1    0    0  502    0  0.00000000000E+00  0.00000000000E+00  0.93659462549E+03  0.93659462549E+03  0.00000000000E+00 0. -1.
          1   -1    0    0  501    0 -0.00000000000E+00 -0.00000000000E+00 -0.14646263752E+03  0.14646263752E+03  0.00000000000E+00 0. -1.
         25    2    1    2    0    0  0.87306569949E+02 -0.16332080184E+01  0.28240861337E+03  0.32094591266E+03  0.12500619754E+03 0.  0.
          2    1    1    2  501    0 -0.40538449069E+02  0.38661421006E+02 -0.11954170846E+03  0.13201625426E+03  0.00000000000E+00 0. -1.
          1    1    1    2  502    0 -0.46768120881E+02 -0.37028212988E+02  0.62726508306E+03  0.63009509609E+03  0.00000000000E+00 0. -1.
         22    1    3    3    0    0 -0.18289215478E+02 -0.23013972987E+02  0.15760808706E+02  0.33354781464E+02  0.00000000000E+00 0.  1.
         22    1    3    3    0    0  0.10559578543E+03  0.21380764969E+02  0.26664780467E+03  0.28759113120E+03  0.00000000000E+00 0.  1.
</event>
<event>
 7    1  0.5064652E-006  0.2412316E+03  0.7818608E-02  0.1267969E+00
          2   -1    0    0  502    0  0.00000000000E+00  0.00000000000E+00  0.21504038440E+03  0.21504038440E+03  0.00000000000E+00 0. -1.
          1   -1    0    0  501    0 -0.00000000000E+00 -0.00000000000E+00 -0.10883229153E+04  0.10883229153E+04  0.00000000000E+00 0. -1.
         25    2    1    2    0    0 -0.31004314687E+02 -0.21726363991E+03 -0.11560906973E+03  0.27776686553E+03  0.12499687126E+03 0.  0.
          2    1    1    2  501    0  0.26823459993E+02 -0.38185266850E+02 -0.76846975510E+03  0.76988530128E+03  0.00000000000E+00 0. -1.
          1    1    1    2  502    0  0.41808546935E+01  0.25544890676E+03  0.10796293957E+02  0.25571113287E+03  0.00000000000E+00 0. -1.
         22    1    3    3    0    0  0.61172116071E+01  0.14614032966E+02 -0.16513417712E+02  0.22884125544E+02  0.00000000000E+00 0. -1.
         22    1    3    3    0    0 -0.37121526294E+02 -0.23187767288E+03 -0.99095652017E+02  0.25488273999E+03  0.00000000000E+00 0. -1.
</event>
<event>
 7    1  0.5064652E-006  0.1684082E+03  0.7818608E-02  0.1274859E+00
          2   -1    0    0  502    0  0.00000000000E+00  0.00000000000E+00  0.18599082297E+04  0.18599082297E+04  0.00000000000E+00 0. -1.
          1   -1    0    0  501    0 -0.00000000000E+00 -0.00000000000E+00 -0.26418871294E+03  0.26418871294E+03  0.00000000000E+00 0. -1.
         25    2    1    2    0    0 -0.17112287528E+03 -0.14661500542E+03  0.51921450925E+03  0.57964534359E+03  0.12500407782E+03 0.  0.
          2    1    1    2  501    0  0.11510143934E+03  0.11880408470E+03 -0.20387720062E+03  0.26254269141E+03  0.00000000000E+00 0. -1.
          1    1    1    2  502    0  0.56021435940E+02  0.27810920721E+02  0.12803822081E+04  0.12819089076E+04  0.00000000000E+00 0. -1.
         22    1    3    3    0    0 -0.73818903078E+02 -0.29722883477E+02  0.31571963683E+03  0.32559417890E+03  0.00000000000E+00 0.  1.
         22    1    3    3    0    0 -0.97303972202E+02 -0.11689212195E+03  0.20349487241E+03  0.25405116468E+03  0.00000000000E+00 0.  1.
</event>
<event>
 7    1  0.5064652E-006  0.4324637E+02  0.7818608E-02  0.1486882E+00
          2   -1    0    0  502    0  0.00000000000E+00  0.00000000000E+00  0.38201011963E+03  0.38201011963E+03  0.00000000000E+00 0. -1.
          1   -1    0    0  501    0 -0.00000000000E+00 -0.00000000000E+00 -0.27495636063E+03  0.27495636063E+03  0.00000000000E+00 0. -1.
         25    2    1    2    0    0 -0.64588240113E+02  0.10895031498E+02  0.69809153113E+02  0.15742953955E+03  0.12498159701E+03 0.  0.
          2    1    1    2  501    0  0.27627214709E+02 -0.32765747487E+02 -0.22741352452E+03  0.23141687133E+03  0.00000000000E+00 0. -1.
          1    1    1    2  502    0  0.36961025404E+02  0.21870715989E+02  0.26465813040E+03  0.26812006938E+03  0.00000000000E+00 0. -1.
         22    1    3    3    0    0  0.30847772013E+02 -0.67789536297E+01  0.48790480156E+02  0.58120996244E+02  0.00000000000E+00 0. -1.
         22    1    3    3    0    0 -0.95436012126E+02  0.17673985128E+02  0.21018672957E+02  0.99308543306E+02  0.00000000000E+00 0. -1.
</event>
<event>
 7    1  0.5064652E-006  0.7808739E+02  0.7818608E-02  0.1363769E+00
          2   -1    0    0  502    0  0.00000000000E+00  0.00000000000E+00  0.71796991478E+03  0.71796991478E+03  0.00000000000E+00 0. -1.
          1   -1    0    0  501    0 -0.00000000000E+00 -0.00000000000E+00 -0.60524839826E+03  0.60524839826E+03  0.00000000000E+00 0. -1.
         25    2    1    2    0    0 -0.94640440758E+02 -0.93747486666E+02  0.31052291170E+03  0.36027022223E+03  0.12499900020E+03 0.  0.
          2    1    1    2  501    0  0.66818522797E+02  0.39633996767E+02 -0.57532794339E+03  0.58054957681E+03  0.00000000000E+00 0. -1.
          1    1    1    2  502    0  0.27821917961E+02  0.54113489899E+02  0.37752654821E+03  0.38239851400E+03  0.00000000000E+00 0. -1.
         22    1    3    3    0    0 -0.26668917445E+02 -0.10440338694E+03  0.23242473947E+03  0.25618852019E+03  0.00000000000E+00 0.  1.
         22    1    3    3    0    0 -0.67971523313E+02  0.10655900278E+02  0.78098172233E+02  0.10408170203E+03  0.00000000000E+00 0.  1.
</event>
<event>
 7    1  0.5161318E-006  0.2472862E+03  0.7818608E-02  0.1139663E+00
          2   -1    0    0  502    0  0.00000000000E+00  0.00000000000E+00  0.26049709817E+04  0.26049709817E+04  0.00000000000E+00 0. -1.
          1   -1    0    0  501    0 -0.00000000000E+00 -0.00000000000E+00 -0.15393292455E+04  0.15393292455E+04  0.00000000000E+00 0. -1.
         25    2    1    2    0    0  0.71288803273E+02 -0.23442135287E+02 -0.76566431999E+02  0.16467379299E+03  0.12499364947E+03 0.  0.
          2    1    1    2  501    0  0.15910345647E+03 -0.89343295541E+02 -0.14063766453E+04  0.14181648010E+04  0.00000000000E+00 0. -1.
          1    1    1    2  502    0 -0.23039225974E+03  0.11278543083E+03  0.25485848135E+04  0.25614616332E+04  0.00000000000E+00 0. -1.
         22    1    3    3    0    0  0.20723337464E+02  0.15785551214E+02  0.30393393386E+02  0.40029972574E+02  0.00000000000E+00 0. -1.
         22    1    3    3    0    0  0.50565465809E+02 -0.39227686501E+02 -0.10695982538E+03  0.12464382041E+03  0.00000000000E+00 0. -1.
</event>
<event>
 7    1  0.5064652E-006  0.5039114E+02  0.7818608E-02  0.1462577E+00
          2   -1    0    0  502    0  0.00000000000E+00  0.00000000000E+00  0.32215395686E+04  0.32215395686E+04  0.00000000000E+00 0. -1.
          1   -1    0    0  501    0 -0.00000000000E+00 -0.00000000000E+00 -0.34028589936E+03  0.34028589936E+03  0.00000000000E+00 0. -1.
         25    2    1    2    0    0  0.17880710237E+01  0.39842877908E+02  0.10684944908E+03  0.16921027783E+03  0.12499864494E+03 0.  0.
          2    1    1    2  501    0  0.41520027115E+02 -0.13715683699E+02 -0.30735050640E+03  0.31044543226E+03  0.00000000000E+00 0. -1.
          1    1    1    2  502    0 -0.43308098138E+02 -0.26127194209E+02  0.30817547266E+04  0.30821697579E+04  0.00000000000E+00 0. -1.
         22    1    3    3    0    0 -0.50043286722E+02 -0.17922584446E+02  0.50310912234E+02  0.73189736090E+02  0.00000000000E+00 0.  1.
         22    1    3    3    0    0  0.51831357746E+02  0.57765462354E+02  0.56538536848E+02  0.96020541738E+02  0.00000000000E+00 0.  1.
</event>
<event>
 7    1  0.5064652E-006  0.1488289E+03  0.7818608E-02  0.1405805E+00
          2   -1    0    0  502    0  0.00000000000E+00  0.00000000000E+00  0.75557323994E+03  0.75557323994E+03  0.00000000000E+00 0. -1.
          1   -1    0    0  501    0 -0.00000000000E+00 -0.00000000000E+00 -0.31745101804E+03  0.31745101804E+03  0.00000000000E+00 0. -1.
         25    2    1    2    0    0 -0.14086937290E+03 -0.13692338907E+02  0.90472396317E+02  0.20938513404E+03  0.12500087798E+03 0.  0.
          2    1    1    2  501    0 -0.91354436575E+01  0.20794657128E+02 -0.24815900812E+03  0.24919624276E+03  0.00000000000E+00 0. -1.
          1    1    1    2  502    0  0.15000481656E+03 -0.71023182203E+01  0.59580883371E+03  0.61444288118E+03  0.00000000000E+00 0. -1.
         22    1    3    3    0    0 -0.11017280515E+03 -0.70621152468E+01  0.12224103850E+03  0.16471427370E+03  0.00000000000E+00 0.  1.
         22    1    3    3    0    0 -0.30696567747E+02 -0.66302236604E+01 -0.31768642184E+02  0.44670860340E+02  0.00000000000E+00 0.  1.
</event>
<event>
 7    1  0.5064652E-006  0.1165795E+03  0.7818608E-02  0.1402012E+00
          2   -1    0    0  502    0  0.00000000000E+00  0.00000000000E+00  0.10686310078E+04  0.10686310078E+04  0.00000000000E+00 0. -1.
          1   -1    0    0  501    0 -0.00000000000E+00 -0.00000000000E+00 -0.43144971064E+03  0.43144971064E+03  0.00000000000E+00 0. -1.
         25    2    1    2    0    0  0.10376897332E+03 -0.72004755349E+02  0.18835486808E+02  0.17869449348E+03  0.12499704724E+03 0.  0.
          2    1    1    2  501    0 -0.26092907599E+02 -0.14548384036E+02 -0.34739048832E+03  0.34867269277E+03  0.00000000000E+00 0. -1.
          1    1    1    2  502    0 -0.77676065719E+02  0.86553139385E+02  0.96573629869E+03  0.97271353220E+03  0.00000000000E+00 0. -1.
         22    1    3    3    0    0  0.45795829198E+02 -0.51345802420E+02 -0.50975996081E+02  0.85628275555E+02  0.00000000000E+00 0. -1.
         22    1    3    3    0    0  0.57973144120E+02 -0.20658952929E+02  0.69811482889E+02  0.93066217923E+02  0.00000000000E+00 0. -1.
</event>
<event>
 7    1  0.5064652E-006  0.9995658E+02  0.7818608E-02  0.1466247E+00
          2   -1    0    0  502    0  0.00000000000E+00  0.00000000000E+00  0.21006163339E+04  0.21006163339E+04  0.00000000000E+00 0. -1.
          1   -1    0    0  501    0 -0.00000000000E+00 -0.00000000000E+00 -0.14201949596E+03  0.14201949596E+03  0.00000000000E+00 0. -1.
         25    2    1    2    0    0 -0.20535727628E+02 -0.77197063343E+02  0.53755299590E+02  0.15778497178E+03  0.12500144954E+03 0.  0.
          2    1    1    2  501    0  0.14347289235E+01 -0.21419564031E+02 -0.87440974184E+02  0.90037659546E+02  0.00000000000E+00 0. -1.
          1    1    1    2  502    0  0.19100998705E+02  0.98616627374E+02  0.19922825125E+04  0.19948131985E+04  0.00000000000E+00 0. -1.
         22    1    3    3    0    0 -0.61548630920E+02 -0.22706647236E+02  0.60513429880E+02  0.89250775866E+02  0.00000000000E+00 0. -1.
         22    1    3    3    0    0  0.41012903292E+02 -0.54490416107E+02 -0.67581302908E+01  0.68534195909E+02  0.00000000000E+00 0. -1.
</event>
<event>
 7    1  0.5064652E-006  0.3896341E+02  0.7818608E-02  0.1532049E+00
          2   -1    0    0  502    0  0.00000000000E+00  0.00000000000E+00  0.59972305125E+02  0.59972305125E+02  0.00000000000E+00 0. -1.
          1   -1    0    0  501    0 -0.00000000000E+00 -0.00000000000E+00 -0.47808375936E+03  0.47808375936E+03  0.00000000000E+00 0. -1.
         25    2    1    2    0    0 -0.73007379499E+02  0.27417179616E+01 -0.34414019872E+03  0.37335687042E+03  0.12500112736E+03 0.  0.
          2    1    1    2  501    0  0.35007942810E+02  0.68610994196E+00 -0.10802532278E+03  0.11355834258E+03  0.00000000000E+00 0. -1.
          1    1    1    2  502    0  0.37999436689E+02 -0.34278279035E+01  0.34054067267E+02  0.51140851481E+02  0.00000000000E+00 0. -1.
         22    1    3    3    0    0 -0.21727530119E+02 -0.52828760581E+02 -0.22586437278E+03  0.23297570346E+03  0.00000000000E+00 0. -1.
         22    1    3    3    0    0 -0.51279849380E+02  0.55570478542E+02 -0.11827582593E+03  0.14038116696E+03  0.00000000000E+00 0. -1.
</event>
<event>
 7    1  0.5064652E-006  0.1997082E+03  0.7818608E-02  0.1208541E+00
          2   -1    0    0  502    0  0.00000000000E+00  0.00000000000E+00  0.20632056662E+04  0.20632056662E+04  0.00000000000E+00 0. -1.
          1   -1    0    0  501    0 -0.00000000000E+00 -0.00000000000E+00 -0.33517970656E+04  0.33517970656E+04  0.00000000000E+00 0. -1.
         25    2    1    2    0    0 -0.72292163408E+02 -0.24163927185E+03 -0.18342586011E+03  0.33598490634E+03  0.12500046615E+03 0.  0.
          2    1    1    2  501    0 -0.54196006616E+02  0.87921090973E+02 -0.30862394904E+04  0.30879672144E+04  0.00000000000E+00 0. -1.
          1    1    1    2  502    0  0.12648817002E+03  0.15371818088E+03  0.19810739511E+04  0.19910506111E+04  0.00000000000E+00 0. -1.
         22    1    3    3    0    0  0.20429406354E+02 -0.31047277111E+00 -0.28337305937E+01  0.20627337840E+02  0.00000000000E+00 0.  1.
         22    1    3    3    0    0 -0.92721569762E+02 -0.24132879908E+03 -0.18059212952E+03  0.31535756850E+03  0.00000000000E+00 0.  1.
</event>
<event>
 7    1  0.5064652E-006  0.6306506E+02  0.7818608E-02  0.1524977E+00
          2   -1    0    0  502    0  0.00000000000E+00  0.00000000000E+00  0.75500033910E+03  0.75500033910E+03  0.00000000000E+00 0. -1.
          1   -1    0    0  501    0 -0.00000000000E+00 -0.00000000000E+00 -0.15940326162E+04  0.15940326162E+04  0.00000000000E+00 0. -1.
         25    2    1    2    0    0 -0.33853098318E+02  0.69564398128E+02  0.21891480412E+03  0.26369175058E+03  0.12499764042E+03 0.  0.
          2    1    1    2  501    0  0.20846273198E+02 -0.89040822519E+01 -0.15696888959E+04  0.15698525662E+04  0.00000000000E+00 0. -1.
          1    1    1    2  502    0  0.13006825120E+02 -0.60660315876E+02  0.51174181473E+03  0.51548863844E+03  0.00000000000E+00 0. -1.
         22    1    3    3    0    0  0.47562445031E+02  0.26284659159E+02  0.71328398103E+02  0.89670562953E+02  0.00000000000E+00 0.  1.
         22    1    3    3    0    0 -0.81415543349E+02  0.43279738969E+02  0.14758640601E+03  0.17402118763E+03  0.00000000000E+00 0.  1.
</event>
<event>
 7    1  0.5064652E-006  0.5000635E+02  0.7818608E-02  0.1451351E+00
          2   -1    0    0  502    0  0.00000000000E+00  0.00000000000E+00  0.12145295927E+02  0.12145295927E+02  0.00000000000E+00 0. -1.
          1   -1    0    0  501    0 -0.00000000000E+00 -0.00000000000E+00 -0.12118131334E+04  0.12118131334E+04  0.00000000000E+00 0. -1.
         25    2    1    2    0    0 -0.42856343576E+02  0.20829781441E+02 -0.54605586046E+03  0.56220323392E+03  0.12499971002E+03 0.  0.
          2    1    1    2  501    0  0.43501495678E+02  0.29172411091E+02 -0.38256478281E+03  0.38613368506E+03  0.00000000000E+00 0. -1.
          1    1    1    2  502    0 -0.64515210150E+00 -0.50002192532E+02 -0.27104719419E+03  0.27562151033E+03  0.00000000000E+00 0. -1.
         22    1    3    3    0    0  0.78142990399E+01  0.63070143103E+02 -0.19794356457E+03  0.20789555304E+03  0.00000000000E+00 0.  1.
         22    1    3    3    0    0 -0.50670642616E+02 -0.42240361662E+02 -0.34811229589E+03  0.35430768088E+03  0.00000000000E+00 0.  1.
</event>
<event>
 7    1  0.5064652E-006  0.8098318E+02  0.7818608E-02  0.1462609E+00
          2   -1    0    0  502    0  0.00000000000E+00  0.00000000000E+00  0.75446325573E+03  0.75446325573E+03  0.00000000000E+00 0. -1.
          1   -1    0    0  501    0 -0.00000000000E+00 -0.00000000000E+00 -0.54723126996E+03  0.54723126996E+03  0.00000000000E+00 0. -1.
         25    2    1    2    0    0 -0.45256471561E+02  0.75667567847E+02 -0.93800033236E+02  0.17942740674E+03  0.12498807548E+03 0.  0.
          2    1    1    2  501    0 -0.15583686849E+02 -0.22295945129E+02 -0.40786201551E+03  0.40876813007E+03  0.00000000000E+00 0. -1.
          1    1    1    2  502    0  0.60840158410E+02 -0.53371622718E+02  0.70889403451E+03  0.71349898889E+03  0.00000000000E+00 0. -1.
         22    1    3    3    0    0 -0.88630465813E+02  0.51276790957E+02 -0.71560475071E+02  0.12492225724E+03  0.00000000000E+00 0. -1.
         22    1    3    3    0    0  0.43373994252E+02  0.24390776890E+02 -0.22239558165E+02  0.54505149500E+02  0.00000000000E+00 0. -1.
</event>
<event>
 7    1  0.5064652E-006  0.1161224E+03  0.7818608E-02  0.1276525E+00
          2   -1    0    0  502    0  0.00000000000E+00  0.00000000000E+00  0.30460762145E+03  0.30460762145E+03  0.00000000000E+00 0. -1.
          1   -1    0    0  501    0 -0.00000000000E+00 -0.00000000000E+00 -0.20809795251E+04  0.20809795251E+04  0.00000000000E+00 0. -1.
         25    2    1    2    0    0 -0.16021907379E+03  0.56685077478E+02 -0.88633087777E+03  0.91109310201E+03  0.12499946415E+03 0.  0.
          2    1    1    2  501    0  0.73828653465E+02 -0.79177065201E+02 -0.11728985095E+04  0.11778839464E+04  0.00000000000E+00 0. -1.
          1    1    1    2  502    0  0.86390420330E+02  0.22491987723E+02  0.28285748363E+03  0.29661009808E+03  0.00000000000E+00 0. -1.
         22    1    3    3    0    0  0.87322629004E+01 -0.46923939296E+01 -0.40860727461E+01  0.10722264996E+02  0.00000000000E+00 0.  1.
         22    1    3    3    0    0 -0.16895133669E+03  0.61377471408E+02 -0.88224480502E+03  0.90037083702E+03  0.00000000000E+00 0.  1.
</event>
<event>
 7    1  0.5064652E-006  0.6576245E+02  0.7818608E-02  0.1412627E+00
          2   -1    0    0  502    0  0.00000000000E+00  0.00000000000E+00  0.42912299321E+03  0.42912299321E+03  0.00000000000E+00 0. -1.
          1   -1    0    0  501    0 -0.00000000000E+00 -0.00000000000E+00 -0.15321630850E+04  0.15321630850E+04  0.00000000000E+00 0. -1.
         25    2    1    2    0    0  0.10922015376E+02  0.38398212206E+02  0.40779535347E+02  0.13740894855E+03  0.12499814206E+03 0.  0.
          2    1    1    2  501    0 -0.58914811465E+02 -0.29929887373E+02 -0.14813618134E+04  0.14828349791E+04  0.00000000000E+00 0. -1.
          1    1    1    2  502    0  0.47992796089E+02 -0.84683248323E+01  0.33754218620E+03  0.34104215058E+03  0.00000000000E+00 0. -1.
         22    1    3    3    0    0 -0.15590198416E+02  0.76992007362E+02  0.44769464432E+02  0.90416416816E+02  0.00000000000E+00 0. -1.
         22    1    3    3    0    0  0.26512213792E+02 -0.38593795157E+02 -0.39899290855E+01  0.46992531735E+02  0.00000000000E+00 0. -1.
</event>
<event>
 7    1  0.5064652E-006  0.9551840E+02  0.7818608E-02  0.1446346E+00
          2   -1    0    0  502    0  0.00000000000E+00  0.00000000000E+00  0.10213621657E+04  0.10213621657E+04  0.00000000000E+00 0. -1.
          1   -1    0    0  501    0 -0.00000000000E+00 -0.00000000000E+00 -0.16038670569E+04  0.16038670569E+04  0.00000000000E+00 0. -1.
         25    2    1    2    0    0  0.70027478301E+02 -0.12182716403E+02  0.75863103855E+02  0.16258010326E+03  0.12499925261E+03 0.  0.
          2    1    1    2  501    0  0.25122255406E+02 -0.66159544814E+01 -0.15577931245E+04  0.15580097296E+04  0.00000000000E+00 0. -1.
          1    1    1    2  502    0 -0.95149733707E+02  0.18798670884E+02  0.89942512954E+03  0.90463938976E+03  0.00000000000E+00 0. -1.
         22    1    3    3    0    0  0.56178604008E+01 -0.55692083397E+02  0.62168835052E+02  0.83654841822E+02  0.00000000000E+00 0. -1.
         22    1    3    3    0    0  0.64409617900E+02  0.43509366994E+02  0.13694268803E+02  0.78925261433E+02  0.00000000000E+00 0. -1.
</event>
<event>
 7    1  0.5064652E-006  0.4750430E+02  0.7818608E-02  0.1541177E+00
          2   -1    0    0  502    0  0.00000000000E+00  0.00000000000E+00  0.16242751148E+04  0.16242751148E+04  0.00000000000E+00 0. -1.
          1   -1    0    0  501    0 -0.00000000000E+00 -0.00000000000E+00 -0.13626929282E+03  0.13626929282E+03  0.00000000000E+00 0. -1.
         25    2    1    2    0    0  0.29138298594E+02  0.29258569182E+01  0.34068158680E+03  0.36407572548E+03  0.12501835551E+03 0.  0.
          2    1    1    2  501    0 -0.38510640314E+02 -0.28305872907E+02 -0.11983823345E+03  0.12901741764E+03  0.00000000000E+00 0. -1.
          1    1    1    2  502    0  0.93723417195E+01  0.25380015989E+02  0.12671624686E+04  0.12674512645E+04  0.00000000000E+00 0. -1.
         22    1    3    3    0    0  0.12123421987E+02  0.63824953507E+02  0.16235896696E+03  0.17487434404E+03  0.00000000000E+00 0. -1.
         22    1    3    3    0    0  0.17014876607E+02 -0.60899096589E+02  0.17832261984E+03  0.18920138144E+03  0.00000000000E+00 0. -1.
</event>
<event>
 7    1  0.5064652E-006  0.8092326E+02  0.7818608E-02  0.1348788E+00
          2   -1    0    0  502    0  0.00000000000E+00  0.00000000000E+00  0.92351142635E+03  0.92351142635E+03  0.00000000000E+00 0. -1.
          1   -1    0    0  501    0 -0.00000000000E+00 -0.00000000000E+00 -0.24057935476E+04  0.24057935476E+04  0.00000000000E+00 0. -1.
         25    2    1    2    0    0  0.18244876156E+02  0.23876270760E+02 -0.32817754119E+02  0.13268443524E+03  0.12500081023E+03 0.  0.
          2    1    1    2  501    0 -0.81731917325E+02 -0.36243756926E+01 -0.23210498499E+04  0.23224912590E+04  0.00000000000E+00 0. -1.
          1    1    1    2  502    0  0.63487041169E+02 -0.20251895068E+02  0.87158548283E+03  0.87412927965E+03  0.00000000000E+00 0. -1.
         22    1    3    3    0    0 -0.13398632004E+02 -0.30489369066E+02 -0.56405285712E+02  0.65503291688E+02  0.00000000000E+00 0.  1.
         22    1    3    3    0    0  0.31643508160E+02  0.54365639827E+02  0.23587531593E+02  0.67181143553E+02  0.00000000000E+00 0.  1.
</event>
<event>
 7    1  0.5064652E-006  0.2585168E+03  0.7818608E-02  0.1189898E+00
          2   -1    0    0  502    0  0.00000000000E+00  0.00000000000E+00  0.24890414154E+04  0.24890414154E+04  0.00000000000E+00 0. -1.
          1   -1    0    0  501    0 -0.00000000000E+00 -0.00000000000E+00 -0.16755667912E+03  0.16755667912E+03  0.00000000000E+00 0. -1.
         25    2    1    2    0    0 -0.23864256232E+03  0.10300044720E+03  0.62525993871E+03  0.68857432616E+03  0.12500098806E+03 0.  0.
          2    1    1    2  501    0  0.52852768082E+02  0.82193345472E+02 -0.10752664367E+03  0.14529673167E+03  0.00000000000E+00 0. -1.
          1    1    1    2  502    0  0.18578979424E+03 -0.18519379267E+03  0.18037514413E+04  0.18227270367E+04  0.00000000000E+00 0. -1.
         22    1    3    3    0    0 -0.21451712950E+03  0.39499820930E+02  0.43653648319E+03  0.48799788510E+03  0.00000000000E+00 0. -1.
         22    1    3    3    0    0 -0.24125432814E+02  0.63500626273E+02  0.18872345552E+03  0.20057644106E+03  0.00000000000E+00 0. -1.
</event>
<event>
 7    1  0.5064652E-006  0.4730906E+02  0.7818608E-02  0.1525837E+00
          2   -1    0    0  502    0  0.00000000000E+00  0.00000000000E+00  0.83847037021E+02  0.83847037021E+02  0.00000000000E+00 0. -1.
          1   -1    0    0  501    0 -0.00000000000E+00 -0.00000000000E+00 -0.92769456305E+03  0.92769456305E+03  0.00000000000E+00 0. -1.
         25    2    1    2    0    0 -0.27477713340E+02 -0.11154095937E+02 -0.18876018651E+03  0.22832593324E+03  0.12499154048E+03 0.  0.
          2    1    1    2  501    0  0.46785770818E+02 -0.11866485241E+02 -0.71476941782E+03  0.71639726582E+03  0.00000000000E+00 0. -1.
          1    1    1    2  502    0 -0.19308057478E+02  0.23020581178E+02  0.59682078309E+02  0.66818401003E+02  0.00000000000E+00 0. -1.
         22    1    3    3    0    0  0.26630749406E+02  0.31726983671E+02 -0.13384830384E+03  0.14011126560E+03  0.00000000000E+00 0.  1.
         22    1    3    3    0    0 -0.54108462747E+02 -0.42881079608E+02 -0.54911882677E+02  0.88214667648E+02  0.00000000000E+00 0.  1.
</event>
<event>
 7    1  0.5064652E-006  0.6112129E+02  0.7818608E-02  0.1490756E+00
          2   -1    0    0  502    0  0.00000000000E+00  0.00000000000E+00  0.61908847619E+03  0.61908847619E+03  0.00000000000E+00 0. -1.
          1   -1    0    0  501    0 -0.00000000000E+00 -0.00000000000E+00 -0.14346640642E+04  0.14346640642E+04  0.00000000000E+00 0. -1.
         25    2    1    2    0    0  0.13180073917E+02  0.78364866002E+02  0.21013038050E+02  0.14960387854E+03  0.12500002454E+03 0.  0.
          2    1    1    2  501    0  0.15754143139E+02 -0.24959801690E+02 -0.13684810880E+04  0.13687993545E+04  0.00000000000E+00 0. -1.
          1    1    1    2  502    0 -0.28934217056E+02 -0.53405064312E+02  0.53189246193E+03  0.53534930734E+03  0.00000000000E+00 0. -1.
         22    1    3    3    0    0  0.90127936186E+01 -0.31134440478E+02 -0.12918083312E+02  0.34892129616E+02  0.00000000000E+00 0.  1.
         22    1    3    3    0    0  0.41672802981E+01  0.10949930648E+03  0.33931121362E+02  0.11471174893E+03  0.00000000000E+00 0.  1.
</event>
<event>
 7    1  0.5064652E-006  0.1365901E+03  0.7818608E-02  0.1220965E+00
          2   -1    0    0  502    0  0.00000000000E+00  0.00000000000E+00  0.21060847589E+04  0.21060847589E+04  0.00000000000E+00 0. -1.
          1   -1    0    0  501    0 -0.00000000000E+00 -0.00000000000E+00 -0.43893204702E+03  0.43893204702E+03  0.00000000000E+00 0. -1.
         25    2    1    2    0    0  0.84397224676E+01 -0.61650061912E+01  0.24548839881E+02  0.12780922006E+03  0.12499325972E+03 0.  0.
          2    1    1    2  501    0  0.95986347226E+02 -0.91178714393E+02 -0.37338994859E+03  0.39616535755E+03  0.00000000000E+00 0. -1.
          1    1    1    2  502    0 -0.10442606969E+03  0.97343720585E+02  0.20159938205E+04  0.20210422283E+04  0.00000000000E+00 0. -1.
         22    1    3    3    0    0  0.32460905332E+02 -0.42665274125E+02  0.53225123196E+02  0.75544356046E+02  0.00000000000E+00 0. -1.
         22    1    3    3    0    0 -0.24021182864E+02  0.36500267934E+02 -0.28676283315E+02  0.52264864012E+02  0.00000000000E+00 0. -1.
</event>
<event>
 7    1  0.5064652E-006  0.1041200E+03  0.7818608E-02  0.1276913E+00
          2   -1    0    0  502    0  0.00000000000E+00  0.00000000000E+00  0.65398328755E+03  0.65398328755E+03  0.00000000000E+00 0. -1.
          1   -1    0    0  501    0 -0.00000000000E+00 -0.00000000000E+00 -0.13251809941E+04  0.13251809941E+04  0.00000000000E+00 0. -1.
         25    2    1    2    0    0 -0.82410215335E+02 -0.16427284849E+03  0.49300390269E+02  0.22766678521E+03  0.12499849704E+03 0.  0.
          2    1    1    2  501    0  0.60449094401E+01  0.99007777211E+02 -0.12290868163E+04  0.12330829181E+04  0.00000000000E+00 0. -1.
          1    1    1    2  502    0  0.76365305895E+02  0.65265071283E+02  0.50858871948E+03  0.51841457836E+03  0.00000000000E+00 0. -1.
         22    1    3    3    0    0 -0.30532241346E+02 -0.11873463106E+03 -0.26200723437E+02  0.12536589761E+03  0.00000000000E+00 0. -1.
         22    1    3    3    0    0 -0.51877973989E+02 -0.45538217430E+02  0.75501113706E+02  0.10230088760E+03  0.00000000000E+00 0. -1.
</event>
<event>
 7    1  0.5064652E-006  0.6998050E+02  0.7818608E-02  0.1470006E+00
          2   -1    0    0  502    0  0.00000000000E+00  0.00000000000E+00  0.49100088517E+02  0.49100088517E+02  0.00000000000E+00 0. -1.
          1   -1    0    0  501    0 -0.00000000000E+00 -0.00000000000E+00 -0.10573490753E+04  0.10573490753E+04  0.00000000000E+00 0. -1.
         25    2    1    2    0    0  0.72755594393E+02  0.31394535643E+02 -0.63746731858E+03  0.65442259456E+03  0.12500142652E+03 0.  0.
          2    1    1    2  501    0 -0.29746163522E+01 -0.29698038925E+02 -0.38039673788E+03  0.38156585283E+03  0.00000000000E+00 0. -1.
          1    1    1    2  502    0 -0.69780978040E+02 -0.16964967184E+01  0.96150696546E+01  0.70460716444E+02  0.00000000000E+00 0. -1.
         22    1    3    3    0    0  0.10778297349E+03  0.14821518875E+02 -0.49167500484E+03  0.50356842353E+03  0.00000000000E+00 0. -1.
         22    1    3    3    0    0 -0.35027379097E+02  0.16573016768E+02 -0.14579231374E+03  0.15085417103E+03  0.00000000000E+00 0. -1.
</event>
<event>
 7    1  0.5064652E-006  0.1432605E+03  0.7818608E-02  0.1350741E+00
          2   -1    0    0  502    0  0.00000000000E+00  0.00000000000E+00  0.14619977410E+04  0.14619977410E+04  0.00000000000E+00 0. -1.
          1   -1    0    0  501    0 -0.00000000000E+00 -0.00000000000E+00 -0.54730986495E+03  0.54730986495E+03  0.00000000000E+00 0. -1.
         25    2    1    2    0    0  0.16034796209E+03 -0.46172646917E+02  0.19123361115E+03  0.28291024091E+03  0.12499811241E+03 0.  0.
          2    1    1    2  501    0 -0.33386665773E+02 -0.15994582523E+02 -0.49670181113E+03  0.49807949697E+03  0.00000000000E+00 0. -1.
          1    1    1    2  502    0 -0.12696129632E+03  0.62167229440E+02  0.12201560760E+04  0.12283178681E+04  0.00000000000E+00 0. -1.
         22    1    3    3    0    0  0.42315314648E+02  0.31655145903E+02  0.10434290651E+03  0.11696185812E+03  0.00000000000E+00 0. -1.
         22    1    3    3    0    0  0.11803264744E+03 -0.77827792820E+02  0.86890704647E+02  0.16594838279E+03  0.00000000000E+00 0. -1.
</event>
<event>
 7    1  0.5064652E-006  0.1101702E+03  0.7818608E-02  0.1280051E+00
          2   -1    0    0  502    0  0.00000000000E+00  0.00000000000E+00  0.16764721151E+04  0.16764721151E+04  0.00000000000E+00 0. -1.
          1   -1    0    0  501    0 -0.00000000000E+00 -0.00000000000E+00 -0.38674840937E+03  0.38674840937E+03  0.00000000000E+00 0. -1.
         25    2    1    2    0    0  0.15419167432E+02 -0.26383008619E+02  0.20140747823E+03  0.23900597337E+03  0.12500027660E+03 0.  0.
          2    1    1    2  501    0  0.12834174744E+02  0.11286567525E+03 -0.35771821658E+03  0.37532079501E+03  0.00000000000E+00 0. -1.
          1    1    1    2  502    0 -0.28253342176E+02 -0.86482666629E+02  0.14460344441E+04  0.14488937561E+04  0.00000000000E+00 0. -1.
         22    1    3    3    0    0 -0.25593323076E+02 -0.35249325598E+01 -0.58564825618E+01  0.26490408143E+02  0.00000000000E+00 0.  1.
         22    1    3    3    0    0  0.41012490507E+02 -0.22858076059E+02  0.20726396080E+03  0.21251556523E+03  0.00000000000E+00 0.  1.
</event>
<event>
 7    1  0.5583028E-006  0.7652101E+02  0.7818608E-02  0.1376943E+00
          2   -1    0    0  502    0  0.00000000000E+00  0.00000000000E+00  0.67283294336E+03  0.67283294336E+03  0.00000000000E+00 0. -1.
          1   -1    0    0  501    0 -0.00000000000E+00 -0.00000000000E+00 -0.14455564247E+04  0.14455564247E+04  0.00000000000E+00 0. -1.
         25    2    1    2    0    0 -0.22698434068E+01  0.10231301092E+03 -0.16511781545E+03  0.23099527563E+03  0.12498727932E+03 0.  0.
          2    1    1    2  501    0 -0.39271574740E+02 -0.65237236518E+02 -0.12451233316E+04  0.12474495038E+04  0.00000000000E+00 0. -1.
          1    1    1    2  502    0  0.41541418147E+02 -0.37075774406E+02  0.63751766570E+03  0.63994458865E+03  0.00000000000E+00 0. -1.
         22    1    3    3    0    0 -0.38594979149E+02  0.86437139279E+02 -0.16627775268E+03  0.19133541883E+03  0.00000000000E+00 0.  1.
         22    1    3    3    0    0  0.36325135742E+02  0.15875871645E+02  0.11599372302E+01  0.39659856802E+02  0.00000000000E+00 0.  1.
</event>
<event>
 7    1  0.5064652E-006  0.1540147E+03  0.7818608E-02  0.1254072E+00
          2   -1    0    0  502    0  0.00000000000E+00  0.00000000000E+00  0.50448137906E+03  0.50448137906E+03  0.00000000000E+00 0. -1.
          1   -1    0    0  501    0 -0.00000000000E+00 -0.00000000000E+00 -0.48141937917E+03  0.48141937917E+03  0.00000000000E+00 0. -1.
         25    2    1    2    0    0 -0.23220871689E+02  0.16993417902E+03  0.63065675120E+01  0.21232419343E+03  0.12499982497E+03 0.  0.
          2    1    1    2  501    0 -0.56292210736E+02 -0.14357650493E+03 -0.35787817665E+03  0.38969194896E+03  0.00000000000E+00 0. -1.
          1    1    1    2  502    0  0.79513082426E+02 -0.26357674091E+02  0.37463360903E+03  0.38388461584E+03  0.00000000000E+00 0. -1.
         22    1    3    3    0    0 -0.13360840728E+02  0.16618482470E+03 -0.34434200946E+02  0.17023989609E+03  0.00000000000E+00 0. -1.
         22    1    3    3    0    0 -0.98600309611E+01  0.37493543207E+01  0.40740768458E+02  0.42084297344E+02  0.00000000000E+00 0. -1.
</event>
<event>
 7    1  0.5064652E-006  0.9603741E+02  0.7818608E-02  0.1351482E+00
          2   -1    0    0  502    0  0.00000000000E+00  0.00000000000E+00  0.94693565102E+03  0.94693565102E+03  0.00000000000E+00 0. -1.
          1   -1    0    0  501    0 -0.00000000000E+00 -0.00000000000E+00 -0.47280569693E+02  0.47280569693E+02  0.00000000000E+00 0. -1.
         25    2    1    2    0    0  0.61090533617E+02  0.77257765838E+02  0.19373136552E+03  0.25069467148E+03  0.12496063638E+03 0.  0.
          2    1    1    2  501    0 -0.51224348292E+02  0.19683774724E+02  0.33970259211E+02  0.64539626248E+02  0.00000000000E+00 0. -1.
          1    1    1    2  502    0 -0.98661853242E+01 -0.96941540563E+02  0.67195345660E+03  0.67898192298E+03  0.00000000000E+00 0. -1.
         22    1    3    3    0    0 -0.20667125354E+02 -0.14260427248E+02  0.50448023599E+01  0.25611323405E+02  0.00000000000E+00 0.  1.
         22    1    3    3    0    0  0.81757658971E+02  0.91518193087E+02  0.18868656316E+03  0.22508334808E+03  0.00000000000E+00 0.  1.
</event>
<event>
 7    1  0.5064652E-006  0.5242780E+02  0.7818608E-02  0.1465389E+00
          2   -1    0    0  502    0  0.00000000000E+00  0.00000000000E+00  0.34098023641E+03  0.34098023641E+03  0.00000000000E+00 0. -1.
          1   -1    0    0  501    0 -0.00000000000E+00 -0.00000000000E+00 -0.14909677617E+03  0.14909677617E+03  0.00000000000E+00 0. -1.
         25    2    1    2    0    0  0.14485749549E+02  0.25398019756E+01  0.91945153736E+02  0.15587071017E+03  0.12500191782E+03 0.  0.
          2    1    1    2  501    0 -0.46172757485E+02 -0.28845360268E+02 -0.10868432579E+03  0.12155764483E+03  0.00000000000E+00 0. -1.
          1    1    1    2  502    0  0.31687007937E+02  0.26305558293E+02  0.20862263230E+03  0.21264865759E+03  0.00000000000E+00 0. -1.
         22    1    3    3    0    0  0.45055907873E+02  0.51238614405E+02  0.46298159501E+02  0.82455745789E+02  0.00000000000E+00 0.  1.
         22    1    3    3    0    0 -0.30570158324E+02 -0.48698812430E+02  0.45646994234E+02  0.73414964378E+02  0.00000000000E+00 0.  1.
</event>
<event>
 7    1  0.5064652E-006  0.1051671E+03  0.7818608E-02  0.1399213E+00
          2   -1    0    0  502    0  0.00000000000E+00  0.00000000000E+00  0.16439098763E+04  0.16439098763E+04  0.00000000000E+00 0. -1.
          1   -1    0    0  501    0 -0.00000000000E+00 -0.00000000000E+00 -0.14309982311E+04  0.14309982311E+04  0.00000000000E+00 0. -1.
         25    2    1    2    0    0 -0.61170210840E+01 -0.11346896160E+03  0.23448289292E+03  0.28899726841E+03  0.12499828351E+03 0.  0.
          2    1    1    2  501    0 -0.25720205144E+02  0.10194708939E+03 -0.14015643085E+04  0.14055024898E+04  0.00000000000E+00 0. -1.
          1    1    1    2  502    0  0.31837226228E+02  0.11521872211E+02  0.13799930608E+04  0.13804083492E+04  0.00000000000E+00 0. -1.
         22    1    3    3    0    0 -0.27961433932E+02 -0.25959975108E+01  0.13671688074E+03  0.13957108035E+03  0.00000000000E+00 0.  1.
         22    1    3    3    0    0  0.21844412848E+02 -0.11087296409E+03  0.97766012180E+02  0.14942618806E+03  0.00000000000E+00 0.  1.
</event>
<event>
 7    1  0.5064652E-006  0.1277693E+03  0.7818608E-02  0.1362858E+00
          2   -1    0    0  502    0  0.00000000000E+00  0.00000000000E+00  0.19809882124E+03  0.19809882124E+03  0.00000000000E+00 0. -1.
          1   -1    0    0  501    0 -0.00000000000E+00 -0.00000000000E+00 -0.93956584235E+03  0.93956584235E+03  0.00000000000E+00 0. -1.
         25    2    1    2    0    0  0.11182867785E+03 -0.27670664598E+02 -0.69466603312E+02  0.18363533303E+03  0.12500003076E+03 0.  0.
          2    1    1    2  501    0 -0.12917605675E+03 -0.55436394974E+01 -0.80527418171E+03  0.81558794333E+03  0.00000000000E+00 0. -1.
          1    1    1    2  502    0  0.17347378899E+02  0.33214304095E+02  0.13327376391E+03  0.13844138723E+03  0.00000000000E+00 0. -1.
         22    1    3    3    0    0  0.11961808979E+03 -0.40149436530E+02 -0.14820321992E+02  0.12704371926E+03  0.00000000000E+00 0. -1.
         22    1    3    3    0    0 -0.77894119355E+01  0.12478771932E+02 -0.54646281321E+02  0.56591613773E+02  0.00000000000E+00 0. -1.
</event>
<event>
 7    1  0.5064652E-006  0.6341005E+02  0.7818608E-02  0.1479061E+00
          2   -1    0    0  502    0  0.00000000000E+00  0.00000000000E+00  0.78592772637E+03  0.78592772637E+03  0.00000000000E+00 0. -1.
          1   -1    0    0  501    0 -0.00000000000E+00 -0.00000000000E+00 -0.77926039327E+03  0.77926039327E+03  0.00000000000E+00 0. -1.
         25    2    1    2    0    0 -0.55344422076E+02  0.44495220113E+02  0.16964628885E+03  0.22236977556E+03  0.12500249635E+03 0.  0.
          2    1    1    2  501    0 -0.63717362136E+01 -0.30218852722E+02 -0.75087978749E+03  0.75151462617E+03  0.00000000000E+00 0. -1.
          1    1    1    2  502    0  0.61716158290E+02 -0.14276367390E+02  0.58790083174E+03  0.59130371792E+03  0.00000000000E+00 0. -1.
         22    1    3    3    0    0 -0.71906696407E+02 -0.17250136073E+02  0.59068860322E+02  0.94642857324E+02  0.00000000000E+00 0. -1.
         22    1    3    3    0    0  0.16562274331E+02  0.61745356186E+02  0.11057742853E+03  0.12772691823E+03  0.00000000000E+00 0. -1.
</event>
<event>
 7    1  0.5064652E-006  0.3191135E+02  0.7818608E-02  0.1635383E+00
          2   -1    0    0  502    0  0.00000000000E+00  0.00000000000E+00  0.33141711638E+03  0.33141711638E+03  0.00000000000E+00 0. -1.
          1   -1    0    0  501    0 -0.00000000000E+00 -0.00000000000E+00 -0.69287698784E+03  0.69287698784E+03  0.00000000000E+00 0. -1.
         25    2    1    2    0    0 -0.27600465793E+02  0.17588691379E+02 -0.13444265425E+03  0.18646998665E+03  0.12500032346E+03 0.  0.
          2    1    1    2  501    0 -0.40011078995E+01 -0.22285213007E+02 -0.53134336906E+03  0.53182554980E+03  0.00000000000E+00 0. -1.
          1    1    1    2  502    0  0.31601573692E+02  0.46965216283E+01  0.30432615185E+03  0.30599856777E+03  0.00000000000E+00 0. -1.
         22    1    3    3    0    0  0.11424148160E+01  0.67765442599E+02 -0.94080051148E+02  0.11595049093E+03  0.00000000000E+00 0.  1.
         22    1    3    3    0    0 -0.28742880609E+02 -0.50176751220E+02 -0.40362603098E+02  0.70519495726E+02  0.00000000000E+00 0.  1.
</event>
<event>
 7    1  0.5064652E-006  0.5613966E+02  0.7818608E-02  0.1434016E+00
          2   -1    0    0  502    0  0.00000000000E+00  0.00000000000E+00  0.79383859103E+02  0.79383859103E+02  0.00000000000E+00 0. -1.
          1   -1    0    0  501    0 -0.00000000000E+00 -0.00000000000E+00 -0.13115159706E+04  0.13115159706E+04  0.00000000000E+00 0. -1.
         25    2    1    2    0    0  0.33202612509E+02  0.67578267031E+02 -0.49890254855E+03  0.51979662459E+03  0.12496216362E+03 0.  0.
          2    1    1    2  501    0 -0.51080986430E+02 -0.22529549682E+02 -0.79254256915E+03  0.79450649569E+03  0.00000000000E+00 0. -1.
          1    1    1    2  502    0  0.17878373921E+02 -0.45048717349E+02  0.59313006202E+02  0.76596709417E+02  0.00000000000E+00 0. -1.
         22    1    3    3    0    0 -0.18357384509E+02  0.35579546472E+02 -0.38945191362E+02  0.55853608866E+02  0.00000000000E+00 0. -1.
         22    1    3    3    0    0  0.51559997018E+02  0.31998720559E+02 -0.45995735719E+03  0.46394301573E+03  0.00000000000E+00 0. -1.
</event>
<event>
 7    1  0.5064652E-006  0.1113718E+03  0.7818608E-02  0.1436539E+00
          2   -1    0    0  502    0  0.00000000000E+00  0.00000000000E+00  0.90078700015E+03  0.90078700015E+03  0.00000000000E+00 0. -1.
          1   -1    0    0  501    0 -0.00000000000E+00 -0.00000000000E+00 -0.32784848909E+03  0.32784848909E+03  0.00000000000E+00 0. -1.
         25    2    1    2    0    0 -0.44604806912E+02  0.12199870278E+03  0.44429993508E+02  0.18567634285E+03  0.12501363002E+03 0.  0.
          2    1    1    2  501    0 -0.51015319269E+01 -0.23422377481E+02 -0.25277755924E+03  0.25391165364E+03  0.00000000000E+00 0. -1.
          1    1    1    2  502    0  0.49706338839E+02 -0.98576325300E+02  0.78128607679E+03  0.78904749275E+03  0.00000000000E+00 0. -1.
         22    1    3    3    0    0 -0.66024795092E+02  0.12588116142E+03  0.69282161599E+01  0.14231423170E+03  0.00000000000E+00 0. -1.
         22    1    3    3    0    0  0.21419988180E+02 -0.38824586357E+01  0.37501777348E+02  0.43362111145E+02  0.00000000000E+00 0. -1.
</event>
<event>
 7    1  0.5064652E-006  0.1007930E+03  0.7818608E-02  0.1314707E+00
          2   -1    0    0  502    0  0.00000000000E+00  0.00000000000E+00  0.30069286731E+04  0.30069286731E+04  0.00000000000E+00 0. -1.
          1   -1    0    0  501    0 -0.00000000000E+00 -0.00000000000E+00 -0.53680514795E+02  0.53680514795E+02  0.00000000000E+00 0. -1.
         25    2    1    2    0    0 -0.68824648166E+02 -0.34343831705E+02  0.96750774429E+03  0.97857666571E+03  0.12499889770E+03 0.  0.
          2    1    1    2  501    0 -0.39961256726E+02  0.60073978174E+02 -0.18653794758E+02  0.74523479197E+02  0.00000000000E+00 0. -1.
          1    1    1    2  502    0  0.10878590489E+03 -0.25730146469E+02  0.20043942087E+04  0.20075090429E+04  0.00000000000E+00 0. -1.
         22    1    3    3    0    0 -0.95735767433E+02 -0.48804678324E+02  0.58029359444E+03  0.59015920694E+03  0.00000000000E+00 0. -1.
         22    1    3    3    0    0  0.26911119267E+02  0.14460846619E+02  0.38721414985E+03  0.38841745876E+03  0.00000000000E+00 0. -1.
</event>
<event>
 7    1  0.5064652E-006  0.4913204E+02  0.7818608E-02  0.1487527E+00
          2   -1    0    0  502    0  0.00000000000E+00  0.00000000000E+00  0.64882603225E+02  0.64882603225E+02  0.00000000000E+00 0. -1.
          1   -1    0    0  501    0 -0.00000000000E+00 -0.00000000000E+00 -0.23673570163E+04  0.23673570163E+04  0.00000000000E+00 0. -1.
         25    2    1    2    0    0 -0.14800354509E+02  0.20618378099E+02 -0.16066588519E+03  0.20514087583E+03  0.12500033705E+03 0.  0.
          2    1    1    2  501    0  0.49220911614E+02 -0.55993743540E+01 -0.21758487650E+04  0.21764126216E+04  0.00000000000E+00 0. -1.
          1    1    1    2  502    0 -0.34420557106E+02 -0.15019003745E+02  0.34040237173E+02  0.50686122082E+02  0.00000000000E+00 0. -1.
         22    1    3    3    0    0  0.13571753465E+02  0.69617926038E+02 -0.89847175828E+02  0.11446992235E+03  0.00000000000E+00 0. -1.
         22    1    3    3    0    0 -0.28372107974E+02 -0.48999547939E+02 -0.70818709367E+02  0.90670953483E+02  0.00000000000E+00 0. -1.
</event>
<event>
 7    1  0.5064652E-006  0.5550704E+02  0.7818608E-02  0.1433356E+00
          2   -1    0    0  502    0  0.00000000000E+00  0.00000000000E+00  0.75042674367E+03  0.75042674367E+03  0.00000000000E+00 0. -1.
          1   -1    0    0  501    0 -0.00000000000E+00 -0.00000000000E+00 -0.39533596509E+03  0.39533596509E+03  0.00000000000E+00 0. -1.
         25    2    1    2    0    0 -0.65468573918E+01 -0.59311690548E+02 -0.79255420770E+01  0.13874006617E+03  0.12500101507E+03 0.  0.
          2    1    1    2  501    0  0.45348107921E+02  0.19247408969E+02 -0.31897384853E+03  0.32275568111E+03  0.00000000000E+00 0. -1.
          1    1    1    2  502    0 -0.38801250530E+02  0.40064281579E+02  0.68199016918E+03  0.68426696147E+03  0.00000000000E+00 0. -1.
         22    1    3    3    0    0 -0.40979424916E+02  0.24257125514E+02 -0.83921263563E+01  0.48354412305E+02  0.00000000000E+00 0. -1.
         22    1    3    3    0    0  0.34432567524E+02 -0.83568816062E+02  0.46658427927E+00  0.90385653868E+02  0.00000000000E+00 0. -1.
</event>
<event>
 7    1  0.5064652E-006  0.1731551E+03  0.7818608E-02  0.1211726E+00
          2   -1    0    0  502    0  0.00000000000E+00  0.00000000000E+00  0.22700779150E+04  0.22700779150E+04  0.00000000000E+00 0. -1.
          1   -1    0    0  501    0 -0.00000000000E+00 -0.00000000000E+00 -0.60643077937E+02  0.60643077937E+02  0.00000000000E+00 0. -1.
         25    2    1    2    0    0  0.30521744340E+02  0.71882154864E+02  0.18122434527E+03  0.23359596688E+03  0.12500476535E+03 0.  0.
          2    1    1    2  501    0  0.79154374179E+02  0.83615550197E+02  0.81327383750E+02  0.14096495499E+03  0.00000000000E+00 0. -1.
          1    1    1    2  502    0 -0.10967611852E+03 -0.15549770506E+03  0.19468831081E+04  0.19561600711E+04  0.00000000000E+00 0. -1.
         22    1    3    3    0    0  0.74830199179E+02  0.70519713575E+02  0.12038632295E+03  0.15832073606E+03  0.00000000000E+00 0.  1.
         22    1    3    3    0    0 -0.44308454839E+02  0.13624412891E+01  0.60838022315E+02  0.75275230825E+02  0.00000000000E+00 0.  1.
</event>
<event>
 7    1  0.5064652E-006  0.3428893E+02  0.7818608E-02  0.1626178E+00
          2   -1    0    0  502    0  0.00000000000E+00  0.00000000000E+00  0.21028691495E+04  0.21028691495E+04  0.00000000000E+00 0. -1.
          1   -1    0    0  501    0 -0.00000000000E+00 -0.00000000000E+00 -0.53706161613E+03  0.53706161613E+03  0.00000000000E+00 0. -1.
         25    2    1    2    0    0 -0.24985430135E+02  0.40679355226E+02  0.71320593090E+03  0.72564905598E+03  0.12499908366E+03 0.  0.
          2    1    1    2  501    0  0.28689559983E+02 -0.18766205387E+02 -0.53019718023E+03  0.53130434897E+03  0.00000000000E+00 0. -1.
          1    1    1    2  502    0 -0.37041298482E+01 -0.21913149839E+02  0.13827987827E+04  0.13829773607E+04  0.00000000000E+00 0. -1.
         22    1    3    3    0    0  0.22215400404E+02  0.54759192686E+02  0.16551810032E+03  0.17575077448E+03  0.00000000000E+00 0. -1.
         22    1    3    3    0    0 -0.47200830539E+02 -0.14079837460E+02  0.54768783058E+03  0.54989828150E+03  0.00000000000E+00 0. -1.
</event>
<event>
 7    1  0.5064652E-006  0.7635051E+02  0.7818608E-02  0.1402611E+00
          2   -1    0    0  502    0  0.00000000000E+00  0.00000000000E+00  0.27625884299E+03  0.27625884299E+03  0.00000000000E+00 0. -1.
          1   -1    0    0  501    0 -0.00000000000E+00 -0.00000000000E+00 -0.20614640361E+03  0.20614640361E+03  0.00000000000E+00 0. -1.
         25    2    1    2    0    0 -0.96344778933E+02  0.16073080152E+02  0.19424166892E+03  0.25078978872E+03  0.12500012740E+03 0.  0.
          2    1    1    2  501    0  0.42043586651E+02  0.17133276335E+02 -0.15454225731E+03  0.16107303198E+03  0.00000000000E+00 0. -1.
          1    1    1    2  502    0  0.54301192282E+02 -0.33206356487E+02  0.30413027765E+02  0.70542425902E+02  0.00000000000E+00 0. -1.
         22    1    3    3    0    0 -0.27920123719E+02  0.67496327803E+02  0.89230928674E+02  0.11531455332E+03  0.00000000000E+00 0. -1.
         22    1    3    3    0    0 -0.68424655214E+02 -0.51423247650E+02  0.10501074025E+03  0.13547523540E+03  0.00000000000E+00 0. -1.
</event>
<event>
 7    1  0.5064652E-006  0.3313581E+02  0.7818608E-02  0.1641732E+00
          2   -1    0    0  502    0  0.00000000000E+00  0.00000000000E+00  0.13662957153E+04  0.13662957153E+04  0.00000000000E+00 0. -1.
          1   -1    0    0  501    0 -0.00000000000E+00 -0.00000000000E+00 -0.10354690251E+04  0.10354690251E+04  0.00000000000E+00 0. -1.
         25    2    1    2    0    0 -0.40085685328E+02  0.30893570005E+02 -0.29851389034E+02  0.13812720514E+03  0.12500697796E+03 0.  0.
          2    1    1    2  501    0  0.19481470710E+02 -0.26702549840E+02 -0.95110838599E+03  0.95168257091E+03  0.00000000000E+00 0. -1.
          1    1    1    2  502    0  0.20604214618E+02 -0.41910201648E+01  0.13117864652E+04  0.13119549644E+04  0.00000000000E+00 0. -1.
         22    1    3    3    0    0 -0.63027608111E+02 -0.15411596913E+02  0.18381942952E+02  0.67438064402E+02  0.00000000000E+00 0.  1.
         22    1    3    3    0    0  0.22941922783E+02  0.46305166918E+02 -0.48233331986E+02  0.70689140741E+02  0.00000000000E+00 0.  1.
</event>
<event>
 7    1  0.5064652E-006  0.8690760E+02  0.7818608E-02  0.1426357E+00
          2   -1    0    0  502    0  0.00000000000E+00  0.00000000000E+00  0.50447651871E+03  0.50447651871E+03  0.00000000000E+00 0. -1.
          1   -1    0    0  501    0 -0.00000000000E+00 -0.00000000000E+00 -0.30362950445E+03  0.30362950445E+03  0.00000000000E+00 0. -1.
         25    2    1    2    0    0 -0.99230274605E+02  0.63029164983E+01 -0.84283991907E+02  0.18059622978E+03  0.12499933106E+03 0.  0.
          2    1    1    2  501    0  0.82143446172E+02  0.22138027709E+02 -0.15996403156E+03  0.18117982617E+03  0.00000000000E+00 0. -1.
          1    1    1    2  502    0  0.17086828433E+02 -0.28440944207E+02  0.44509503773E+03  0.44632996721E+03  0.00000000000E+00 0. -1.
         22    1    3    3    0    0 -0.86350998617E+02 -0.37078666909E+02 -0.95490010803E+02  0.13397635860E+03  0.00000000000E+00 0.  1.
         22    1    3    3    0    0 -0.12879275988E+02  0.43381583407E+02  0.11206018895E+02  0.46619871175E+02  0.00000000000E+00 0.  1.
</event>
<event>
 7    1  0.5064652E-006  0.1299659E+03  0.7818608E-02  0.1272726E+00
          2   -1    0    0  502    0  0.00000000000E+00  0.00000000000E+00  0.63869950018E+03  0.63869950018E+03  0.00000000000E+00 0. -1.
          1   -1    0    0  501    0 -0.00000000000E+00 -0.00000000000E+00 -0.11301919858E+04  0.11301919858E+04  0.00000000000E+00 0. -1.
         25    2    1    2    0    0 -0.90585241500E+02 -0.10539977438E+03  0.88758353175E+02  0.20692705542E+03  0.12500385030E+03 0.  0.
          2    1    1    2  501    0  0.12667510382E+03  0.30963818219E+02 -0.10636116337E+04  0.10715759643E+04  0.00000000000E+00 0. -1.
          1    1    1    2  502    0 -0.36089862324E+02  0.74435956162E+02  0.48336079492E+03  0.49038846622E+03  0.00000000000E+00 0. -1.
         22    1    3    3    0    0 -0.36342476071E+01 -0.75945525537E+02 -0.43682643683E+01  0.76157812064E+02  0.00000000000E+00 0. -1.
         22    1    3    3    0    0 -0.86950993893E+02 -0.29454248844E+02  0.93126617543E+02  0.13076924336E+03  0.00000000000E+00 0. -1.
</event>
<event>
 7    1  0.5064652E-006  0.3472839E+02  0.7818608E-02  0.1629098E+00
          2   -1    0    0  502    0  0.00000000000E+00  0.00000000000E+00  0.14878354139E+04  0.14878354139E+04  0.00000000000E+00 0. -1.
          1   -1    0    0  501    0 -0.00000000000E+00 -0.00000000000E+00 -0.48646415265E+02  0.48646415265E+02  0.00000000000E+00 0. -1.
         25    2    1    2    0    0 -0.78831291554E+01 -0.50086989007E+02  0.71957866379E+03  0.73211309944E+03  0.12500114717E+03 0.  0.
          2    1    1    2  501    0 -0.79056009984E+01  0.20073187377E+02 -0.39230088836E+02  0.44770875005E+02  0.00000000000E+00 0. -1.
          1    1    1    2  502    0  0.15788730154E+02  0.30013801630E+02  0.75884042368E+03  0.75959785472E+03  0.00000000000E+00 0. -1.
         22    1    3    3    0    0 -0.91296097544E+01 -0.20857912860E+01  0.63332705306E+03  0.63339628704E+03  0.00000000000E+00 0. -1.
         22    1    3    3    0    0  0.12464805990E+01 -0.48001197721E+02  0.86251610739E+02  0.98716812406E+02  0.00000000000E+00 0. -1.
</event>
<event>
 7    1  0.5064652E-006  0.9680508E+02  0.7818608E-02  0.1361966E+00
          2   -1    0    0  502    0  0.00000000000E+00  0.00000000000E+00  0.13638172109E+03  0.13638172109E+03  0.00000000000E+00 0. -1.
          1   -1    0    0  501    0 -0.00000000000E+00 -0.00000000000E+00 -0.11006127212E+04  0.11006127212E+04  0.00000000000E+00 0. -1.
         25    2    1    2    0    0  0.83168090200E+02  0.94312635778E+02 -0.29022615487E+03  0.34010013913E+03  0.12500031669E+03 0.  0.
          2    1    1    2  501    0 -0.83131526918E+02 -0.44484822204E+02 -0.77688353378E+03  0.78258403717E+03  0.00000000000E+00 0. -1.
          1    1    1    2  502    0 -0.36563281623E-01 -0.49827813574E+02  0.10287868856E+03  0.11431026596E+03  0.00000000000E+00 0. -1.
         22    1    3    3    0    0  0.99868210039E+02  0.28749168616E+02 -0.21578939250E+03  0.23951040893E+03  0.00000000000E+00 0. -1.
         22    1    3    3    0    0 -0.16700119840E+02  0.65563467162E+02 -0.74436762368E+02  0.10058973020E+03  0.00000000000E+00 0. -1.
</event>
<event>
 7    1  0.5064652E-006  0.2243221E+03  0.7818608E-02  0.1295791E+00
          2   -1    0    0  502    0  0.00000000000E+00  0.00000000000E+00  0.99797335063E+02  0.99797335063E+02  0.00000000000E+00 0. -1.
          1   -1    0    0  501    0 -0.00000000000E+00 -0.00000000000E+00 -0.92828275825E+03  0.92828275825E+03  0.00000000000E+00 0. -1.
         25    2    1    2    0    0 -0.14843341590E+03  0.20104321223E+03 -0.39254962023E+03  0.48183965858E+03  0.12499360021E+03 0.  0.
          2    1    1    2  501    0  0.28202744844E+02 -0.26266236340E+02 -0.28079295538E+03  0.28342546424E+03  0.00000000000E+00 0. -1.
          1    1    1    2  502    0  0.12023067106E+03 -0.17477697589E+03 -0.15514284757E+03  0.26281497049E+03  0.00000000000E+00 0. -1.
         22    1    3    3    0    0  0.19303419322E+02  0.22662220917E+02 -0.76132283508E+02  0.81745476001E+02  0.00000000000E+00 0.  1.
         22    1    3    3    0    0 -0.16773683522E+03  0.17838099131E+03 -0.31641733673E+03  0.40009418258E+03  0.00000000000E+00 0.  1.
</event>
<event>
 7    1  0.5064652E-006  0.6479105E+02  0.7818608E-02  0.1494995E+00
          2   -1    0    0  502    0  0.00000000000E+00  0.00000000000E+00  0.19334799415E+03  0.19334799415E+03  0.00000000000E+00 0. -1.
          1   -1    0    0  501    0 -0.00000000000E+00 -0.00000000000E+00 -0.21079921673E+03  0.21079921673E+03  0.00000000000E+00 0. -1.
         25    2    1    2    0    0 -0.28410145153E+02  0.31539544922E+02  0.10119954573E+03  0.16633839343E+03  0.12500093532E+03 0.  0.
          2    1    1    2  501    0  0.55037939874E+02 -0.36226293982E+02 -0.16859648875E+03  0.18101462709E+03  0.00000000000E+00 0. -1.
          1    1    1    2  502    0 -0.26627794721E+02  0.46867490604E+01  0.49945720435E+02  0.56794190356E+02  0.00000000000E+00 0. -1.
         22    1    3    3    0    0 -0.45345411348E+00  0.76337410196E+02  0.76388450675E+02  0.10799444992E+03  0.00000000000E+00 0.  1.
         22    1    3    3    0    0 -0.27956691040E+02 -0.44797865274E+02  0.24811095059E+02  0.58343943516E+02  0.00000000000E+00 0.  1.
</event>
<event>
 7    1  0.5064652E-006  0.6741708E+02  0.7818608E-02  0.1446686E+00
          2   -1    0    0  502    0  0.00000000000E+00  0.00000000000E+00  0.31119623390E+04  0.31119623390E+04  0.00000000000E+00 0. -1.
          1   -1    0    0  501    0 -0.00000000000E+00 -0.00000000000E+00 -0.31391290847E+03  0.31391290847E+03  0.00000000000E+00 0. -1.
         25    2    1    2    0    0  0.96886463066E+02  0.37003203555E+02  0.41034863028E+03  0.44132457396E+03  0.12500062964E+03 0.  0.
          2    1    1    2  501    0 -0.63419629590E+02 -0.21904796056E+02 -0.29452635477E+03  0.30207224825E+03  0.00000000000E+00 0. -1.
          1    1    1    2  502    0 -0.33466833476E+02 -0.15098407499E+02  0.26822271550E+04  0.26824784253E+04  0.00000000000E+00 0. -1.
         22    1    3    3    0    0  0.10736172396E+03  0.64274342074E+02  0.26484782935E+03  0.29291996097E+03  0.00000000000E+00 0. -1.
         22    1    3    3    0    0 -0.10475260897E+02 -0.27271138519E+02  0.14550080093E+03  0.14840461299E+03  0.00000000000E+00 0. -1.
</event>
<event>
 7    1  0.5064652E-006  0.1129097E+03  0.7818608E-02  0.1317422E+00
          2   -1    0    0  502    0  0.00000000000E+00  0.00000000000E+00  0.50027312532E+03  0.50027312532E+03  0.00000000000E+00 0. -1.
          1   -1    0    0  501    0 -0.00000000000E+00 -0.00000000000E+00 -0.55681942478E+03  0.55681942478E+03  0.00000000000E+00 0. -1.
         25    2    1    2    0    0  0.10024200467E+02 -0.69450060362E+02 -0.14577874371E+01  0.14335096188E+03  0.12499431047E+03 0.  0.
          2    1    1    2  501    0  0.55691975402E+02 -0.29141629670E+02 -0.47412624456E+03  0.47827453046E+03  0.00000000000E+00 0. -1.
          1    1    1    2  502    0 -0.65716175869E+02  0.98591690032E+02  0.41903773253E+03  0.43546705776E+03  0.00000000000E+00 0. -1.
         22    1    3    3    0    0  0.60776960363E+02 -0.48761736332E+02 -0.27553260103E+02  0.82648218271E+02  0.00000000000E+00 0.  1.
         22    1    3    3    0    0 -0.50752759896E+02 -0.20688324030E+02  0.26095472666E+02  0.60702743611E+02  0.00000000000E+00 0.  1.
</event>
<event>
 7    1  0.5064652E-006  0.7561703E+02  0.7818608E-02  0.1384256E+00
          2   -1    0    0  502    0  0.00000000000E+00  0.00000000000E+00  0.10126427627E+04  0.10126427627E+04  0.00000000000E+00 0. -1.
          1   -1    0    0  501    0 -0.00000000000E+00 -0.00000000000E+00 -0.41673464473E+03  0.41673464473E+03  0.00000000000E+00 0. -1.
         25    2    1    2    0    0 -0.12691134442E+03 -0.58973069367E+01  0.82960598970E+02  0.19659289134E+03  0.12500014550E+03 0.  0.
          2    1    1    2  501    0  0.73845016644E+02  0.73606916070E+01 -0.35527378302E+03  0.36294176828E+03  0.00000000000E+00 0. -1.
          1    1    1    2  502    0  0.53066327772E+02 -0.14633846702E+01  0.86822130205E+03  0.86984274784E+03  0.00000000000E+00 0. -1.
         22    1    3    3    0    0 -0.52812856827E+02 -0.63377059856E+02  0.53371424916E+02  0.98256595503E+02  0.00000000000E+00 0.  1.
         22    1    3    3    0    0 -0.74098487589E+02  0.57479752919E+02  0.29589174054E+02  0.98336295841E+02  0.00000000000E+00 0.  1.
</event>
<event>
 7    1  0.5064652E-006  0.7881482E+02  0.7818608E-02  0.1436569E+00
          2   -1    0    0  502    0  0.00000000000E+00  0.00000000000E+00  0.55094973633E+03  0.55094973633E+03  0.00000000000E+00 0. -1.
          1   -1    0    0  501    0 -0.00000000000E+00 -0.00000000000E+00 -0.13707759042E+04  0.13707759042E+04  0.00000000000E+00 0. -1.
         25    2    1    2    0    0  0.30963867596E+02 -0.95352805409E+02 -0.25682030954E+03  0.30271102094E+03  0.12500548873E+03 0.  0.
          2    1    1    2  501    0  0.13995934153E+02  0.30838629346E+02 -0.10878175094E+04  0.10883445415E+04  0.00000000000E+00 0. -1.
          1    1    1    2  502    0 -0.44959801749E+02  0.64514176063E+02  0.52481165107E+03  0.53067007809E+03  0.00000000000E+00 0. -1.
         22    1    3    3    0    0  0.90652219265E+01  0.22238840677E+02 -0.58856249957E+01  0.24726197945E+02  0.00000000000E+00 0.  1.
         22    1    3    3    0    0  0.21898645669E+02 -0.11759164609E+03 -0.25093468454E+03  0.27798482300E+03  0.00000000000E+00 0.  1.
</event>
<event>
 7    1  0.5064652E-006  0.1428726E+03  0.7818608E-02  0.1378638E+00
          2   -1    0    0  502    0  0.00000000000E+00  0.00000000000E+00  0.25353496811E+04  0.25353496811E+04  0.00000000000E+00 0. -1.
          1   -1    0    0  501    0 -0.00000000000E+00 -0.00000000000E+00 -0.75400834107E+03  0.75400834107E+03  0.00000000000E+00 0. -1.
         25    2    1    2    0    0 -0.10830070782E+03  0.64476093366E+02  0.10768290174E+02  0.17784010690E+03  0.12499975048E+03 0.  0.
          2    1    1    2  501    0 -0.18629814035E-01  0.29411057693E+02 -0.66804418684E+03  0.66869129367E+03  0.00000000000E+00 0. -1.
          1    1    1    2  502    0  0.10831933764E+03 -0.93887151059E+02  0.24386172367E+04  0.24428266216E+04  0.00000000000E+00 0. -1.
         22    1    3    3    0    0 -0.94037858085E+02  0.15510497820E+01  0.45594623382E+02  0.10451982678E+03  0.00000000000E+00 0.  1.
         22    1    3    3    0    0 -0.14262849739E+02  0.62925043584E+02 -0.34826333209E+02  0.73320280124E+02  0.00000000000E+00 0.  1.
</event>
<event>
 7    1  0.5064652E-006  0.1965788E+03  0.7818608E-02  0.1285988E+00
          2   -1    0    0  502    0  0.00000000000E+00  0.00000000000E+00  0.19073238283E+04  0.19073238283E+04  0.00000000000E+00 0. -1.
          1   -1    0    0  501    0 -0.00000000000E+00 -0.00000000000E+00 -0.10147394365E+04  0.10147394365E+04  0.00000000000E+00 0. -1.
         25    2    1    2    0    0 -0.20494940978E+03  0.35325620739E+02  0.24124244529E+03  0.34216210724E+03  0.12499932068E+03 0.  0.
          2    1    1    2  501    0  0.19600335186E+03  0.12038145277E+02 -0.95391642067E+03  0.97391928233E+03  0.00000000000E+00 0. -1.
          1    1    1    2  502    0  0.89460579253E+01 -0.47363766016E+02  0.16052583671E+04  0.16059818752E+04  0.00000000000E+00 0. -1.
         22    1    3    3    0    0 -0.20428981103E+03  0.42608012479E+02  0.25321855183E+03  0.32813016412E+03  0.00000000000E+00 0.  1.
         22    1    3    3    0    0 -0.65959875741E+00 -0.72823917399E+01 -0.11976106536E+02  0.14031943121E+02  0.00000000000E+00 0.  1.
</event>
<event>
 7    1  0.5064652E-006  0.5405608E+02  0.7818608E-02  0.1446315E+00
          2   -1    0    0  502    0  0.00000000000E+00  0.00000000000E+00  0.63176331439E+02  0.63176331439E+02  0.00000000000E+00 0. -1.
          1   -1    0    0  501    0 -0.00000000000E+00 -0.00000000000E+00 -0.30619056517E+04  0.30619056517E+04  0.00000000000E+00 0. -1.
         25    2    1    2    0    0  0.97832845052E+01 -0.39714515025E+02 -0.20262398417E+03  0.24156469968E+03  0.12499627918E+03 0.  0.
          2    1    1    2  501    0 -0.45760668295E+02 -0.37721648527E+01 -0.28213253099E+04  0.28216989160E+04  0.00000000000E+00 0. -1.
          1    1    1    2  502    0  0.35977383790E+02  0.43486679877E+02  0.25219973877E+02  0.61818367444E+02  0.00000000000E+00 0. -1.
         22    1    3    3    0    0  0.22737062028E+02 -0.14610782236E+02 -0.21050833060E+03  0.21223620379E+03  0.00000000000E+00 0.  1.
         22    1    3    3    0    0 -0.12953777523E+02 -0.25103732788E+02  0.78843464352E+01  0.29328495883E+02  0.00000000000E+00 0.  1.
</event>
<event>
 7    1  0.5064652E-006  0.7166926E+02  0.7818608E-02  0.1379795E+00
          2   -1    0    0  502    0  0.00000000000E+00  0.00000000000E+00  0.16275123125E+03  0.16275123125E+03  0.00000000000E+00 0. -1.
          1   -1    0    0  501    0 -0.00000000000E+00 -0.00000000000E+00 -0.12517795212E+04  0.12517795212E+04  0.00000000000E+00 0. -1.
         25    2    1    2    0    0  0.48215281209E+02  0.64095733156E+02 -0.50334771569E+03  0.52480470539E+03  0.12501231763E+03 0.  0.
          2    1    1    2  501    0  0.91825688185E+01 -0.72968492460E+02 -0.73024080481E+03  0.73393484280E+03  0.00000000000E+00 0. -1.
          1    1    1    2  502    0 -0.57397850027E+02  0.88727593041E+01  0.14456023059E+03  0.15579120422E+03  0.00000000000E+00 0. -1.
         22    1    3    3    0    0  0.35262085723E+02  0.10199929872E+03 -0.38633517068E+03  0.40112608458E+03  0.00000000000E+00 0. -1.
         22    1    3    3    0    0  0.12953195486E+02 -0.37903565561E+02 -0.11701254501E+03  0.12367862081E+03  0.00000000000E+00 0. -1.
</event>
<event>
 7    1  0.5064652E-006  0.6539127E+02  0.7818608E-02  0.1485900E+00
          2   -1    0    0  502    0  0.00000000000E+00  0.00000000000E+00  0.98289802069E+03  0.98289802069E+03  0.00000000000E+00 0. -1.
          1   -1    0    0  501    0 -0.00000000000E+00 -0.00000000000E+00 -0.12534401830E+04  0.12534401830E+04  0.00000000000E+00 0. -1.
         25    2    1    2    0    0 -0.48077060240E+02 -0.26753201062E+02  0.46014998220E+03  0.47998911278E+03  0.12499761909E+03 0.  0.
          2    1    1    2  501    0  0.63568812115E+01 -0.27822972253E+02 -0.12410552823E+04  0.12413833983E+04  0.00000000000E+00 0. -1.
          1    1    1    2  502    0  0.41720179028E+02  0.54576173316E+02  0.51036313788E+03  0.51496569258E+03  0.00000000000E+00 0. -1.
         22    1    3    3    0    0  0.62058143010E+01 -0.85190428878E+00 -0.67629811337E+01  0.92182311682E+01  0.00000000000E+00 0.  1.
         22    1    3    3    0    0 -0.54282874541E+02 -0.25901296774E+02  0.46691296333E+03  0.47077088161E+03  0.00000000000E+00 0.  1.
</event>
<event>
 7    1  0.5064652E-006  0.5923206E+02  0.7818608E-02  0.1535265E+00
          2   -1    0    0  502    0  0.00000000000E+00  0.00000000000E+00  0.10476962285E+03  0.10476962285E+03  0.00000000000E+00 0. -1.
          1   -1    0    0  501    0 -0.00000000000E+00 -0.00000000000E+00 -0.94986142174E+03  0.94986142174E+03  0.00000000000E+00 0. -1.
         25    2    1    2    0    0  0.23065273272E+02 -0.36311384091E+02 -0.14115163222E+03  0.19338856091E+03  0.12499931507E+03 0.  0.
          2    1    1    2  501    0 -0.60612433792E+01 -0.21721939901E+02 -0.77077785227E+03  0.77110769604E+03  0.00000000000E+00 0. -1.
          1    1    1    2  502    0 -0.17004029893E+02  0.58033323992E+02  0.66837685605E+02  0.90134787641E+02  0.00000000000E+00 0. -1.
         22    1    3    3    0    0 -0.88277286628E+01  0.22529557255E+02  0.11439267410E+02  0.26765025356E+02  0.00000000000E+00 0. -1.
         22    1    3    3    0    0  0.31893001935E+02 -0.58840941346E+02 -0.15259089963E+03  0.16662353555E+03  0.00000000000E+00 0. -1.
</event>
<event>
 7    1  0.5064652E-006  0.1598632E+03  0.7818608E-02  0.1364231E+00
          2   -1    0    0  502    0  0.00000000000E+00  0.00000000000E+00  0.20076496678E+04  0.20076496678E+04  0.00000000000E+00 0. -1.
          1   -1    0    0  501    0 -0.00000000000E+00 -0.00000000000E+00 -0.11341995094E+04  0.11341995094E+04  0.00000000000E+00 0. -1.
         25    2    1    2    0    0  0.16944516136E+03 -0.60025464365E+01  0.11684915375E+03  0.24088755156E+03  0.12500157795E+03 0.  0.
          2    1    1    2  501    0 -0.11426969450E+02  0.27313145738E+02 -0.10684993396E+04  0.10689094547E+04  0.00000000000E+00 0. -1.
          1    1    1    2  502    0 -0.15801819191E+03 -0.21310599301E+02  0.18251003442E+04  0.18320521710E+04  0.00000000000E+00 0. -1.
         22    1    3    3    0    0  0.53731827080E+02  0.20804495457E+02 -0.18778311392E+02  0.60601660467E+02  0.00000000000E+00 0.  1.
         22    1    3    3    0    0  0.11571333428E+03 -0.26807041893E+02  0.13562746514E+03  0.18028589109E+03  0.00000000000E+00 0.  1.
</event>
<event>
 7    1  0.5064652E-006  0.1299824E+03  0.7818608E-02  0.1292408E+00
          2   -1    0    0  502    0  0.00000000000E+00  0.00000000000E+00  0.57864708547E+03  0.57864708547E+03  0.00000000000E+00 0. -1.
          1   -1    0    0  501    0 -0.00000000000E+00 -0.00000000000E+00 -0.41040098348E+03  0.41040098348E+03  0.00000000000E+00 0. -1.
         25    2    1    2    0    0 -0.32641367030E+02  0.12849267318E+03  0.88251034943E+02  0.20245856079E+03  0.12500159105E+03 0.  0.
          2    1    1    2  501    0 -0.59711324756E+02 -0.33849038206E+02 -0.33969482567E+03  0.34655991441E+03  0.00000000000E+00 0. -1.
          1    1    1    2  502    0  0.92352691786E+02 -0.94643634978E+02  0.41968989272E+03  0.44002959374E+03  0.00000000000E+00 0. -1.
         22    1    3    3    0    0  0.85444851594E+01 -0.56839346764E+01  0.57973188603E+02  0.58874493092E+02  0.00000000000E+00 0.  1.
         22    1    3    3    0    0 -0.41185852189E+02  0.13417660786E+03  0.30277846340E+02  0.14358406770E+03  0.00000000000E+00 0.  1.
</event>
<event>
 7    1  0.5064652E-006  0.7797645E+02  0.7818608E-02  0.1491930E+00
          2   -1    0    0  502    0  0.00000000000E+00  0.00000000000E+00  0.32362702588E+03  0.32362702588E+03  0.00000000000E+00 0. -1.
          1   -1    0    0  501    0 -0.00000000000E+00 -0.00000000000E+00 -0.69633724895E+02  0.69633724895E+02  0.00000000000E+00 0. -1.
         25    2    1    2    0    0  0.61117564108E+02  0.22994528513E+01  0.11021813224E+03  0.17752011571E+03  0.12499884273E+03 0.  0.
          2    1    1    2  501    0  0.21693031009E+02 -0.74837250724E+01 -0.21094196211E+02  0.31169838772E+02  0.00000000000E+00 0. -1.
          1    1    1    2  502    0 -0.82810595117E+02  0.51842722211E+01  0.16486936496E+03  0.18457079629E+03  0.00000000000E+00 0. -1.
         22    1    3    3    0    0  0.48309999267E+02  0.40847895978E+02  0.35326048049E+01  0.63363127541E+02  0.00000000000E+00 0.  1.
         22    1    3    3    0    0  0.12807564841E+02 -0.38548443127E+02  0.10668552744E+03  0.11415698817E+03  0.00000000000E+00 0.  1.
</event>
<event>
 7    1  0.5064652E-006  0.6284350E+02  0.7818608E-02  0.1487490E+00
          2   -1    0    0  502    0  0.00000000000E+00  0.00000000000E+00  0.11779239245E+04  0.11779239245E+04  0.00000000000E+00 0. -1.
          1   -1    0    0  501    0 -0.00000000000E+00 -0.00000000000E+00 -0.21775288244E+03  0.21775288244E+03  0.00000000000E+00 0. -1.
         25    2    1    2    0    0 -0.82321467320E+02 -0.26780533097E+02  0.56379253899E+03  0.58393582858E+03  0.12500001577E+03 0.  0.
          2    1    1    2  501    0  0.23519143235E+02  0.17588358620E+02 -0.20516705005E+03  0.20725833852E+03  0.00000000000E+00 0. -1.
          1    1    1    2  502    0  0.58802324085E+02  0.91921744765E+01  0.60154555315E+03  0.60448263987E+03  0.00000000000E+00 0. -1.
         22    1    3    3    0    0  0.16719555413E+02 -0.24548348963E+01  0.77026545599E+01  0.18571500608E+02  0.00000000000E+00 0. -1.
         22    1    3    3    0    0 -0.99041022733E+02 -0.24325698201E+02  0.55608988443E+03  0.56536432798E+03  0.00000000000E+00 0. -1.
</event>
<event>
 7    1  0.5064652E-006  0.5235201E+02  0.7818608E-02  0.1490374E+00
          2   -1    0    0  502    0  0.00000000000E+00  0.00000000000E+00  0.10258477041E+03  0.10258477041E+03  0.00000000000E+00 0. -1.
          1   -1    0    0  501    0 -0.00000000000E+00 -0.00000000000E+00 -0.17574966506E+04  0.17574966506E+04  0.00000000000E+00 0. -1.
         25    2    1    2    0    0 -0.36024063766E+02 -0.40042791318E+02  0.81068521706E+01  0.13635042344E+03  0.12499823444E+03 0.  0.
          2    1    1    2  501    0  0.31295858973E+02 -0.14641954494E+02 -0.16682369665E+04  0.16685947363E+04  0.00000000000E+00 0. -1.
          1    1    1    2  502    0  0.47282047924E+01  0.54684745812E+02  0.52182340994E+01  0.55136261318E+02  0.00000000000E+00 0. -1.
         22    1    3    3    0    0  0.31970469551E+02 -0.31453865147E+02  0.40605990841E+02  0.60500438413E+02  0.00000000000E+00 0.  1.
         22    1    3    3    0    0 -0.67994533316E+02 -0.85889261704E+01 -0.32499138671E+02  0.75849985023E+02  0.00000000000E+00 0.  1.
</event>
<event>
 7    1  0.5064652E-006  0.5344608E+02  0.7818608E-02  0.1535271E+00
          2   -1    0    0  502    0  0.00000000000E+00  0.00000000000E+00  0.28238805436E+04  0.28238805436E+04  0.00000000000E+00 0. -1.
          1   -1    0    0  501    0 -0.00000000000E+00 -0.00000000000E+00 -0.84101406728E+01  0.84101406728E+01  0.00000000000E+00 0. -1.
         25    2    1    2    0    0 -0.59379989171E+02  0.96577290090E+01  0.97659695446E+03  0.98640001032E+03  0.12499645618E+03 0.  0.
          2    1    1    2  501    0  0.44053005247E+02 -0.29398406024E+02  0.20203310404E+03  0.20885954294E+03  0.00000000000E+00 0. -1.
          1    1    1    2  502    0  0.15326983925E+02  0.19740677015E+02  0.16368403445E+04  0.16370311311E+04  0.00000000000E+00 0. -1.
         22    1    3    3    0    0 -0.18130778148E+01 -0.19864766643E+02  0.76204739471E+03  0.76230842051E+03  0.00000000000E+00 0. -1.
         22    1    3    3    0    0 -0.57566911356E+02  0.29522495652E+02  0.21454955975E+03  0.22409158981E+03  0.00000000000E+00 0. -1.
</event>
<event>
 7    1  0.5064652E-006  0.5753993E+02  0.7818608E-02  0.1452652E+00
          2   -1    0    0  502    0  0.00000000000E+00  0.00000000000E+00  0.12945602042E+04  0.12945602042E+04  0.00000000000E+00 0. -1.
          1   -1    0    0  501    0 -0.00000000000E+00 -0.00000000000E+00 -0.22226767057E+02  0.22226767057E+02  0.00000000000E+00 0. -1.
         25    2    1    2    0    0 -0.35107320880E+02  0.17643459882E+02  0.66649985273E+03  0.67925690100E+03  0.12499627275E+03 0.  0.
          2    1    1    2  501    0  0.71782596622E+01  0.40536114499E+02  0.15984735212E+02  0.44161247154E+02  0.00000000000E+00 0. -1.
          1    1    1    2  502    0  0.27929061218E+02 -0.58179574380E+02  0.58984884919E+03  0.59336882309E+03  0.00000000000E+00 0. -1.
         22    1    3    3    0    0  0.15397530449E+02  0.28758279098E+02  0.55914652307E+03  0.56009727443E+03  0.00000000000E+00 0. -1.
         22    1    3    3    0    0 -0.50504851328E+02 -0.11114819216E+02  0.10735332966E+03  0.11915962657E+03  0.00000000000E+00 0. -1.
</event>
<event>
 7    1  0.5064652E-006  0.5203982E+02  0.7818608E-02  0.1565890E+00
          2   -1    0    0  502    0  0.00000000000E+00  0.00000000000E+00  0.22586510643E+03  0.22586510643E+03  0.00000000000E+00 0. -1.
          1   -1    0    0  501    0 -0.00000000000E+00 -0.00000000000E+00 -0.12320808038E+03  0.12320808038E+03  0.00000000000E+00 0. -1.
         25    2    1    2    0    0 -0.49879924708E+02 -0.51951604544E+02 -0.34543347820E+02  0.14835054085E+03  0.12501065550E+03 0.  0.
          2    1    1    2  501    0  0.12541866547E+02  0.16952756298E+02 -0.23791738895E+02  0.31792156301E+02  0.00000000000E+00 0. -1.
          1    1    1    2  502    0  0.37338058162E+02  0.34998848245E+02  0.16099211276E+03  0.16893048966E+03  0.00000000000E+00 0. -1.
         22    1    3    3    0    0 -0.72347384575E+02 -0.31189000362E+02 -0.67238063463E+02  0.10357535893E+03  0.00000000000E+00 0.  1.
         22    1    3    3    0    0  0.22467459866E+02 -0.20762604182E+02  0.32694715643E+02  0.44775181923E+02  0.00000000000E+00 0.  1.
</event>
<event>
 7    1  0.5064652E-006  0.5147972E+02  0.7818608E-02  0.1464535E+00
          2   -1    0    0  502    0  0.00000000000E+00  0.00000000000E+00  0.27382578639E+04  0.27382578639E+04  0.00000000000E+00 0. -1.
          1   -1    0    0  501    0 -0.00000000000E+00 -0.00000000000E+00 -0.18085957149E+04  0.18085957149E+04  0.00000000000E+00 0. -1.
         25    2    1    2    0    0 -0.74737251709E+02  0.56068622256E+01  0.15229542264E+02  0.14653868367E+03  0.12499821261E+03 0.  0.
          2    1    1    2  501    0  0.45197257053E+02  0.24530961299E+02 -0.17423942162E+04  0.17431529379E+04  0.00000000000E+00 0. -1.
          1    1    1    2  502    0  0.29539994655E+02 -0.30137823525E+02  0.26568268230E+04  0.26571619573E+04  0.00000000000E+00 0. -1.
         22    1    3    3    0    0 -0.95830881162E+02 -0.76150090354E+01  0.46319218073E+02  0.10670996256E+03  0.00000000000E+00 0.  1.
         22    1    3    3    0    0  0.21093629453E+02  0.13221871261E+02 -0.31089675809E+02  0.39828721107E+02  0.00000000000E+00 0.  1.
</event>
<event>
 7    1  0.5064652E-006  0.6428807E+02  0.7818608E-02  0.1492577E+00
          2   -1    0    0  502    0  0.00000000000E+00  0.00000000000E+00  0.69994490160E+03  0.69994490160E+03  0.00000000000E+00 0. -1.
          1   -1    0    0  501    0 -0.00000000000E+00 -0.00000000000E+00 -0.40036706303E+03  0.40036706303E+03  0.00000000000E+00 0. -1.
         25    2    1    2    0    0  0.41324334015E+02 -0.58435565359E+02 -0.36527079693E+02  0.14859930302E+03  0.12500043770E+03 0.  0.
          2    1    1    2  501    0 -0.54409481804E+02  0.34010859305E+02 -0.30415700321E+03  0.31085143213E+03  0.00000000000E+00 0. -1.
          1    1    1    2  502    0  0.13085147790E+02  0.24424706054E+02  0.64026192147E+03  0.64086122947E+03  0.00000000000E+00 0. -1.
         22    1    3    3    0    0  0.70820799763E+02 -0.79802594411E+02 -0.19791903988E+02  0.10851617030E+03  0.00000000000E+00 0. -1.
         22    1    3    3    0    0 -0.29496465749E+02  0.21367029052E+02 -0.16735175705E+02  0.40083132713E+02  0.00000000000E+00 0. -1.
</event>
<event>
 7    1  0.5064652E-006  0.1153260E+03  0.7818608E-02  0.1368552E+00
          2   -1    0    0  502    0  0.00000000000E+00  0.00000000000E+00  0.34565658935E+03  0.34565658935E+03  0.00000000000E+00 0. -1.
          1   -1    0    0  501    0 -0.00000000000E+00 -0.00000000000E+00 -0.30565954076E+04  0.30565954076E+04  0.00000000000E+00 0. -1.
         25    2    1    2    0    0 -0.98135493199E+02 -0.10127735093E+03 -0.84973582323E+03  0.87038113350E+03  0.12499868576E+03 0.  0.
          2    1    1    2  501    0  0.99905964926E+00  0.39578632178E+02 -0.21864800308E+04  0.21868384466E+04  0.00000000000E+00 0. -1.
          1    1    1    2  502    0  0.97136433550E+02  0.61698718748E+02  0.32527703584E+03  0.34503241683E+03  0.00000000000E+00 0. -1.
         22    1    3    3    0    0  0.19313043342E+02 -0.53537213327E+02 -0.36152041638E+03  0.36597300217E+03  0.00000000000E+00 0.  1.
         22    1    3    3    0    0 -0.11744853654E+03 -0.47740137599E+02 -0.48821540685E+03  0.50440813134E+03  0.00000000000E+00 0.  1.
</event>
<event>
 7    1  0.5064652E-006  0.6092295E+02  0.7818608E-02  0.1445000E+00
          2   -1    0    0  502    0  0.00000000000E+00  0.00000000000E+00  0.60378870094E+03  0.60378870094E+03  0.00000000000E+00 0. -1.
          1   -1    0    0  501    0 -0.00000000000E+00 -0.00000000000E+00 -0.27025579244E+03  0.27025579244E+03  0.00000000000E+00 0. -1.
         25    2    1    2    0    0 -0.62907027624E+02 -0.79698392426E+02  0.32886679907E+03  0.36618254063E+03  0.12500861430E+03 0.  0.
          2    1    1    2  501    0  0.35705254901E+02  0.48835281140E+02 -0.24626201598E+03  0.25358377398E+03  0.00000000000E+00 0. -1.
          1    1    1    2  502    0  0.27201772723E+02  0.30863111285E+02  0.25092812541E+03  0.25427817877E+03  0.00000000000E+00 0. -1.
         22    1    3    3    0    0 -0.16674304835E+02 -0.16018913260E+02  0.26170953021E+03  0.26272897866E+03  0.00000000000E+00 0.  1.
         22    1    3    3    0    0 -0.46232722789E+02 -0.63679479166E+02  0.67157268859E+02  0.10345356197E+03  0.00000000000E+00 0.  1.
</event>
<event>
 7    1  0.5064652E-006  0.3560568E+02  0.7818608E-02  0.1567202E+00
          2   -1    0    0  502    0  0.00000000000E+00  0.00000000000E+00  0.18433480524E+03  0.18433480524E+03  0.00000000000E+00 0. -1.
          1   -1    0    0  501    0 -0.00000000000E+00 -0.00000000000E+00 -0.60982407152E+03  0.60982407152E+03  0.00000000000E+00 0. -1.
         25    2    1    2    0    0  0.47026724470E+02 -0.35214212305E+01 -0.46768348328E+03  0.48638929996E+03  0.12499118913E+03 0.  0.
          2    1    1    2  501    0 -0.18266567514E+02  0.24510011981E+02 -0.12917409047E+03  0.13274168081E+03  0.00000000000E+00 0. -1.
          1    1    1    2  502    0 -0.28760156956E+02 -0.20988590750E+02  0.17136830747E+03  0.17502789599E+03  0.00000000000E+00 0. -1.
         22    1    3    3    0    0  0.84880301122E+02 -0.25233360846E+02 -0.27854283978E+03  0.29227983443E+03  0.00000000000E+00 0.  1.
         22    1    3    3    0    0 -0.37853576652E+02  0.21711939616E+02 -0.18914064350E+03  0.19410946553E+03  0.00000000000E+00 0.  1.
</event>
<event>
 7    1  0.5064652E-006  0.4244766E+02  0.7818608E-02  0.1495680E+00
          2   -1    0    0  502    0  0.00000000000E+00  0.00000000000E+00  0.54574791372E+03  0.54574791372E+03  0.00000000000E+00 0. -1.
          1   -1    0    0  501    0 -0.00000000000E+00 -0.00000000000E+00 -0.90932971811E+03  0.90932971811E+03  0.00000000000E+00 0. -1.
         25    2    1    2    0    0  0.20254841511E+02  0.80361233333E+02 -0.27355723347E+03  0.31197002441E+03  0.12499419875E+03 0.  0.
          2    1    1    2  501    0 -0.54189119544E+01 -0.40714654861E+02 -0.61502917037E+03  0.61639916299E+03  0.00000000000E+00 0. -1.
          1    1    1    2  502    0 -0.14835929556E+02 -0.39646578471E+02  0.52500459945E+03  0.52670844443E+03  0.00000000000E+00 0. -1.
         22    1    3    3    0    0  0.22396563141E+02 -0.22715725571E+02 -0.13812240325E+03  0.14175827492E+03  0.00000000000E+00 0. -1.
         22    1    3    3    0    0 -0.21417216304E+01  0.10307695890E+03 -0.13543483022E+03  0.17021174949E+03  0.00000000000E+00 0. -1.
</event>
<event>
 7    1  0.5064652E-006  0.5959990E+02  0.7818608E-02  0.1453552E+00
          2   -1    0    0  502    0  0.00000000000E+00  0.00000000000E+00  0.14128027793E+04  0.14128027793E+04  0.00000000000E+00 0. -1.
          1   -1    0    0  501    0 -0.00000000000E+00 -0.00000000000E+00 -0.47736195172E+02  0.47736195172E+02  0.00000000000E+00 0. -1.
         25    2    1    2    0    0  0.92570115854E+02  0.18794226233E+02  0.93142811950E+03  0.94451336373E+03  0.12499881270E+03 0.  0.
          2    1    1    2  501    0 -0.58831662479E+02  0.17135544435E+01 -0.18862600238E+02  0.61805327170E+02  0.00000000000E+00 0. -1.
          1    1    1    2  502    0 -0.33738453375E+02 -0.20507780676E+02  0.45250106484E+03  0.45422028355E+03  0.00000000000E+00 0. -1.
         22    1    3    3    0    0  0.22841111710E+02  0.66053479412E+02  0.50825322702E+03  0.51303617933E+03  0.00000000000E+00 0.  1.
         22    1    3    3    0    0  0.69729004145E+02 -0.47259253179E+02  0.42317489248E+03  0.43147718440E+03  0.00000000000E+00 0.  1.
</event>
<event>
 7    1  0.5064652E-006  0.1174056E+03  0.7818608E-02  0.1313973E+00
          2   -1    0    0  502    0  0.00000000000E+00  0.00000000000E+00  0.34346524264E+03  0.34346524264E+03  0.00000000000E+00 0. -1.
          1   -1    0    0  501    0 -0.00000000000E+00 -0.00000000000E+00 -0.71022766174E+03  0.71022766174E+03  0.00000000000E+00 0. -1.
         25    2    1    2    0    0  0.17329668550E+03 -0.30314451483E+02 -0.18912859963E+03  0.28695954797E+03  0.12500179118E+03 0.  0.
          2    1    1    2  501    0 -0.59106297931E+02  0.19858284944E+02 -0.45883438498E+03  0.46305172365E+03  0.00000000000E+00 0. -1.
          1    1    1    2  502    0 -0.11419038757E+03  0.10456166539E+02  0.28120056551E+03  0.30368163276E+03  0.00000000000E+00 0. -1.
         22    1    3    3    0    0  0.15679201628E+03  0.16120592257E+02 -0.17537245206E+03  0.23579462845E+03  0.00000000000E+00 0.  1.
         22    1    3    3    0    0  0.16504669219E+02 -0.46435043741E+02 -0.13756147568E+02  0.51164919517E+02  0.00000000000E+00 0.  1.
</event>
<event>
 7    1  0.5064652E-006  0.7217157E+02  0.7818608E-02  0.1372678E+00
          2   -1    0    0  502    0  0.00000000000E+00  0.00000000000E+00  0.28814122822E+04  0.28814122822E+04  0.00000000000E+00 0. -1.
          1   -1    0    0  501    0 -0.00000000000E+00 -0.00000000000E+00 -0.27737721893E+03  0.27737721893E+03  0.00000000000E+00 0. -1.
         25    2    1    2    0    0 -0.42867274845E+02  0.12320137389E+03  0.97620131982E+01  0.18093280785E+03  0.12500080908E+03 0.  0.
          2    1    1    2  501    0  0.31866554991E+02 -0.52181390224E+02 -0.18644276977E+03  0.19621233705E+03  0.00000000000E+00 0. -1.
          1    1    1    2  502    0  0.11000719854E+02 -0.71019983670E+02  0.27807158199E+04  0.27816443563E+04  0.00000000000E+00 0. -1.
         22    1    3    3    0    0  0.18120546828E+02 -0.18654010643E+02  0.47833064659E+01  0.26442510303E+02  0.00000000000E+00 0. -1.
         22    1    3    3    0    0 -0.60987821672E+02  0.14185538454E+03  0.49787067324E+01  0.15449029754E+03  0.00000000000E+00 0. -1.
</event>
<event>
 7    1  0.5064652E-006  0.3853128E+02  0.7818608E-02  0.1581932E+00
          2   -1    0    0  502    0  0.00000000000E+00  0.00000000000E+00  0.55067804731E+03  0.55067804731E+03  0.00000000000E+00 0. -1.
          1   -1    0    0  501    0 -0.00000000000E+00 -0.00000000000E+00 -0.13029748396E+03  0.13029748396E+03  0.00000000000E+00 0. -1.
         25    2    1    2    0    0  0.85428658281E+01  0.26985347532E+02 -0.81412690388E+01  0.12842066116E+03  0.12499758563E+03 0.  0.
          2    1    1    2  501    0  0.15031712030E+02 -0.37405333275E+02 -0.55085757939E+02  0.68260911595E+02  0.00000000000E+00 0. -1.
          1    1    1    2  502    0 -0.23574577858E+02  0.10419985743E+02  0.48360759033E+03  0.48429395851E+03  0.00000000000E+00 0. -1.
         22    1    3    3    0    0  0.39978889364E+02 -0.82744856480E+01 -0.50523021796E+02  0.64956558090E+02  0.00000000000E+00 0.  1.
         22    1    3    3    0    0 -0.31436023536E+02  0.35259833180E+02  0.42381752757E+02  0.63464103069E+02  0.00000000000E+00 0.  1.
</event>
<event>
 7    1  0.5064652E-006  0.5362766E+02  0.7818608E-02  0.1445607E+00
          2   -1    0    0  502    0  0.00000000000E+00  0.00000000000E+00  0.68704089112E+03  0.68704089112E+03  0.00000000000E+00 0. -1.
          1   -1    0    0  501    0 -0.00000000000E+00 -0.00000000000E+00 -0.20776215541E+03  0.20776215541E+03  0.00000000000E+00 0. -1.
         25    2    1    2    0    0  0.88835633600E+02  0.25840071241E+02  0.23545111448E+03  0.28217425529E+03  0.12500241581E+03 0.  0.
          2    1    1    2  501    0 -0.46425277378E+02  0.30589325960E+01 -0.17989269538E+03  0.18581185457E+03  0.00000000000E+00 0. -1.
          1    1    1    2  502    0 -0.42410356222E+02 -0.28899003837E+02  0.42372031660E+03  0.42681693668E+03  0.00000000000E+00 0. -1.
         22    1    3    3    0    0  0.32888538557E+02 -0.32298578213E+02  0.16718129735E+02  0.49034171603E+02  0.00000000000E+00 0.  1.
         22    1    3    3    0    0  0.55947095043E+02  0.58138649455E+02  0.21873298474E+03  0.23314008368E+03  0.00000000000E+00 0.  1.
</event>
<event>
 7    1  0.5064652E-006  0.1356639E+03  0.7818608E-02  0.1311055E+00
          2   -1    0    0  502    0  0.00000000000E+00  0.00000000000E+00  0.25656274544E+04  0.25656274544E+04  0.00000000000E+00 0. -1.
          1   -1    0    0  501    0 -0.00000000000E+00 -0.00000000000E+00 -0.76818434147E+02  0.76818434147E+02  0.00000000000E+00 0. -1.
         25    2    1    2    0    0 -0.17852310096E+03 -0.32511663319E+02  0.90436366297E+03  0.93082011031E+03  0.12499974806E+03 0.  0.
          2    1    1    2  501    0  0.12452262096E+03  0.44900305852E+02  0.63126272789E+01  0.13252082802E+03  0.00000000000E+00 0. -1.
          1    1    1    2  502    0  0.54000479999E+02 -0.12388642533E+02  0.15781327300E+04  0.15791049503E+04  0.00000000000E+00 0. -1.
         22    1    3    3    0    0 -0.14969654939E+03 -0.75225888675E+02  0.64626952696E+03  0.66763185417E+03  0.00000000000E+00 0.  1.
         22    1    3    3    0    0 -0.28826551574E+02  0.42714225356E+02  0.25809413601E+03  0.26318825613E+03  0.00000000000E+00 0.  1.
</event>
<event>
 7    1  0.5064652E-006  0.3479588E+02  0.7818608E-02  0.1558440E+00
          2   -1    0    0  502    0  0.00000000000E+00  0.00000000000E+00  0.15180802290E+04  0.15180802290E+04  0.00000000000E+00 0. -1.
          1   -1    0    0  501    0 -0.00000000000E+00 -0.00000000000E+00 -0.29039888217E+03  0.29039888217E+03  0.00000000000E+00 0. -1.
         25    2    1    2    0    0 -0.17180855212E+02  0.36899861580E+02  0.10344432955E+03  0.16727845532E+03  0.12499828290E+03 0.  0.
          2    1    1    2  501    0 -0.16663911246E+02 -0.28551828148E+02 -0.25720401605E+03  0.25931987718E+03  0.00000000000E+00 0. -1.
          1    1    1    2  502    0  0.33844766459E+02 -0.83480334316E+01  0.13814410334E+04  0.13818807787E+04  0.00000000000E+00 0. -1.
         22    1    3    3    0    0  0.28533797297E+02 -0.20269133893E+02  0.84804547702E+02  0.91743265082E+02  0.00000000000E+00 0.  1.
         22    1    3    3    0    0 -0.45714652509E+02  0.57168995473E+02  0.18639781846E+02  0.75535190241E+02  0.00000000000E+00 0.  1.
</event>
<event>
 7    1  0.5064652E-006  0.1731840E+03  0.7818608E-02  0.1233364E+00
          2   -1    0    0  502    0  0.00000000000E+00  0.00000000000E+00  0.21182481103E+04  0.21182481103E+04  0.00000000000E+00 0. -1.
          1   -1    0    0  501    0 -0.00000000000E+00 -0.00000000000E+00 -0.36068683915E+03  0.36068683915E+03  0.00000000000E+00 0. -1.
         25    2    1    2    0    0  0.15742443172E+03 -0.14889244625E+03 -0.12808401327E+03  0.28103639634E+03  0.12499811741E+03 0.  0.
          2    1    1    2  501    0 -0.65963778304E+02  0.14085513135E+03 -0.11607473533E+03  0.19407403809E+03  0.00000000000E+00 0. -1.
          1    1    1    2  502    0 -0.91460653420E+02  0.80373149000E+01  0.20017200197E+04  0.20038245150E+04  0.00000000000E+00 0. -1.
         22    1    3    3    0    0 -0.14051291228E+02 -0.48981650995E+02 -0.35085967850E+02  0.61868134442E+02  0.00000000000E+00 0. -1.
         22    1    3    3    0    0  0.17147572295E+03 -0.99910795258E+02 -0.92998045420E+02  0.21916826190E+03  0.00000000000E+00 0. -1.
</event>
<event>
 7    1  0.5064652E-006  0.9504867E+02  0.7818608E-02  0.1450362E+00
          2   -1    0    0  502    0  0.00000000000E+00  0.00000000000E+00  0.17059878713E+03  0.17059878713E+03  0.00000000000E+00 0. -1.
          1   -1    0    0  501    0 -0.00000000000E+00 -0.00000000000E+00 -0.65187232354E+03  0.65187232354E+03  0.00000000000E+00 0. -1.
         25    2    1    2    0    0 -0.55427772291E+02  0.79064235745E+02 -0.12425389869E+03  0.20096699039E+03  0.12500123428E+03 0.  0.
          2    1    1    2  501    0  0.73162241524E+02 -0.60958263695E+02 -0.48335756626E+03  0.49264912499E+03  0.00000000000E+00 0. -1.
          1    1    1    2  502    0 -0.17734469232E+02 -0.18105972050E+02  0.12633792854E+03  0.12885499529E+03  0.00000000000E+00 0. -1.
         22    1    3    3    0    0 -0.65903442346E+02  0.70921900334E+02 -0.14618339509E+03  0.17533614762E+03  0.00000000000E+00 0. -1.
         22    1    3    3    0    0  0.10475670055E+02  0.81423354114E+01  0.21929496400E+02  0.25630842776E+02  0.00000000000E+00 0. -1.
</event>
<event>
 7    1  0.5064652E-006  0.1229741E+03  0.7818608E-02  0.1330204E+00
          2   -1    0    0  502    0  0.00000000000E+00  0.00000000000E+00  0.43209886476E+03  0.43209886476E+03  0.00000000000E+00 0. -1.
          1   -1    0    0  501    0 -0.00000000000E+00 -0.00000000000E+00 -0.16903509904E+04  0.16903509904E+04  0.00000000000E+00 0. -1.
         25    2    1    2    0    0 -0.10418920267E+03 -0.13114139095E+03  0.12901002914E+02  0.20939285303E+03  0.12500190659E+03 0.  0.
          2    1    1    2  501    0  0.21423305595E+02  0.46852564679E+02 -0.15808013515E+04  0.15816406146E+04  0.00000000000E+00 0. -1.
          1    1    1    2  502    0  0.82765897077E+02  0.84288826276E+02  0.30964822294E+03  0.33141638753E+03  0.00000000000E+00 0. -1.
         22    1    3    3    0    0 -0.65342791229E+02  0.63518154730E+01 -0.24395322541E+01  0.65696097624E+02  0.00000000000E+00 0.  1.
         22    1    3    3    0    0 -0.38846411442E+02 -0.13749320643E+03  0.15340535168E+02  0.14369675541E+03  0.00000000000E+00 0.  1.
</event>
<event>
 7    1  0.5064652E-006  0.8828095E+02  0.7818608E-02  0.1385395E+00
          2   -1    0    0  502    0  0.00000000000E+00  0.00000000000E+00  0.28135569726E+03  0.28135569726E+03  0.00000000000E+00 0. -1.
          1   -1    0    0  501    0 -0.00000000000E+00 -0.00000000000E+00 -0.20551740742E+04  0.20551740742E+04  0.00000000000E+00 0. -1.
         25    2    1    2    0    0  0.54576916950E+02 -0.38146502547E+02 -0.12600627134E+03  0.18957148164E+03  0.12500388280E+03 0.  0.
          2    1    1    2  501    0 -0.15020966339E+02 -0.42476165790E+02 -0.18890294120E+04  0.18895666100E+04  0.00000000000E+00 0. -1.
          1    1    1    2  502    0 -0.39555950611E+02  0.80622668337E+02  0.24121730647E+03  0.25739167978E+03  0.00000000000E+00 0. -1.
         22    1    3    3    0    0  0.89427091518E+02 -0.69613022054E+01 -0.10558334881E+03  0.13854063653E+03  0.00000000000E+00 0. -1.
         22    1    3    3    0    0 -0.34850174568E+02 -0.31185200342E+02 -0.20422922526E+02  0.51030845106E+02  0.00000000000E+00 0. -1.
</event>
<event>
 7    1  0.5064652E-006  0.1563812E+03  0.7818608E-02  0.1308494E+00
          2   -1    0    0  502    0  0.00000000000E+00  0.00000000000E+00  0.58523353991E+03  0.58523353991E+03  0.00000000000E+00 0. -1.
          1   -1    0    0  501    0 -0.00000000000E+00 -0.00000000000E+00 -0.30169346387E+04  0.30169346387E+04  0.00000000000E+00 0. -1.
         25    2    1    2    0    0 -0.19414343282E+03 -0.62466926401E+02 -0.29586188418E+01  0.23922132913E+03  0.12499720590E+03 0.  0.
          2    1    1    2  501    0  0.15024012062E+03  0.40272681609E+02 -0.28924539589E+04  0.28966331985E+04  0.00000000000E+00 0. -1.
          1    1    1    2  502    0  0.43903312200E+02  0.22194244792E+02  0.46371147894E+03  0.46631365091E+03  0.00000000000E+00 0. -1.
         22    1    3    3    0    0 -0.11503862817E+03 -0.66888290095E+02  0.51921907299E+02  0.14284191885E+03  0.00000000000E+00 0.  1.
         22    1    3    3    0    0 -0.79104804651E+02  0.44213636940E+01 -0.54880526141E+02  0.96379410277E+02  0.00000000000E+00 0.  1.
</event>
<event>
 7    1  0.5064652E-006  0.8193860E+02  0.7818608E-02  0.1359442E+00
          2   -1    0    0  502    0  0.00000000000E+00  0.00000000000E+00  0.52900011911E+03  0.52900011911E+03  0.00000000000E+00 0. -1.
          1   -1    0    0  501    0 -0.00000000000E+00 -0.00000000000E+00 -0.11694241505E+04  0.11694241505E+04  0.00000000000E+00 0. -1.
         25    2    1    2    0    0  0.46177495069E+02  0.68615122122E+02  0.12472828886E+03  0.19499287447E+03  0.12499871608E+03 0.  0.
          2    1    1    2  501    0 -0.79940248455E+02 -0.18860066231E+02 -0.11303432486E+04  0.11333234335E+04  0.00000000000E+00 0. -1.
          1    1    1    2  502    0  0.33762753386E+02 -0.49755055892E+02  0.36519092833E+03  0.37010796159E+03  0.00000000000E+00 0. -1.
         22    1    3    3    0    0 -0.41466530586E+02  0.40169968719E+02  0.48900912316E+02  0.75659756615E+02  0.00000000000E+00 0. -1.
         22    1    3    3    0    0  0.87644025655E+02  0.28445153403E+02  0.75827376539E+02  0.11933311786E+03  0.00000000000E+00 0. -1.
</event>
<event>
 7    1  0.5064652E-006  0.4888870E+02  0.7818608E-02  0.1499917E+00
          2   -1    0    0  502    0  0.00000000000E+00  0.00000000000E+00  0.48835586220E+03  0.48835586220E+03  0.00000000000E+00 0. -1.
          1   -1    0    0  501    0 -0.00000000000E+00 -0.00000000000E+00 -0.16478958048E+04  0.16478958048E+04  0.00000000000E+00 0. -1.
         25    2    1    2    0    0 -0.54088043459E+02 -0.63441901570E+02 -0.26442027326E+03  0.30412017508E+03  0.12498243340E+03 0.  0.
          2    1    1    2  501    0  0.22671158385E+02  0.26185083693E+02 -0.13621374691E+04  0.13625777500E+04  0.00000000000E+00 0. -1.
          1    1    1    2  502    0  0.31416885075E+02  0.37256817877E+02  0.46701779983E+03  0.46955374187E+03  0.00000000000E+00 0. -1.
         22    1    3    3    0    0 -0.65969239418E+02 -0.46009769329E+02 -0.64520447772E+02  0.10311026915E+03  0.00000000000E+00 0.  1.
         22    1    3    3    0    0  0.11881195959E+02 -0.17432132241E+02 -0.19989982549E+03  0.20100990593E+03  0.00000000000E+00 0.  1.
</event>
<event>
 7    1  0.5064652E-006  0.1686109E+03  0.7818608E-02  0.1197563E+00
          2   -1    0    0  502    0  0.00000000000E+00  0.00000000000E+00  0.23734433523E+03  0.23734433523E+03  0.00000000000E+00 0. -1.
          1   -1    0    0  501    0 -0.00000000000E+00 -0.00000000000E+00 -0.24521405256E+04  0.24521405256E+04  0.00000000000E+00 0. -1.
         25    2    1    2    0    0  0.12950986672E+02  0.12261252297E+03 -0.16762952027E+01  0.17558353552E+03  0.12500083655E+03 0.  0.
          2    1    1    2  501    0 -0.14670971316E+03 -0.89756010637E+02 -0.23281229730E+04  0.23344670610E+04  0.00000000000E+00 0. -1.
          1    1    1    2  502    0  0.13375872649E+03 -0.32856512332E+02  0.11500307782E+03  0.17943426435E+03  0.00000000000E+00 0. -1.
         22    1    3    3    0    0  0.24138108032E+01  0.11167544566E+02 -0.51718341101E+02  0.52965340936E+02  0.00000000000E+00 0.  1.
         22    1    3    3    0    0  0.10537175868E+02  0.11144497840E+03  0.50042045899E+02  0.12261819459E+03  0.00000000000E+00 0.  1.
</event>
<event>
 7    1  0.5064652E-006  0.1356145E+03  0.7818608E-02  0.1374246E+00
          2   -1    0    0  502    0  0.00000000000E+00  0.00000000000E+00  0.18399984984E+04  0.18399984984E+04  0.00000000000E+00 0. -1.
          1   -1    0    0  501    0 -0.00000000000E+00 -0.00000000000E+00 -0.67323711599E+03  0.67323711599E+03  0.00000000000E+00 0. -1.
         25    2    1    2    0    0  0.95960323730E+02  0.13537947049E+03  0.54476530140E+02  0.21477558074E+03  0.12499949195E+03 0.  0.
          2    1    1    2  501    0 -0.75627813715E+02 -0.11051243185E+03 -0.58537473956E+03  0.60049658577E+03  0.00000000000E+00 0. -1.
          1    1    1    2  502    0 -0.20332510015E+02 -0.24867038643E+02  0.16976595918E+04  0.16979634479E+04  0.00000000000E+00 0. -1.
         22    1    3    3    0    0  0.71775928253E+02  0.15767187229E+03  0.35626292701E+02  0.17686558715E+03  0.00000000000E+00 0.  1.
         22    1    3    3    0    0  0.24184395477E+02 -0.22292401798E+02  0.18850237439E+02  0.37909993591E+02  0.00000000000E+00 0.  1.
</event>
<event>
 7    1  0.5064652E-006  0.8001545E+02  0.7818608E-02  0.1444950E+00
          2   -1    0    0  502    0  0.00000000000E+00  0.00000000000E+00  0.12407738235E+04  0.12407738235E+04  0.00000000000E+00 0. -1.
          1   -1    0    0  501    0 -0.00000000000E+00 -0.00000000000E+00 -0.48499809587E+03  0.48499809587E+03  0.00000000000E+00 0. -1.
         25    2    1    2    0    0 -0.70443459418E+02 -0.74731664977E+02 -0.20414100128E+02  0.16306088408E+03  0.12500005483E+03 0.  0.
          2    1    1    2  501    0  0.65639022385E+02  0.43767298146E+02 -0.38909116930E+03  0.39700881057E+03  0.00000000000E+00 0. -1.
          1    1    1    2  502    0  0.48044370338E+01  0.30964366830E+02  0.11652809971E+04  0.11657022247E+04  0.00000000000E+00 0. -1.
         22    1    3    3    0    0 -0.22865021507E+02  0.34136680844E+02 -0.16230520764E+02  0.44176373684E+02  0.00000000000E+00 0.  1.
         22    1    3    3    0    0 -0.47578437911E+02 -0.10886834582E+03 -0.41835793642E+01  0.11888451040E+03  0.00000000000E+00 0.  1.
</event>
<event>
 7    1  0.5064652E-006  0.8296259E+02  0.7818608E-02  0.1464007E+00
          2   -1    0    0  502    0  0.00000000000E+00  0.00000000000E+00  0.14300065992E+04  0.14300065992E+04  0.00000000000E+00 0. -1.
          1   -1    0    0  501    0 -0.00000000000E+00 -0.00000000000E+00 -0.45076581992E+03  0.45076581992E+03  0.00000000000E+00 0. -1.
         25    2    1    2    0    0  0.11974952693E+02 -0.92258234437E+02 -0.32240303219E+03  0.35807985677E+03  0.12498994897E+03 0.  0.
          2    1    1    2  501    0 -0.24215104050E+02  0.10227223448E+02 -0.10772485692E+03  0.11088558140E+03  0.00000000000E+00 0. -1.
          1    1    1    2  502    0  0.12240151357E+02  0.82031010990E+02  0.14093686684E+04  0.14118069809E+04  0.00000000000E+00 0. -1.
         22    1    3    3    0    0  0.56068937308E+02 -0.18497713155E+02 -0.19992751777E+03  0.20846319455E+03  0.00000000000E+00 0.  1.
         22    1    3    3    0    0 -0.44093984615E+02 -0.73760521282E+02 -0.12247551442E+03  0.14961666221E+03  0.00000000000E+00 0.  1.
</event>
<event>
 7    1  0.5064652E-006  0.7104792E+02  0.7818608E-02  0.1396163E+00
          2   -1    0    0  502    0  0.00000000000E+00  0.00000000000E+00  0.79446296215E+03  0.79446296215E+03  0.00000000000E+00 0. -1.
          1   -1    0    0  501    0 -0.00000000000E+00 -0.00000000000E+00 -0.13357854516E+04  0.13357854516E+04  0.00000000000E+00 0. -1.
         25    2    1    2    0    0  0.51806295734E+02  0.27311657156E+02  0.29175733540E+03  0.32276479628E+03  0.12499980826E+03 0.  0.
          2    1    1    2  501    0 -0.26069218359E+02  0.44236772821E+02 -0.13168115915E+04  0.13178123022E+04  0.00000000000E+00 0. -1.
          1    1    1    2  502    0 -0.25737077376E+02 -0.71548429976E+02  0.48373176664E+03  0.48967131532E+03  0.00000000000E+00 0. -1.
         22    1    3    3    0    0  0.42810482417E+02 -0.39304820910E+02  0.69672841970E+02  0.90729880743E+02  0.00000000000E+00 0. -1.
         22    1    3    3    0    0  0.89958133175E+01  0.66616478066E+02  0.22208449343E+03  0.23203491554E+03  0.00000000000E+00 0. -1.
</event>
<event>
 7    1  0.5064652E-006  0.5978060E+02  0.7818608E-02  0.1476059E+00
          2   -1    0    0  502    0  0.00000000000E+00  0.00000000000E+00  0.14265010835E+04  0.14265010835E+04  0.00000000000E+00 0. -1.
          1   -1    0    0  501    0 -0.00000000000E+00 -0.00000000000E+00 -0.42215591014E+03  0.42215591014E+03  0.00000000000E+00 0. -1.
         25    2    1    2    0    0  0.63206926676E+02 -0.58383874007E+02 -0.30163163465E+03  0.33764665879E+03  0.12497932169E+03 0.  0.
          2    1    1    2  501    0 -0.95838075369E+01  0.32060964846E+02 -0.99134493995E+02  0.10462983673E+03  0.00000000000E+00 0. -1.
          1    1    1    2  502    0 -0.53623119139E+02  0.26322909161E+02  0.14051113020E+04  0.14063804981E+04  0.00000000000E+00 0. -1.
         22    1    3    3    0    0  0.38719618721E+02 -0.83201118586E+02 -0.11180242440E+03  0.14464237660E+03  0.00000000000E+00 0. -1.
         22    1    3    3    0    0  0.24487307955E+02  0.24817244579E+02 -0.18982921025E+03  0.19300428219E+03  0.00000000000E+00 0. -1.
</event>
<event>
 7    1  0.5064652E-006  0.6387139E+02  0.7818608E-02  0.1420732E+00
          2   -1    0    0  502    0  0.00000000000E+00  0.00000000000E+00  0.16814902883E+03  0.16814902883E+03  0.00000000000E+00 0. -1.
          1   -1    0    0  501    0 -0.00000000000E+00 -0.00000000000E+00 -0.87758811340E+03  0.87758811340E+03  0.00000000000E+00 0. -1.
         25    2    1    2    0    0  0.90258273220E+02 -0.24956701739E+02 -0.26230748904E+01  0.15620988722E+03  0.12500102198E+03 0.  0.
          2    1    1    2  501    0 -0.46739188520E+02  0.43051475003E+02 -0.79073221220E+03  0.79328142084E+03  0.00000000000E+00 0. -1.
          1    1    1    2  502    0 -0.43519084700E+02 -0.18094773264E+02  0.83916202511E+02  0.96245834177E+02  0.00000000000E+00 0. -1.
         22    1    3    3    0    0  0.35651350213E+02  0.13272712981E+02 -0.58126626398E+02  0.69468614340E+02  0.00000000000E+00 0. -1.
         22    1    3    3    0    0  0.54606923007E+02 -0.38229414720E+02  0.55503551508E+02  0.86741272876E+02  0.00000000000E+00 0. -1.
</event>
<event>
 7    1  0.5064652E-006  0.6316279E+02  0.7818608E-02  0.1411015E+00
          2   -1    0    0  502    0  0.00000000000E+00  0.00000000000E+00  0.21797287381E+03  0.21797287381E+03  0.00000000000E+00 0. -1.
          1   -1    0    0  501    0 -0.00000000000E+00 -0.00000000000E+00 -0.22889930023E+04  0.22889930023E+04  0.00000000000E+00 0. -1.
         25    2    1    2    0    0  0.17766912859E+02  0.84276664325E+02 -0.16702176705E+04  0.16771018727E+04  0.12500162037E+03 0.  0.
          2    1    1    2  501    0 -0.43854598608E+02 -0.26772324365E+02 -0.60958236253E+03  0.61174393326E+03  0.00000000000E+00 0. -1.
          1    1    1    2  502    0  0.26087685749E+02 -0.57504339960E+02  0.20877990456E+03  0.21812007017E+03  0.00000000000E+00 0. -1.
         22    1    3    3    0    0  0.28473651871E+01 -0.30623756171E+02 -0.56272174724E+03  0.56356160866E+03  0.00000000000E+00 0.  1.
         22    1    3    3    0    0  0.14919547672E+02  0.11490042050E+03 -0.11074959233E+04  0.11135402641E+04  0.00000000000E+00 0.  1.
</event>
<event>
 7    1  0.5064652E-006  0.6155603E+02  0.7818608E-02  0.1460585E+00
          2   -1    0    0  502    0  0.00000000000E+00  0.00000000000E+00  0.17382360803E+03  0.17382360803E+03  0.00000000000E+00 0. -1.
          1   -1    0    0  501    0 -0.00000000000E+00 -0.00000000000E+00 -0.93036632491E+03  0.93036632491E+03  0.00000000000E+00 0. -1.
         25    2    1    2    0    0  0.40472415829E+02  0.87634628262E+02 -0.46724499204E+03  0.49321487901E+03  0.12500075911E+03 0.  0.
          2    1    1    2  501    0 -0.91080795067E+01 -0.35155452185E+02 -0.44355751988E+03  0.44504172430E+03  0.00000000000E+00 0. -1.
          1    1    1    2  502    0 -0.31364336322E+02 -0.52479176077E+02  0.15425979504E+03  0.16593332963E+03  0.00000000000E+00 0. -1.
         22    1    3    3    0    0  0.64535677455E+02  0.13784757365E+00 -0.15112099921E+03  0.16432415850E+03  0.00000000000E+00 0.  1.
         22    1    3    3    0    0 -0.24063261626E+02  0.87496780688E+02 -0.31612399284E+03  0.32889072051E+03  0.00000000000E+00 0.  1.
</event>
<event>
 7    1  0.5064652E-006  0.6335038E+02  0.7818608E-02  0.1462979E+00
          2   -1    0    0  502    0  0.00000000000E+00  0.00000000000E+00  0.50690050107E+03  0.50690050107E+03  0.00000000000E+00 0. -1.
          1   -1    0    0  501    0 -0.00000000000E+00 -0.00000000000E+00 -0.86505574853E+03  0.86505574853E+03  0.00000000000E+00 0. -1.
         25    2    1    2    0    0  0.71358614831E+02  0.25872960533E+02 -0.15995143458E+03  0.21672742439E+03  0.12499941225E+03 0.  0.
          2    1    1    2  501    0 -0.28093459245E+02  0.20335064430E+02 -0.67417515562E+03  0.67506658765E+03  0.00000000000E+00 0. -1.
          1    1    1    2  502    0 -0.43265155586E+02 -0.46208024963E+02  0.47597134275E+03  0.48016223756E+03  0.00000000000E+00 0. -1.
         22    1    3    3    0    0  0.80984557571E+02 -0.30440300031E+02 -0.75856217324E+02  0.11506205342E+03  0.00000000000E+00 0.  1.
         22    1    3    3    0    0 -0.96259427402E+01  0.56313260565E+02 -0.84095217260E+02  0.10166537097E+03  0.00000000000E+00 0.  1.
</event>
<event>
 7    1  0.5064652E-006  0.2702463E+02  0.7818608E-02  0.1637971E+00
          2   -1    0    0  502    0  0.00000000000E+00  0.00000000000E+00  0.31062314602E+03  0.31062314602E+03  0.00000000000E+00 0. -1.
          1   -1    0    0  501    0 -0.00000000000E+00 -0.00000000000E+00 -0.16933414504E+04  0.16933414504E+04  0.00000000000E+00 0. -1.
         25    2    1    2    0    0 -0.52002205590E+02 -0.77198854713E+01 -0.54444858816E+03  0.56108209359E+03  0.12500009833E+03 0.  0.
          2    1    1    2  501    0  0.25010201600E+02  0.82677602291E+01 -0.11398208823E+04  0.11401252167E+04  0.00000000000E+00 0. -1.
          1    1    1    2  502    0  0.26992003990E+02 -0.54787475782E+00  0.30155116615E+03  0.30275728605E+03  0.00000000000E+00 0. -1.
         22    1    3    3    0    0  0.33629486581E+01  0.25874178305E+02 -0.41984051565E+03  0.42065049757E+03  0.00000000000E+00 0.  1.
         22    1    3    3    0    0 -0.55365154248E+02 -0.33594063776E+02 -0.12460807251E+03  0.14043159602E+03  0.00000000000E+00 0.  1.
</event>
<event>
 7    1  0.5064652E-006  0.1250358E+03  0.7818608E-02  0.1280457E+00
          2   -1    0    0  502    0  0.00000000000E+00  0.00000000000E+00  0.73400033448E+03  0.73400033448E+03  0.00000000000E+00 0. -1.
          1   -1    0    0  501    0 -0.00000000000E+00 -0.00000000000E+00 -0.53619904369E+03  0.53619904369E+03  0.00000000000E+00 0. -1.
         25    2    1    2    0    0 -0.11851098994E+03  0.12379101267E+02 -0.31729883762E+02  0.17559020699E+03  0.12500815327E+03 0.  0.
          2    1    1    2  501    0  0.93726129631E+02 -0.88290126370E+02 -0.42045830024E+03  0.43973277798E+03  0.00000000000E+00 0. -1.
          1    1    1    2  502    0  0.24784860313E+02  0.75911025103E+02  0.64998947479E+03  0.65487639320E+03  0.00000000000E+00 0. -1.
         22    1    3    3    0    0 -0.26117076877E+02 -0.48596489835E+02 -0.34111525677E+02  0.64863832086E+02  0.00000000000E+00 0. -1.
         22    1    3    3    0    0 -0.92393913066E+02  0.60975591102E+02  0.23816419150E+01  0.11072637491E+03  0.00000000000E+00 0. -1.
</event>
<event>
 7    1  0.5064652E-006  0.1315022E+03  0.7818608E-02  0.1258378E+00
          2   -1    0    0  502    0  0.00000000000E+00  0.00000000000E+00  0.69579961664E+03  0.69579961664E+03  0.00000000000E+00 0. -1.
          1   -1    0    0  501    0 -0.00000000000E+00 -0.00000000000E+00 -0.18509750673E+04  0.18509750673E+04  0.00000000000E+00 0. -1.
         25    2    1    2    0    0 -0.50880152340E+02  0.81518197603E+01  0.40139165415E+02  0.14101857013E+03  0.12497936811E+03 0.  0.
          2    1    1    2  501    0 -0.90956384037E+02  0.23802761631E+02 -0.17905523656E+04  0.17930190766E+04  0.00000000000E+00 0. -1.
          1    1    1    2  502    0  0.14183653638E+03 -0.31954581392E+02  0.59523774949E+03  0.61273703719E+03  0.00000000000E+00 0. -1.
         22    1    3    3    0    0 -0.86856717052E+02  0.31362244600E+02  0.26136125251E+02  0.95972791595E+02  0.00000000000E+00 0.  1.
         22    1    3    3    0    0  0.35976564712E+02 -0.23210424840E+02  0.14003040164E+02  0.45045778532E+02  0.00000000000E+00 0.  1.
</event>
<event>
 7    1  0.5064652E-006  0.3721075E+02  0.7818608E-02  0.1570144E+00
          2   -1    0    0  502    0  0.00000000000E+00  0.00000000000E+00  0.16388311131E+03  0.16388311131E+03  0.00000000000E+00 0. -1.
          1   -1    0    0  501    0 -0.00000000000E+00 -0.00000000000E+00 -0.91386950165E+03  0.91386950165E+03  0.00000000000E+00 0. -1.
         25    2    1    2    0    0 -0.18101770817E+01 -0.34699549333E+02 -0.44377124727E+03  0.46234634165E+03  0.12499553700E+03 0.  0.
          2    1    1    2  501    0  0.28880064684E+02  0.25119228426E+02 -0.45867324743E+03  0.46026751100E+03  0.00000000000E+00 0. -1.
          1    1    1    2  502    0 -0.27069887602E+02  0.95803209070E+01  0.15245810436E+03  0.15513876030E+03  0.00000000000E+00 0. -1.
         22    1    3    3    0    0  0.28242024989E+02 -0.10871407157E+02 -0.41038119489E+03  0.41149547335E+03  0.00000000000E+00 0.  1.
         22    1    3    3    0    0 -0.30052202071E+02 -0.23828142176E+02 -0.33390052378E+02  0.50850868298E+02  0.00000000000E+00 0.  1.
</event>
<event>
 7    1  0.5064652E-006  0.6663022E+02  0.7818608E-02  0.1408125E+00
          2   -1    0    0  502    0  0.00000000000E+00  0.00000000000E+00  0.29183151963E+03  0.29183151963E+03  0.00000000000E+00 0. -1.
          1   -1    0    0  501    0 -0.00000000000E+00 -0.00000000000E+00 -0.75764213971E+03  0.75764213971E+03  0.00000000000E+00 0. -1.
         25    2    1    2    0    0 -0.40698259030E+02  0.68350843153E+02 -0.12345832443E+03  0.19285852930E+03  0.12499707358E+03 0.  0.
          2    1    1    2  501    0 -0.21753870780E+02 -0.44817833097E+02 -0.59409297859E+03  0.59617810784E+03  0.00000000000E+00 0. -1.
          1    1    1    2  502    0  0.62452129810E+02 -0.23533010056E+02  0.25174068294E+03  0.26043702219E+03  0.00000000000E+00 0. -1.
         22    1    3    3    0    0  0.32264576844E+02  0.60905340773E+02 -0.33036697202E+02  0.76432236757E+02  0.00000000000E+00 0.  1.
         22    1    3    3    0    0 -0.72962835874E+02  0.74455023798E+01 -0.90421627230E+02  0.11642629254E+03  0.00000000000E+00 0.  1.
</event>
<event>
 7    1  0.5064652E-006  0.1069545E+03  0.7818608E-02  0.1301191E+00
          2   -1    0    0  502    0  0.00000000000E+00  0.00000000000E+00  0.31180635908E+03  0.31180635908E+03  0.00000000000E+00 0. -1.
          1   -1    0    0  501    0 -0.00000000000E+00 -0.00000000000E+00 -0.27642281375E+03  0.27642281375E+03  0.00000000000E+00 0. -1.
         25    2    1    2    0    0  0.16272640193E+03  0.49822379754E+02 -0.83469013925E+01  0.21132052375E+03  0.12499816634E+03 0.  0.
          2    1    1    2  501    0 -0.97560873083E+02 -0.89966402855E+01 -0.14392555844E+03  0.17410809822E+03  0.00000000000E+00 0. -1.
          1    1    1    2  502    0 -0.65165528843E+02 -0.40825739469E+02  0.18765600517E+03  0.20280055086E+03  0.00000000000E+00 0. -1.
         22    1    3    3    0    0  0.67866818901E+02  0.74457514473E+02  0.31451805132E+02  0.10554166294E+03  0.00000000000E+00 0.  1.
         22    1    3    3    0    0  0.94859583025E+02 -0.24635134719E+02 -0.39798706525E+02  0.10577886082E+03  0.00000000000E+00 0.  1.
</event>
<event>
 7    1  0.5064652E-006  0.1058417E+03  0.7818608E-02  0.1365407E+00
          2   -1    0    0  502    0  0.00000000000E+00  0.00000000000E+00  0.40762461556E+03  0.40762461556E+03  0.00000000000E+00 0. -1.
          1   -1    0    0  501    0 -0.00000000000E+00 -0.00000000000E+00 -0.26751272186E+04  0.26751272186E+04  0.00000000000E+00 0. -1.
         25    2    1    2    0    0  0.35613729993E+02 -0.95947242590E+02  0.13447189602E+03  0.21019483492E+03  0.12499986673E+03 0.  0.
          2    1    1    2  501    0  0.40608814582E+02  0.17658194149E+02 -0.26243834926E+04  0.26247570561E+04  0.00000000000E+00 0. -1.
          1    1    1    2  502    0 -0.76222544576E+02  0.78289048441E+02  0.22240899351E+03  0.24779994310E+03  0.00000000000E+00 0. -1.
         22    1    3    3    0    0 -0.19411615933E+02 -0.10269094830E+02  0.10046971117E+03  0.10284176197E+03  0.00000000000E+00 0.  1.
         22    1    3    3    0    0  0.55025345926E+02 -0.85678147760E+02  0.34002184849E+02  0.10735307295E+03  0.00000000000E+00 0.  1.
</event>
<event>
 7    1  0.5064652E-006  0.1814331E+03  0.7818608E-02  0.1363338E+00
          2   -1    0    0  502    0  0.00000000000E+00  0.00000000000E+00  0.79605176859E+02  0.79605176859E+02  0.00000000000E+00 0. -1.
          1   -1    0    0  501    0 -0.00000000000E+00 -0.00000000000E+00 -0.30813667549E+04  0.30813667549E+04  0.00000000000E+00 0. -1.
         25    2    1    2    0    0 -0.45641566339E+02  0.19408748685E+03 -0.10465647443E+04  0.10726953572E+04  0.12499784061E+03 0.  0.
          2    1    1    2  501    0  0.20548617752E+02 -0.16386676874E+02 -0.19004730964E+04  0.19006548238E+04  0.00000000000E+00 0. -1.
          1    1    1    2  502    0  0.25092948587E+02 -0.17770080998E+03 -0.54723737240E+02  0.18762175075E+03  0.00000000000E+00 0. -1.
         22    1    3    3    0    0  0.18621140542E+02  0.13841494898E+03 -0.48420255709E+03  0.50394202173E+03  0.00000000000E+00 0. -1.
         22    1    3    3    0    0 -0.64262706881E+02  0.55672537869E+02 -0.56236218725E+03  0.56875333548E+03  0.00000000000E+00 0. -1.
</event>
<event>
 7    1  0.5064652E-006  0.6683403E+02  0.7818608E-02  0.1377423E+00
          2   -1    0    0  502    0  0.00000000000E+00  0.00000000000E+00  0.10175475748E+04  0.10175475748E+04  0.00000000000E+00 0. -1.
          1   -1    0    0  501    0 -0.00000000000E+00 -0.00000000000E+00 -0.14870747984E+03  0.14870747984E+03  0.00000000000E+00 0. -1.
         25    2    1    2    0    0 -0.34375895570E+02  0.55095864509E+02  0.67425329818E+03  0.68880884831E+03  0.12499145138E+03 0.  0.
          2    1    1    2  501    0 -0.40240726470E+02 -0.53361700888E+02 -0.12904193522E+03  0.14532242853E+03  0.00000000000E+00 0. -1.
          1    1    1    2  502    0  0.74616622041E+02 -0.17341636211E+01  0.32362873202E+03  0.33212377783E+03  0.00000000000E+00 0. -1.
         22    1    3    3    0    0 -0.35121014195E+02  0.59540332569E+02  0.15710204116E+03  0.17163795669E+03  0.00000000000E+00 0. -1.
         22    1    3    3    0    0  0.74511862482E+00 -0.44444680603E+01  0.51715125702E+03  0.51717089162E+03  0.00000000000E+00 0. -1.
</event>
<event>
 7    1  0.5064652E-006  0.5751908E+02  0.7818608E-02  0.1461228E+00
          2   -1    0    0  502    0  0.00000000000E+00  0.00000000000E+00  0.17134670824E+04  0.17134670824E+04  0.00000000000E+00 0. -1.
          1   -1    0    0  501    0 -0.00000000000E+00 -0.00000000000E+00 -0.55631496592E+03  0.55631496592E+03  0.00000000000E+00 0. -1.
         25    2    1    2    0    0  0.10874572900E+02  0.60129350069E+02  0.56270789479E+03  0.57965404183E+03  0.12499935311E+03 0.  0.
          2    1    1    2  501    0  0.32392872123E+02 -0.21146089032E+02 -0.54641531437E+03  0.54778294152E+03  0.00000000000E+00 0. -1.
          1    1    1    2  502    0 -0.43267445022E+02 -0.38983261037E+02  0.11408595361E+04  0.11423450650E+04  0.00000000000E+00 0. -1.
         22    1    3    3    0    0 -0.17074022534E+02  0.86694041768E+02  0.48410647319E+03  0.49210411146E+03  0.00000000000E+00 0. -1.
         22    1    3    3    0    0  0.27948595434E+02 -0.26564691699E+02  0.78601421593E+02  0.87549930372E+02  0.00000000000E+00 0. -1.
</event>
<event>
 7    1  0.5064652E-006  0.6492418E+02  0.7818608E-02  0.1392460E+00
          2   -1    0    0  502    0  0.00000000000E+00  0.00000000000E+00  0.14973768295E+03  0.14973768295E+03  0.00000000000E+00 0. -1.
          1   -1    0    0  501    0 -0.00000000000E+00 -0.00000000000E+00 -0.55383045765E+03  0.55383045765E+03  0.00000000000E+00 0. -1.
         25    2    1    2    0    0 -0.11646270075E+02  0.48240027321E+02 -0.10852636034E+03  0.17282019236E+03  0.12500444854E+03 0.  0.
          2    1    1    2  501    0 -0.51933718905E+02 -0.25544603143E+02 -0.40121726736E+03  0.40537011919E+03  0.00000000000E+00 0. -1.
          1    1    1    2  502    0  0.63579988979E+02 -0.22695424178E+02  0.10565085300E+03  0.12537782905E+03  0.00000000000E+00 0. -1.
         22    1    3    3    0    0 -0.27001318241E+02 -0.37891051356E+02 -0.44730385360E+02  0.64541539601E+02  0.00000000000E+00 0. -1.
         22    1    3    3    0    0  0.15355048166E+02  0.86131078677E+02 -0.63795974985E+02  0.10827865276E+03  0.00000000000E+00 0. -1.
</event>
<event>
 7    1  0.5064652E-006  0.9156042E+02  0.7818608E-02  0.1416674E+00
          2   -1    0    0  502    0  0.00000000000E+00  0.00000000000E+00  0.13518118639E+04  0.13518118639E+04  0.00000000000E+00 0. -1.
          1   -1    0    0  501    0 -0.00000000000E+00 -0.00000000000E+00 -0.59601349777E+03  0.59601349777E+03  0.00000000000E+00 0. -1.
         25    2    1    2    0    0 -0.53927009612E+02 -0.35323936984E+02  0.44068131389E+03  0.46258023107E+03  0.12499818749E+03 0.  0.
          2    1    1    2  501    0 -0.30523898049E+02 -0.14798660299E+02 -0.58189018999E+03  0.58287811925E+03  0.00000000000E+00 0. -1.
          1    1    1    2  502    0  0.84450907661E+02  0.50122597283E+02  0.89700724226E+03  0.90236701138E+03  0.00000000000E+00 0. -1.
         22    1    3    3    0    0  0.29653018553E+02  0.18856837650E+01  0.31527454180E+02  0.43322484689E+02  0.00000000000E+00 0. -1.
         22    1    3    3    0    0 -0.83580028165E+02 -0.37209620749E+02  0.40915385971E+03  0.41925774638E+03  0.00000000000E+00 0. -1.
</event>
<event>
 7    1  0.5064652E-006  0.8974245E+02  0.7818608E-02  0.1319651E+00
          2   -1    0    0  502    0  0.00000000000E+00  0.00000000000E+00  0.84312952266E+03  0.84312952266E+03  0.00000000000E+00 0. -1.
          1   -1    0    0  501    0 -0.00000000000E+00 -0.00000000000E+00 -0.22793269730E+03  0.22793269730E+03  0.00000000000E+00 0. -1.
         25    2    1    2    0    0 -0.39544810490E+02  0.40197494883E+02  0.34349715634E+03  0.36985673095E+03  0.12499629748E+03 0.  0.
          2    1    1    2  501    0  0.75297726307E+02  0.48825801931E+02 -0.20033687681E+03  0.21951895301E+03  0.00000000000E+00 0. -1.
          1    1    1    2  502    0 -0.35752915818E+02 -0.89023296814E+02  0.47203654582E+03  0.48168653600E+03  0.00000000000E+00 0. -1.
         22    1    3    3    0    0 -0.47654487502E+02  0.54668915803E+02  0.88943776343E+02  0.11476339087E+03  0.00000000000E+00 0. -1.
         22    1    3    3    0    0  0.81096770124E+01 -0.14471420919E+02  0.25455338000E+03  0.25509334008E+03  0.00000000000E+00 0. -1.
</event>
<event>
 7    1  0.5064652E-006  0.6921087E+02  0.7818608E-02  0.1431037E+00
          2   -1    0    0  502    0  0.00000000000E+00  0.00000000000E+00  0.78806206637E+03  0.78806206637E+03  0.00000000000E+00 0. -1.
          1   -1    0    0  501    0 -0.00000000000E+00 -0.00000000000E+00 -0.63869493406E+02  0.63869493406E+02  0.00000000000E+00 0. -1.
         25    2    1    2    0    0  0.63837705321E+02 -0.32045497999E+02  0.52136003879E+03  0.54087226796E+03  0.12499741450E+03 0.  0.
          2    1    1    2  501    0 -0.35058337388E+02  0.60124106315E+02 -0.29267590969E+02  0.75502232164E+02  0.00000000000E+00 0. -1.
          1    1    1    2  502    0 -0.28779367933E+02 -0.28078608315E+02  0.23210012513E+03  0.23555705965E+03  0.00000000000E+00 0. -1.
         22    1    3    3    0    0 -0.34766832313E+02  0.64876211156E+01  0.18118501893E+03  0.18460453121E+03  0.00000000000E+00 0.  1.
         22    1    3    3    0    0  0.98604537633E+02 -0.38533119115E+02  0.34017501986E+03  0.35626773675E+03  0.00000000000E+00 0.  1.
</event>
<event>
 7    1  0.5064652E-006  0.3870411E+02  0.7818608E-02  0.1592324E+00
          2   -1    0    0  502    0  0.00000000000E+00  0.00000000000E+00  0.62297665896E+03  0.62297665896E+03  0.00000000000E+00 0. -1.
          1   -1    0    0  501    0 -0.00000000000E+00 -0.00000000000E+00 -0.36280505212E+03  0.36280505212E+03  0.00000000000E+00 0. -1.
         25    2    1    2    0    0  0.51124443844E+02  0.15812711014E+02  0.39640987304E+03  0.41908203986E+03  0.12500087239E+03 0.  0.
          2    1    1    2  501    0 -0.38399456355E+02  0.46293720918E+01 -0.34972602573E+03  0.35185827034E+03  0.00000000000E+00 0. -1.
          1    1    1    2  502    0 -0.12724987489E+02 -0.20442083106E+02  0.21348775952E+03  0.21484140088E+03  0.00000000000E+00 0. -1.
         22    1    3    3    0    0  0.16216197379E+02 -0.47640306437E+02  0.80174715569E+02  0.94660175741E+02  0.00000000000E+00 0.  1.
         22    1    3    3    0    0  0.34908246465E+02  0.63453017451E+02  0.31623515747E+03  0.32442186411E+03  0.00000000000E+00 0.  1.
</event>
<event>
 7    1  0.5064652E-006  0.1485321E+03  0.7818608E-02  0.1352468E+00
          2   -1    0    0  502    0  0.00000000000E+00  0.00000000000E+00  0.47037575797E+03  0.47037575797E+03  0.00000000000E+00 0. -1.
          1   -1    0    0  501    0 -0.00000000000E+00 -0.00000000000E+00 -0.58377199406E+03  0.58377199406E+03  0.00000000000E+00 0. -1.
         25    2    1    2    0    0 -0.26915999157E+02  0.13438240506E+03 -0.19834418096E+03  0.27156649315E+03  0.12499937713E+03 0.  0.
          2    1    1    2  501    0 -0.16554506372E+01 -0.15491680992E+03 -0.33083447174E+03  0.36531275122E+03  0.00000000000E+00 0. -1.
          1    1    1    2  502    0  0.28571449794E+02  0.20534404854E+02  0.41578241661E+03  0.41726850766E+03  0.00000000000E+00 0. -1.
         22    1    3    3    0    0 -0.21157195472E+02 -0.15614924329E+02 -0.67485262716E+02  0.72427297795E+02  0.00000000000E+00 0. -1.
         22    1    3    3    0    0 -0.57588036842E+01  0.14999732939E+03 -0.13085891824E+03  0.19913919536E+03  0.00000000000E+00 0. -1.
</event>
<event>
 7    1  0.5064652E-006  0.5533627E+02  0.7818608E-02  0.1496705E+00
          2   -1    0    0  502    0  0.00000000000E+00  0.00000000000E+00  0.21659721538E+03  0.21659721538E+03  0.00000000000E+00 0. -1.
          1   -1    0    0  501    0 -0.00000000000E+00 -0.00000000000E+00 -0.31291655858E+03  0.31291655858E+03  0.00000000000E+00 0. -1.
         25    2    1    2    0    0 -0.38548794199E+02  0.75687086503E+02  0.18743912269E+00  0.15112609898E+03  0.12499807223E+03 0.  0.
          2    1    1    2  501    0  0.20619698576E+02 -0.50049533900E+02 -0.23256372731E+03  0.23878026525E+03  0.00000000000E+00 0. -1.
          1    1    1    2  502    0  0.17929095623E+02 -0.25637552604E+02  0.13605694499E+03  0.13960740974E+03  0.00000000000E+00 0. -1.
         22    1    3    3    0    0  0.45390495241E+01  0.70327198871E+01  0.53473142013E+02  0.54124292479E+02  0.00000000000E+00 0.  1.
         22    1    3    3    0    0 -0.43087843723E+02  0.68654366616E+02 -0.53285702890E+02  0.97001806502E+02  0.00000000000E+00 0.  1.
</event>
<event>
 7    1  0.5064652E-006  0.5615633E+02  0.7818608E-02  0.1438132E+00
          2   -1    0    0  502    0  0.00000000000E+00  0.00000000000E+00  0.51014695050E+02  0.51014695050E+02  0.00000000000E+00 0. -1.
          1   -1    0    0  501    0 -0.00000000000E+00 -0.00000000000E+00 -0.13823349757E+04  0.13823349757E+04  0.00000000000E+00 0. -1.
         25    2    1    2    0    0 -0.42206651585E+00  0.34112127260E+02 -0.25082702917E+03  0.28231822209E+03  0.12500225836E+03 0.  0.
          2    1    1    2  501    0 -0.46940851541E+02  0.18353314131E+01 -0.10898309401E+04  0.10908429263E+04  0.00000000000E+00 0. -1.
          1    1    1    2  502    0  0.47362918057E+02 -0.35947458673E+02  0.93376885956E+01  0.60188522330E+02  0.00000000000E+00 0. -1.
         22    1    3    3    0    0  0.21179963530E+02  0.60021176870E+02 -0.23777760069E+03  0.24614897912E+03  0.00000000000E+00 0. -1.
         22    1    3    3    0    0 -0.21602030045E+02 -0.25909049610E+02 -0.13049428481E+02  0.36169242976E+02  0.00000000000E+00 0. -1.
</event>
<event>
 7    1  0.5064652E-006  0.1240627E+03  0.7818608E-02  0.1325570E+00
          2   -1    0    0  502    0  0.00000000000E+00  0.00000000000E+00  0.77650080054E+03  0.77650080054E+03  0.00000000000E+00 0. -1.
          1   -1    0    0  501    0 -0.00000000000E+00 -0.00000000000E+00 -0.65619183591E+03  0.65619183591E+03  0.00000000000E+00 0. -1.
         25    2    1    2    0    0  0.54986630717E+02  0.13388435569E+03  0.29387883264E+03  0.35062746078E+03  0.12500519078E+03 0.  0.
          2    1    1    2  501    0  0.26912663324E+02 -0.45888159565E+02 -0.61870290116E+03  0.62098574424E+03  0.00000000000E+00 0. -1.
          1    1    1    2  502    0 -0.81899294041E+02 -0.87996196126E+02  0.44513303315E+03  0.46107943144E+03  0.00000000000E+00 0. -1.
         22    1    3    3    0    0  0.22676437612E+02  0.25469186138E+02  0.20208819176E+03  0.20494520612E+03  0.00000000000E+00 0.  1.
         22    1    3    3    0    0  0.32310193105E+02  0.10841516955E+03  0.91790640887E+02  0.14568225466E+03  0.00000000000E+00 0.  1.
</event>
<event>
 7    1  0.5064652E-006  0.6190277E+02  0.7818608E-02  0.1442435E+00
          2   -1    0    0  502    0  0.00000000000E+00  0.00000000000E+00  0.10973257134E+04  0.10973257134E+04  0.00000000000E+00 0. -1.
          1   -1    0    0  501    0 -0.00000000000E+00 -0.00000000000E+00 -0.20862733529E+02  0.20862733529E+02  0.00000000000E+00 0. -1.
         25    2    1    2    0    0 -0.23669823627E+02 -0.21091981132E+02  0.47650260507E+03  0.49364954051E+03  0.12502001432E+03 0.  0.
          2    1    1    2  501    0  0.30123306374E+02  0.61852054472E+02  0.91865580646E+02  0.11477096818E+03  0.00000000000E+00 0. -1.
          1    1    1    2  502    0 -0.64534827474E+01 -0.40760073340E+02  0.50809479417E+03  0.50976793826E+03  0.00000000000E+00 0. -1.
         22    1    3    3    0    0 -0.56129250005E+01 -0.66470387525E+02  0.15920622743E+03  0.17261645402E+03  0.00000000000E+00 0. -1.
         22    1    3    3    0    0 -0.18056898626E+02  0.45378406393E+02  0.31729637764E+03  0.32103308649E+03  0.00000000000E+00 0. -1.
</event>
<event>
 7    1  0.5064652E-006  0.7479296E+02  0.7818608E-02  0.1415709E+00
          2   -1    0    0  502    0  0.00000000000E+00  0.00000000000E+00  0.68793228745E+03  0.68793228745E+03  0.00000000000E+00 0. -1.
          1   -1    0    0  501    0 -0.00000000000E+00 -0.00000000000E+00 -0.29801956445E+04  0.29801956445E+04  0.00000000000E+00 0. -1.
         25    2    1    2    0    0  0.69206097729E+02 -0.92300756608E+02  0.61971347691E+02  0.18103198273E+03  0.12499286860E+03 0.  0.
          2    1    1    2  501    0 -0.38382958615E+02  0.64010114129E+02 -0.29194151592E+04  0.29203690551E+04  0.00000000000E+00 0. -1.
          1    1    1    2  502    0 -0.30823139114E+02  0.28290642479E+02  0.56518045449E+03  0.56672689409E+03  0.00000000000E+00 0. -1.
         22    1    3    3    0    0  0.91204024747E+02 -0.50849615125E+02  0.79182632741E+02  0.13104864294E+03  0.00000000000E+00 0. -1.
         22    1    3    3    0    0 -0.21997927018E+02 -0.41451141483E+02 -0.17211285049E+02  0.49983339788E+02  0.00000000000E+00 0. -1.
</event>
<event>
 7    1  0.5064652E-006  0.4126784E+02  0.7818608E-02  0.1561393E+00
          2   -1    0    0  502    0  0.00000000000E+00  0.00000000000E+00  0.51865923636E+02  0.51865923636E+02  0.00000000000E+00 0. -1.
          1   -1    0    0  501    0 -0.00000000000E+00 -0.00000000000E+00 -0.12431763327E+04  0.12431763327E+04  0.00000000000E+00 0. -1.
         25    2    1    2    0    0  0.27953225031E+02  0.61300345050E+02 -0.28009691627E+03  0.31403644514E+03  0.12500196510E+03 0.  0.
          2    1    1    2  501    0 -0.13793976252E+02 -0.23625254479E+02 -0.93423732063E+03  0.93463778957E+03  0.00000000000E+00 0. -1.
          1    1    1    2  502    0 -0.14159248779E+02 -0.37675090571E+02  0.23023827878E+02  0.46368021585E+02  0.00000000000E+00 0. -1.
         22    1    3    3    0    0  0.65665620628E+02  0.41221859806E+02 -0.25007673876E+03  0.26181976764E+03  0.00000000000E+00 0. -1.
         22    1    3    3    0    0 -0.37712395597E+02  0.20078485244E+02 -0.30020177508E+02  0.52216677498E+02  0.00000000000E+00 0. -1.
</event>
<event>
 7    1  0.5064652E-006  0.1506429E+03  0.7818608E-02  0.1397074E+00
          2   -1    0    0  502    0  0.00000000000E+00  0.00000000000E+00  0.55852569671E+03  0.55852569671E+03  0.00000000000E+00 0. -1.
          1   -1    0    0  501    0 -0.00000000000E+00 -0.00000000000E+00 -0.13103369287E+04  0.13103369287E+04  0.00000000000E+00 0. -1.
         25    2    1    2    0    0 -0.11853538503E+03  0.78551011350E+02  0.11535794264E+03  0.22170351024E+03  0.12499637048E+03 0.  0.
          2    1    1    2  501    0  0.11161301519E+03 -0.10157470884E+03 -0.12522588952E+04  0.12613196372E+04  0.00000000000E+00 0. -1.
          1    1    1    2  502    0  0.69223698429E+01  0.23023697487E+02  0.38508972057E+03  0.38583947795E+03  0.00000000000E+00 0. -1.
         22    1    3    3    0    0 -0.60719312241E+02 -0.19498617912E+02  0.80417290324E+02  0.10263513805E+03  0.00000000000E+00 0.  1.
         22    1    3    3    0    0 -0.57816072792E+02  0.98049629262E+02  0.34940652320E+02  0.11906837219E+03  0.00000000000E+00 0.  1.
</event>
<event>
 7    1  0.5064652E-006  0.5066138E+02  0.7818608E-02  0.1520475E+00
          2   -1    0    0  502    0  0.00000000000E+00  0.00000000000E+00  0.42679184240E+03  0.42679184240E+03  0.00000000000E+00 0. -1.
          1   -1    0    0  501    0 -0.00000000000E+00 -0.00000000000E+00 -0.64331809999E+03  0.64331809999E+03  0.00000000000E+00 0. -1.
         25    2    1    2    0    0  0.77768880418E+02  0.14776571653E+02 -0.24070102388E+03  0.28253775555E+03  0.12499701831E+03 0.  0.
          2    1    1    2  501    0 -0.27587656116E+02 -0.91878197664E+01 -0.37957018366E+03  0.38068230734E+03  0.00000000000E+00 0. -1.
          1    1    1    2  502    0 -0.50181224302E+02 -0.55887518871E+01  0.40374494995E+03  0.40688987949E+03  0.00000000000E+00 0. -1.
         22    1    3    3    0    0  0.79592485288E+02  0.21597771020E+02 -0.60706070084E+02  0.10240436696E+03  0.00000000000E+00 0. -1.
         22    1    3    3    0    0 -0.18236048703E+01 -0.68211993662E+01 -0.17999495379E+03  0.18013338859E+03  0.00000000000E+00 0. -1.
</event>
<event>
 7    1  0.5064652E-006  0.7439867E+02  0.7818608E-02  0.1351443E+00
          2   -1    0    0  502    0  0.00000000000E+00  0.00000000000E+00  0.21315073785E+04  0.21315073785E+04  0.00000000000E+00 0. -1.
          1   -1    0    0  501    0 -0.00000000000E+00 -0.00000000000E+00 -0.13214844820E+02  0.13214844820E+02  0.00000000000E+00 0. -1.
         25    2    1    2    0    0 -0.34881936992E+02 -0.13513030878E+02  0.93937255059E+03  0.94839020438E+03  0.12499535765E+03 0.  0.
          2    1    1    2  501    0  0.63872255557E+02 -0.55005016619E+02  0.23819937759E+03  0.25267401997E+03  0.00000000000E+00 0. -1.
          1    1    1    2  502    0 -0.28990318566E+02  0.68518047496E+02  0.94072060553E+03  0.94365799900E+03  0.00000000000E+00 0. -1.
         22    1    3    3    0    0 -0.18116065478E+02  0.17245232202E+02  0.87284454017E+03  0.87320282934E+03  0.00000000000E+00 0. -1.
         22    1    3    3    0    0 -0.16765871514E+02 -0.30758263079E+02  0.66528010415E+02  0.75187375038E+02  0.00000000000E+00 0. -1.
</event>
<event>
 7    1  0.5064652E-006  0.1469187E+03  0.7818608E-02  0.1275105E+00
          2   -1    0    0  502    0  0.00000000000E+00  0.00000000000E+00  0.88748787612E+03  0.88748787612E+03  0.00000000000E+00 0. -1.
          1   -1    0    0  501    0 -0.00000000000E+00 -0.00000000000E+00 -0.32043869380E+03  0.32043869380E+03  0.00000000000E+00 0. -1.
         25    2    1    2    0    0 -0.13729270563E+03 -0.57976625557E+02 -0.11996660717E+03  0.22853331827E+03  0.12499965837E+03 0.  0.
          2    1    1    2  501    0  0.44095894391E+02 -0.56314254970E+02 -0.13042871678E+03  0.14875279283E+03  0.00000000000E+00 0. -1.
          1    1    1    2  502    0  0.93196811241E+02  0.11429088053E+03  0.81744450627E+03  0.83064045882E+03  0.00000000000E+00 0. -1.
         22    1    3    3    0    0 -0.64500232720E+02  0.24818233903E+02 -0.50623782482E+01  0.69295399764E+02  0.00000000000E+00 0.  1.
         22    1    3    3    0    0 -0.72792472913E+02 -0.82794859460E+02 -0.11490422892E+03  0.15923791851E+03  0.00000000000E+00 0.  1.
</event>
<event>
 7    1  0.5064652E-006  0.1940638E+03  0.7818608E-02  0.1272452E+00
          2   -1    0    0  502    0  0.00000000000E+00  0.00000000000E+00  0.14863060147E+03  0.14863060147E+03  0.00000000000E+00 0. -1.
          1   -1    0    0  501    0 -0.00000000000E+00 -0.00000000000E+00 -0.95267360513E+03  0.95267360513E+03  0.00000000000E+00 0. -1.
         25    2    1    2    0    0  0.22889063599E+02  0.15008079770E+03 -0.46409265363E+03  0.50403881181E+03  0.12499991035E+03 0.  0.
          2    1    1    2  501    0 -0.21565138875E+02  0.51190113756E+02 -0.38666965580E+03  0.39063909901E+03  0.00000000000E+00 0. -1.
          1    1    1    2  502    0 -0.13239247236E+01 -0.20127091146E+03  0.46719305769E+02  0.20662629578E+03  0.00000000000E+00 0. -1.
         22    1    3    3    0    0  0.54033233680E+02  0.15493788046E+03 -0.40680487638E+03  0.43865196294E+03  0.00000000000E+00 0.  1.
         22    1    3    3    0    0 -0.31144170082E+02 -0.48570827615E+01 -0.57287777254E+02  0.65386848874E+02  0.00000000000E+00 0.  1.
</event>
<event>
 7    1  0.5064652E-006  0.1563872E+03  0.7818608E-02  0.1258981E+00
          2   -1    0    0  502    0  0.00000000000E+00  0.00000000000E+00  0.25158265715E+04  0.25158265715E+04  0.00000000000E+00 0. -1.
          1   -1    0    0  501    0 -0.00000000000E+00 -0.00000000000E+00 -0.17234482311E+03  0.17234482311E+03  0.00000000000E+00 0. -1.
         25    2    1    2    0    0 -0.17626090598E+03  0.47775320244E+02  0.85012629245E+03  0.87845915139E+03  0.12500151734E+03 0.  0.
          2    1    1    2  501    0  0.11864616713E+03 -0.10122552376E+03 -0.11854375789E+03  0.19589829547E+03  0.00000000000E+00 0. -1.
          1    1    1    2  502    0  0.57614738854E+02  0.53450203516E+02  0.16118992138E+04  0.16138139477E+04  0.00000000000E+00 0. -1.
         22    1    3    3    0    0 -0.11671218287E+03  0.76960678472E+02  0.40569404267E+03  0.42910643892E+03  0.00000000000E+00 0. -1.
         22    1    3    3    0    0 -0.59548723110E+02 -0.29185358228E+02  0.44443224978E+03  0.44935271247E+03  0.00000000000E+00 0. -1.
</event>
<event>
 7    1  0.5064652E-006  0.1761926E+03  0.7818608E-02  0.1226839E+00
          2   -1    0    0  502    0  0.00000000000E+00  0.00000000000E+00  0.64975143471E+03  0.64975143471E+03  0.00000000000E+00 0. -1.
          1   -1    0    0  501    0 -0.00000000000E+00 -0.00000000000E+00 -0.97246276484E+03  0.97246276484E+03  0.00000000000E+00 0. -1.
         25    2    1    2    0    0  0.22204878972E+03 -0.15088195048E+02 -0.52584288273E+03  0.58452427183E+03  0.12499827356E+03 0.  0.
          2    1    1    2  501    0 -0.14164711542E+03  0.68513457149E+02 -0.39846023827E+03  0.42840233496E+03  0.00000000000E+00 0. -1.
          1    1    1    2  502    0 -0.80401674301E+02 -0.53425262101E+02  0.60159179087E+03  0.60928759277E+03  0.00000000000E+00 0. -1.
         22    1    3    3    0    0  0.16783989847E+02  0.59060403087E+00 -0.18907377419E+03  0.18981818462E+03  0.00000000000E+00 0.  1.
         22    1    3    3    0    0  0.20526479988E+03 -0.15678799078E+02 -0.33676910855E+03  0.39470608721E+03  0.00000000000E+00 0.  1.
</event>
<event>
 7    1  0.5064652E-006  0.7275978E+02  0.7818608E-02  0.1463292E+00
          2   -1    0    0  502    0  0.00000000000E+00  0.00000000000E+00  0.14141912037E+03  0.14141912037E+03  0.00000000000E+00 0. -1.
          1   -1    0    0  501    0 -0.00000000000E+00 -0.00000000000E+00 -0.86062110916E+03  0.86062110916E+03  0.00000000000E+00 0. -1.
         25    2    1    2    0    0 -0.39574018592E+02  0.89977201969E+02 -0.55294857815E+03  0.57536203839E+03  0.12500938095E+03 0.  0.
          2    1    1    2  501    0 -0.10175157400E+01 -0.30110355601E+02 -0.28556730526E+03  0.28715214553E+03  0.00000000000E+00 0. -1.
          1    1    1    2  502    0  0.40591534332E+02 -0.59866846369E+02  0.11931389461E+03  0.13952604560E+03  0.00000000000E+00 0. -1.
         22    1    3    3    0    0 -0.18459080195E+02  0.57020212143E+02 -0.75898595122E+02  0.96709042886E+02  0.00000000000E+00 0.  1.
         22    1    3    3    0    0 -0.21114938397E+02  0.32956989827E+02 -0.47704998303E+03  0.47865299551E+03  0.00000000000E+00 0.  1.
</event>
<event>
 7    1  0.5064652E-006  0.1001856E+03  0.7818608E-02  0.1454245E+00
          2   -1    0    0  502    0  0.00000000000E+00  0.00000000000E+00  0.10493086085E+03  0.10493086085E+03  0.00000000000E+00 0. -1.
          1   -1    0    0  501    0 -0.00000000000E+00 -0.00000000000E+00 -0.18447407445E+04  0.18447407445E+04  0.00000000000E+00 0. -1.
         25    2    1    2    0    0  0.12105622369E+03 -0.19821991075E+02 -0.37909746365E+02  0.17919033416E+03  0.12499802544E+03 0.  0.
          2    1    1    2  501    0 -0.98990768869E+02  0.12126083422E+02 -0.17305996060E+04  0.17334708565E+04  0.00000000000E+00 0. -1.
          1    1    1    2  502    0 -0.22065454818E+02  0.76959076522E+01  0.28699468686E+02  0.37010414666E+02  0.00000000000E+00 0. -1.
         22    1    3    3    0    0  0.59617143931E+02 -0.96011669459E+01 -0.82753478627E+02  0.10244278638E+03  0.00000000000E+00 0.  1.
         22    1    3    3    0    0  0.61439079755E+02 -0.10220824129E+02  0.44843732262E+02  0.76747547780E+02  0.00000000000E+00 0.  1.
</event>
<event>
 7    1  0.5064652E-006  0.1088969E+03  0.7818608E-02  0.1335183E+00
          2   -1    0    0  502    0  0.00000000000E+00  0.00000000000E+00  0.45941192628E+03  0.45941192628E+03  0.00000000000E+00 0. -1.
          1   -1    0    0  501    0 -0.00000000000E+00 -0.00000000000E+00 -0.40290587371E+03  0.40290587371E+03  0.00000000000E+00 0. -1.
         25    2    1    2    0    0  0.13883998643E+03 -0.65655515838E+02 -0.10660566421E+03  0.22489481460E+03  0.12500288556E+03 0.  0.
          2    1    1    2  501    0 -0.83987181760E+02  0.56005403462E+02 -0.22433098020E+03  0.24599764347E+03  0.00000000000E+00 0. -1.
          1    1    1    2  502    0 -0.54852804672E+02  0.96501123763E+01  0.38744269698E+03  0.39142534191E+03  0.00000000000E+00 0. -1.
         22    1    3    3    0    0  0.11038611405E+03 -0.77181913523E+02 -0.24059550276E+02  0.13682471966E+03  0.00000000000E+00 0. -1.
         22    1    3    3    0    0  0.28453872379E+02  0.11526397685E+02 -0.82546113931E+02  0.88070094936E+02  0.00000000000E+00 0. -1.
</event>
<event>
 7    1  0.5064652E-006  0.8231973E+02  0.7818608E-02  0.1361244E+00
          2   -1    0    0  502    0  0.00000000000E+00  0.00000000000E+00  0.61165368063E+03  0.61165368063E+03  0.00000000000E+00 0. -1.
          1   -1    0    0  501    0 -0.00000000000E+00 -0.00000000000E+00 -0.20384813207E+04  0.20384813207E+04  0.00000000000E+00 0. -1.
         25    2    1    2    0    0 -0.30366363925E+01 -0.25575775505E+02 -0.15803666060E+04  0.15855117320E+04  0.12500200598E+03 0.  0.
          2    1    1    2  501    0  0.22343082108E+02 -0.54553690845E+02 -0.45082590226E+03  0.45466395575E+03  0.00000000000E+00 0. -1.
          1    1    1    2  502    0 -0.19306445715E+02  0.80129466349E+02  0.60436486824E+03  0.60995931355E+03  0.00000000000E+00 0. -1.
         22    1    3    3    0    0 -0.57548228688E+01  0.18941106491E+02 -0.13840960478E+04  0.13842376072E+04  0.00000000000E+00 0.  1.
         22    1    3    3    0    0  0.27181864763E+01 -0.44516881995E+02 -0.19627055823E+03  0.20127412489E+03  0.00000000000E+00 0.  1.
</event>
<event>
 7    1  0.5064652E-006  0.6177289E+02  0.7818608E-02  0.1479929E+00
          2   -1    0    0  502    0  0.00000000000E+00  0.00000000000E+00  0.10433393478E+04  0.10433393478E+04  0.00000000000E+00 0. -1.
          1   -1    0    0  501    0 -0.00000000000E+00 -0.00000000000E+00 -0.15932397270E+04  0.15932397270E+04  0.00000000000E+00 0. -1.
         25    2    1    2    0    0 -0.56071085017E+02 -0.35225199142E+02 -0.30119301759E+03  0.33275764322E+03  0.12500253615E+03 0.  0.
          2    1    1    2  501    0  0.30629633333E+02  0.53812090902E+02 -0.12752715451E+04  0.12767738364E+04  0.00000000000E+00 0. -1.
          1    1    1    2  502    0  0.25441451684E+02 -0.18586891760E+02  0.10265641835E+04  0.10270475952E+04  0.00000000000E+00 0. -1.
         22    1    3    3    0    0 -0.96231416667E+02 -0.30712862211E+02 -0.21192769016E+03  0.23477033738E+03  0.00000000000E+00 0.  1.
         22    1    3    3    0    0  0.40160331650E+02 -0.45123369310E+01 -0.89265327436E+02  0.97987305837E+02  0.00000000000E+00 0.  1.
</event>
<event>
 7    1  0.5064652E-006  0.7677843E+02  0.7818608E-02  0.1345363E+00
          2   -1    0    0  502    0  0.00000000000E+00  0.00000000000E+00  0.38668802617E+04  0.38668802617E+04  0.00000000000E+00 0. -1.
          1   -1    0    0  501    0 -0.00000000000E+00 -0.00000000000E+00 -0.23697909857E+04  0.23697909857E+04  0.00000000000E+00 0. -1.
         25    2    1    2    0    0  0.31338996306E+02 -0.21699614779E+02  0.54585121947E+01  0.13080021888E+03  0.12500358368E+03 0.  0.
          2    1    1    2  501    0 -0.64656835285E+02 -0.42497904568E+02 -0.23061269856E+04  0.23074245930E+04  0.00000000000E+00 0. -1.
          1    1    1    2  502    0  0.33317838979E+02  0.64197519348E+02  0.37977577494E+04  0.37984464355E+04  0.00000000000E+00 0. -1.
         22    1    3    3    0    0 -0.15898185010E+02  0.13983202670E+02  0.51578983013E+02  0.55755481634E+02  0.00000000000E+00 0.  1.
         22    1    3    3    0    0  0.47237181316E+02 -0.35682817449E+02 -0.46120470818E+02  0.75044737246E+02  0.00000000000E+00 0.  1.
</event>
<event>
 7    1  0.5064652E-006  0.5324479E+02  0.7818608E-02  0.1521585E+00
          2   -1    0    0  502    0  0.00000000000E+00  0.00000000000E+00  0.42591382038E+03  0.42591382038E+03  0.00000000000E+00 0. -1.
          1   -1    0    0  501    0 -0.00000000000E+00 -0.00000000000E+00 -0.60733506185E+03  0.60733506185E+03  0.00000000000E+00 0. -1.
         25    2    1    2    0    0 -0.16043008380E+02  0.22923994081E+02  0.14730820831E+01  0.12809755446E+03  0.12499570339E+03 0.  0.
          2    1    1    2  501    0  0.40537544971E+02 -0.35341659024E+02 -0.54216837570E+03  0.54482921455E+03  0.00000000000E+00 0. -1.
          1    1    1    2  502    0 -0.24494536591E+02  0.12417664943E+02  0.35927405215E+03  0.36032211321E+03  0.00000000000E+00 0. -1.
         22    1    3    3    0    0 -0.36033355331E+02  0.60603736672E+02 -0.28411757104E+02  0.76016074200E+02  0.00000000000E+00 0.  1.
         22    1    3    3    0    0  0.19990346951E+02 -0.37679742591E+02  0.29884839187E+02  0.52081480261E+02  0.00000000000E+00 0.  1.
</event>
<event>
 7    1  0.5064652E-006  0.3571527E+02  0.7818608E-02  0.1549208E+00
          2   -1    0    0  502    0  0.00000000000E+00  0.00000000000E+00  0.35950765313E+03  0.35950765313E+03  0.00000000000E+00 0. -1.
          1   -1    0    0  501    0 -0.00000000000E+00 -0.00000000000E+00 -0.10268532808E+04  0.10268532808E+04  0.00000000000E+00 0. -1.
         25    2    1    2    0    0  0.32555428597E+02 -0.93525146013E+01  0.11744157458E+03  0.17482814902E+03  0.12500013116E+03 0.  0.
          2    1    1    2  501    0 -0.22341421235E+02 -0.25848065055E+02 -0.99629100123E+03  0.99687663264E+03  0.00000000000E+00 0. -1.
          1    1    1    2  502    0 -0.10214007362E+02  0.35200579656E+02  0.21150379895E+03  0.21465615231E+03  0.00000000000E+00 0. -1.
         22    1    3    3    0    0  0.65879861658E+02  0.34220026775E+02  0.60560524199E+02  0.95805759200E+02  0.00000000000E+00 0.  1.
         22    1    3    3    0    0 -0.33324433060E+02 -0.43572541377E+02  0.56881050381E+02  0.79022389822E+02  0.00000000000E+00 0.  1.
</event>
<event>
 7    1  0.5064652E-006  0.9593383E+02  0.7818608E-02  0.1321507E+00
          2   -1    0    0  502    0  0.00000000000E+00  0.00000000000E+00  0.11805862600E+04  0.11805862600E+04  0.00000000000E+00 0. -1.
          1   -1    0    0  501    0 -0.00000000000E+00 -0.00000000000E+00 -0.42260445564E+02  0.42260445564E+02  0.00000000000E+00 0. -1.
         25    2    1    2    0    0  0.72934172708E+02  0.37758577832E+02  0.82026393385E+03  0.83378686260E+03  0.12499002885E+03 0.  0.
          2    1    1    2  501    0  0.10697090450E+02  0.70517942940E+02  0.46971511278E+02  0.85402171473E+02  0.00000000000E+00 0. -1.
          1    1    1    2  502    0 -0.83631263159E+02 -0.10827652077E+03  0.27109036933E+03  0.30365767152E+03  0.00000000000E+00 0. -1.
         22    1    3    3    0    0 -0.18131951647E+02 -0.28716352073E+02  0.26703183518E+03  0.26918283293E+03  0.00000000000E+00 0.  1.
         22    1    3    3    0    0  0.91066124355E+02  0.66474929905E+02  0.55323209868E+03  0.56460402967E+03  0.00000000000E+00 0.  1.
</event>
<event>
 7    1  0.5064652E-006  0.2306930E+03  0.7818608E-02  0.1217108E+00
          2   -1    0    0  502    0  0.00000000000E+00  0.00000000000E+00  0.87394151187E+03  0.87394151187E+03  0.00000000000E+00 0. -1.
          1   -1    0    0  501    0 -0.00000000000E+00 -0.00000000000E+00 -0.12947053311E+03  0.12947053311E+03  0.00000000000E+00 0. -1.
         25    2    1    2    0    0 -0.16369427801E+03 -0.14071959228E+03  0.22438177894E+03  0.33551371639E+03  0.12499780342E+03 0.  0.
          2    1    1    2  501    0  0.22974591226E+03  0.92753880247E+02  0.15157301952E+03  0.29044938758E+03  0.00000000000E+00 0. -1.
          1    1    1    2  502    0 -0.66051634244E+02  0.47965712038E+02  0.36851618031E+03  0.37744894101E+03  0.00000000000E+00 0. -1.
         22    1    3    3    0    0 -0.47536905028E+02  0.69320529273E+01  0.75700943888E+01  0.48632468851E+02  0.00000000000E+00 0.  1.
         22    1    3    3    0    0 -0.11615737298E+03 -0.14765164521E+03  0.21681168455E+03  0.28688124754E+03  0.00000000000E+00 0.  1.
</event>
<event>
 7    1  0.5064652E-006  0.2126493E+03  0.7818608E-02  0.1273661E+00
          2   -1    0    0  502    0  0.00000000000E+00  0.00000000000E+00  0.27303535050E+04  0.27303535050E+04  0.00000000000E+00 0. -1.
          1   -1    0    0  501    0 -0.00000000000E+00 -0.00000000000E+00 -0.54114829331E+03  0.54114829331E+03  0.00000000000E+00 0. -1.
         25    2    1    2    0    0 -0.10060884234E+03  0.18147406725E+03 -0.10782651615E+03  0.26515544015E+03  0.12500349440E+03 0.  0.
          2    1    1    2  501    0 -0.43538490651E+02 -0.24798676662E+02 -0.34858983035E+03  0.35217246393E+03  0.00000000000E+00 0. -1.
          1    1    1    2  502    0  0.14414733299E+03 -0.15667539059E+03  0.26456215582E+04  0.26541738942E+04  0.00000000000E+00 0. -1.
         22    1    3    3    0    0  0.18376829383E+02  0.25212888768E+01  0.89302873163E+01  0.20586762430E+02  0.00000000000E+00 0.  1.
         22    1    3    3    0    0 -0.11898567172E+03  0.17895277837E+03 -0.11675680347E+03  0.24456867772E+03  0.00000000000E+00 0.  1.
</event>
<event>
 7    1  0.5064652E-006  0.5278757E+02  0.7818608E-02  0.1519314E+00
          2   -1    0    0  502    0  0.00000000000E+00  0.00000000000E+00  0.10164510693E+04  0.10164510693E+04  0.00000000000E+00 0. -1.
          1   -1    0    0  501    0 -0.00000000000E+00 -0.00000000000E+00 -0.19922876522E+03  0.19922876522E+03  0.00000000000E+00 0. -1.
         25    2    1    2    0    0 -0.34737117573E+02  0.25257621460E+02  0.75631273774E+02  0.15228293106E+03  0.12500154695E+03 0.  0.
          2    1    1    2  501    0 -0.18241677713E+02 -0.21405386392E+02 -0.15888532559E+03  0.16135518604E+03  0.00000000000E+00 0. -1.
          1    1    1    2  502    0  0.52978795286E+02 -0.38522350684E+01  0.90047635589E+03  0.90204171743E+03  0.00000000000E+00 0. -1.
         22    1    3    3    0    0 -0.73518268568E+02  0.40959365228E+02  0.71150656572E+02  0.11020445247E+03  0.00000000000E+00 0. -1.
         22    1    3    3    0    0  0.38781150995E+02 -0.15701743768E+02  0.44806172017E+01  0.42078478589E+02  0.00000000000E+00 0. -1.
</event>
<event>
 7    1  0.5064652E-006  0.2885058E+03  0.7818608E-02  0.1303237E+00
          2   -1    0    0  502    0  0.00000000000E+00  0.00000000000E+00  0.43789926928E+03  0.43789926928E+03  0.00000000000E+00 0. -1.
          1   -1    0    0  501    0 -0.00000000000E+00 -0.00000000000E+00 -0.62291038494E+03  0.62291038494E+03  0.00000000000E+00 0. -1.
         25    2    1    2    0    0  0.76053201691E+02  0.26352865586E+03 -0.21935486907E+02  0.30222138043E+03  0.12500062103E+03 0.  0.
          2    1    1    2  501    0 -0.60899099991E+02 -0.28704568025E+03 -0.41326197302E+03  0.50684256064E+03  0.00000000000E+00 0. -1.
          1    1    1    2  502    0 -0.15154101700E+02  0.23517024393E+02  0.25018634426E+03  0.25174571315E+03  0.00000000000E+00 0. -1.
         22    1    3    3    0    0  0.52144255838E+02  0.26314227219E+03  0.21697390939E+01  0.26826775169E+03  0.00000000000E+00 0. -1.
         22    1    3    3    0    0  0.23908945853E+02  0.38638367180E+00 -0.24105226001E+02  0.33953628741E+02  0.00000000000E+00 0. -1.
</event>
<event>
 7    1  0.5064652E-006  0.2375312E+03  0.7818608E-02  0.1187193E+00
          2   -1    0    0  502    0  0.00000000000E+00  0.00000000000E+00  0.17175397461E+04  0.17175397461E+04  0.00000000000E+00 0. -1.
          1   -1    0    0  501    0 -0.00000000000E+00 -0.00000000000E+00 -0.12645243239E+04  0.12645243239E+04  0.00000000000E+00 0. -1.
         25    2    1    2    0    0  0.20483030607E+03 -0.23270101816E+03  0.75701607187E+03  0.82752854828E+03  0.12499978803E+03 0.  0.
          2    1    1    2  501    0 -0.98890744146E+02  0.47222373466E+02 -0.12144402870E+04  0.12193746523E+04  0.00000000000E+00 0. -1.
          1    1    1    2  502    0 -0.10593956192E+03  0.18547864469E+03  0.91043963740E+03  0.93516086946E+03  0.00000000000E+00 0. -1.
         22    1    3    3    0    0 -0.74476960839E+01 -0.30084988060E+02  0.28400218856E+02  0.42037448955E+02  0.00000000000E+00 0.  1.
         22    1    3    3    0    0  0.21227800215E+03 -0.20261603010E+03  0.72861585302E+03  0.78549109933E+03  0.00000000000E+00 0.  1.
</event>
<event>
 7    1  0.5064652E-006  0.3057179E+02  0.7818608E-02  0.1630892E+00
          2   -1    0    0  502    0  0.00000000000E+00  0.00000000000E+00  0.62406017737E+03  0.62406017737E+03  0.00000000000E+00 0. -1.
          1   -1    0    0  501    0 -0.00000000000E+00 -0.00000000000E+00 -0.69176442310E+03  0.69176442310E+03  0.00000000000E+00 0. -1.
         25    2    1    2    0    0  0.39876436562E+02 -0.12545615766E+02  0.22181329958E+03  0.25801667907E+03  0.12499577648E+03 0.  0.
          2    1    1    2  501    0 -0.10845046624E+02  0.21694018020E+02 -0.67284092154E+03  0.67327791524E+03  0.00000000000E+00 0. -1.
          1    1    1    2  502    0 -0.29031389938E+02 -0.91484022536E+01  0.38332337624E+03  0.38453000616E+03  0.00000000000E+00 0. -1.
         22    1    3    3    0    0  0.13228357697E+02  0.37092097132E+02  0.12594660555E+02  0.41345357557E+02  0.00000000000E+00 0.  1.
         22    1    3    3    0    0  0.26648078866E+02 -0.49637712898E+02  0.20921863903E+03  0.21667132151E+03  0.00000000000E+00 0.  1.
</event>
<event>
 7    1  0.5064652E-006  0.6974161E+02  0.7818608E-02  0.1499362E+00
          2   -1    0    0  502    0  0.00000000000E+00  0.00000000000E+00  0.22690586395E+04  0.22690586395E+04  0.00000000000E+00 0. -1.
          1   -1    0    0  501    0 -0.00000000000E+00 -0.00000000000E+00 -0.27363380112E+03  0.27363380112E+03  0.00000000000E+00 0. -1.
         25    2    1    2    0    0 -0.55310798331E+02  0.61668869798E+02  0.45449736676E+03  0.47859692322E+03  0.12499929842E+03 0.  0.
          2    1    1    2  501    0  0.30948907821E+02 -0.62386237000E+02 -0.25686485420E+03  0.26613799200E+03  0.00000000000E+00 0. -1.
          1    1    1    2  502    0  0.24361890510E+02  0.71736720128E+00  0.17977923258E+04  0.17979575254E+04  0.00000000000E+00 0. -1.
         22    1    3    3    0    0  0.50340858342E+01  0.81889819623E+02  0.19807043916E+03  0.21439025969E+03  0.00000000000E+00 0.  1.
         22    1    3    3    0    0 -0.60344884165E+02 -0.20220949824E+02  0.25642692760E+03  0.26420666353E+03  0.00000000000E+00 0.  1.
</event>
<event>
 7    1  0.5064652E-006  0.5281488E+02  0.7818608E-02  0.1492024E+00
          2   -1    0    0  502    0  0.00000000000E+00  0.00000000000E+00  0.15337222685E+04  0.15337222685E+04  0.00000000000E+00 0. -1.
          1   -1    0    0  501    0 -0.00000000000E+00 -0.00000000000E+00 -0.95997093572E+02  0.95997093572E+02  0.00000000000E+00 0. -1.
         25    2    1    2    0    0 -0.75033927693E+01 -0.85794302358E+02  0.64294080134E+02  0.16485037126E+03  0.12499981178E+03 0.  0.
          2    1    1    2  501    0 -0.12170171173E+00  0.33857780376E+02 -0.38895234533E+02  0.51567464284E+02  0.00000000000E+00 0. -1.
          1    1    1    2  502    0  0.76250944810E+01  0.51936521982E+02  0.14123263293E+04  0.14133015265E+04  0.00000000000E+00 0. -1.
         22    1    3    3    0    0  0.32156744611E+02  0.19712902558E+02  0.68270182196E+01  0.38330965668E+02  0.00000000000E+00 0. -1.
         22    1    3    3    0    0 -0.39660137380E+02 -0.10550720492E+03  0.57467061915E+02  0.12651940559E+03  0.00000000000E+00 0. -1.
</event>
<event>
 7    1  0.5064652E-006  0.5532712E+02  0.7818608E-02  0.1454610E+00
          2   -1    0    0  502    0  0.00000000000E+00  0.00000000000E+00  0.14344223911E+03  0.14344223911E+03  0.00000000000E+00 0. -1.
          1   -1    0    0  501    0 -0.00000000000E+00 -0.00000000000E+00 -0.12228753386E+04  0.12228753386E+04  0.00000000000E+00 0. -1.
         25    2    1    2    0    0 -0.37434584411E+02  0.17259772415E+02  0.32059216635E+02  0.13546484175E+03  0.12499472839E+03 0.  0.
          2    1    1    2  501    0  0.50645706729E+02  0.22822548424E+02 -0.11629646023E+04  0.11642905662E+04  0.00000000000E+00 0. -1.
          1    1    1    2  502    0 -0.13211122317E+02 -0.40082320839E+02  0.51472286192E+02  0.66562169756E+02  0.00000000000E+00 0. -1.
         22    1    3    3    0    0 -0.52230631598E+02  0.35469989523E+02 -0.29424608800E+02  0.69656059585E+02  0.00000000000E+00 0. -1.
         22    1    3    3    0    0  0.14796047187E+02 -0.18210217108E+02  0.61483825435E+02  0.65808782161E+02  0.00000000000E+00 0. -1.
</event>
<event>
 7    1  0.5064652E-006  0.4867603E+03  0.7818608E-02  0.1193721E+00
          2   -1    0    0  502    0  0.00000000000E+00  0.00000000000E+00  0.21334957216E+04  0.21334957216E+04  0.00000000000E+00 0. -1.
          1   -1    0    0  501    0 -0.00000000000E+00 -0.00000000000E+00 -0.19663101917E+04  0.19663101917E+04  0.00000000000E+00 0. -1.
         25    2    1    2    0    0 -0.47417370693E+03  0.98098932801E+02  0.17791191235E+03  0.53079430556E+03  0.12500336514E+03 0.  0.
          2    1    1    2  501    0  0.92116536339E+01  0.48898639817E+02 -0.17560952788E+04  0.17568000910E+04  0.00000000000E+00 0. -1.
          1    1    1    2  502    0  0.46496205329E+03 -0.14699757262E+03  0.17453688963E+04  0.18122115168E+04  0.00000000000E+00 0. -1.
         22    1    3    3    0    0 -0.13910759578E+03  0.56972096384E+02  0.11045536945E+03  0.18653989281E+03  0.00000000000E+00 0.  1.
         22    1    3    3    0    0 -0.33506611115E+03  0.41126836417E+02  0.67456542899E+02  0.34425441274E+03  0.00000000000E+00 0.  1.
</event>
<event>
 7    1  0.5064652E-006  0.1101088E+03  0.7818608E-02  0.1375646E+00
          2   -1    0    0  502    0  0.00000000000E+00  0.00000000000E+00  0.44501376375E+03  0.44501376375E+03  0.00000000000E+00 0. -1.
          1   -1    0    0  501    0 -0.00000000000E+00 -0.00000000000E+00 -0.81803245462E+03  0.81803245462E+03  0.00000000000E+00 0. -1.
         25    2    1    2    0    0 -0.18246410320E+02 -0.14142635783E+03  0.12333264031E+03  0.22620769583E+03  0.12499854122E+03 0.  0.
          2    1    1    2  501    0 -0.41236742258E+01  0.10934649491E+03 -0.76124703292E+03  0.76907132684E+03  0.00000000000E+00 0. -1.
          1    1    1    2  502    0  0.22370084546E+02  0.32079862917E+02  0.26489570175E+03  0.26776719570E+03  0.00000000000E+00 0. -1.
         22    1    3    3    0    0 -0.62846314353E+02 -0.30699109380E+02  0.39347447186E+02  0.80251580324E+02  0.00000000000E+00 0.  1.
         22    1    3    3    0    0  0.44599904032E+02 -0.11072724845E+03  0.83985193127E+02  0.14595611550E+03  0.00000000000E+00 0.  1.
</event>
<event>
 7    1  0.5064652E-006  0.1431477E+03  0.7818608E-02  0.1275609E+00
          2   -1    0    0  502    0  0.00000000000E+00  0.00000000000E+00  0.60185238530E+03  0.60185238530E+03  0.00000000000E+00 0. -1.
          1   -1    0    0  501    0 -0.00000000000E+00 -0.00000000000E+00 -0.62248082233E+03  0.62248082233E+03  0.00000000000E+00 0. -1.
         25    2    1    2    0    0  0.16634343284E+03  0.73278261102E+01  0.14813639330E+03  0.25552671287E+03  0.12500270111E+03 0.  0.
          2    1    1    2  501    0 -0.12560489705E+03 -0.67968750191E+02 -0.55635433598E+03  0.57439227739E+03  0.00000000000E+00 0. -1.
          1    1    1    2  502    0 -0.40738535783E+02  0.60640924081E+02  0.38758950565E+03  0.39441421737E+03  0.00000000000E+00 0. -1.
         22    1    3    3    0    0  0.48935745040E+02 -0.52186495929E+02  0.79945346613E+02  0.10728185282E+03  0.00000000000E+00 0. -1.
         22    1    3    3    0    0  0.11740768780E+03  0.59514322040E+02  0.68191046684E+02  0.14824486004E+03  0.00000000000E+00 0. -1.
</event>
<event>
 7    1  0.5064652E-006  0.1315463E+03  0.7818608E-02  0.1427815E+00
          2   -1    0    0  502    0  0.00000000000E+00  0.00000000000E+00  0.72385325188E+03  0.72385325188E+03  0.00000000000E+00 0. -1.
          1   -1    0    0  501    0 -0.00000000000E+00 -0.00000000000E+00 -0.10950495864E+04  0.10950495864E+04  0.00000000000E+00 0. -1.
         25    2    1    2    0    0  0.32860402004E+02  0.12661449188E+03  0.50470910248E+02  0.18783904463E+03  0.12500063333E+03 0.  0.
          2    1    1    2  501    0 -0.11654940234E+02 -0.13111640881E+03 -0.10219485018E+04  0.10303912318E+04  0.00000000000E+00 0. -1.
          1    1    1    2  502    0 -0.21205461770E+02  0.45019169299E+01  0.60028125708E+03  0.60067256178E+03  0.00000000000E+00 0. -1.
         22    1    3    3    0    0  0.52620275508E+02  0.22187421480E+02 -0.19784744638E+02  0.60436836341E+02  0.00000000000E+00 0. -1.
         22    1    3    3    0    0 -0.19759873504E+02  0.10442707040E+03  0.70255654886E+02  0.12740220829E+03  0.00000000000E+00 0. -1.
</event>
<event>
 7    1  0.5064652E-006  0.4596655E+02  0.7818608E-02  0.1472660E+00
          2   -1    0    0  502    0  0.00000000000E+00  0.00000000000E+00  0.88876095278E+03  0.88876095278E+03  0.00000000000E+00 0. -1.
          1   -1    0    0  501    0 -0.00000000000E+00 -0.00000000000E+00 -0.31578607764E+02  0.31578607764E+02  0.00000000000E+00 0. -1.
         25    2    1    2    0    0  0.27264625468E+02  0.86158267265E+01  0.12444170354E+03  0.17868524265E+03  0.12500034435E+03 0.  0.
          2    1    1    2  501    0 -0.22782313734E+02  0.38324867022E+02  0.13747798667E+03  0.14452690431E+03  0.00000000000E+00 0. -1.
          1    1    1    2  502    0 -0.44823117345E+01 -0.46940693748E+02  0.59526265480E+03  0.59712741358E+03  0.00000000000E+00 0. -1.
         22    1    3    3    0    0 -0.12280299164E+02  0.60756714785E+02  0.50575185532E+02  0.80000209566E+02  0.00000000000E+00 0.  1.
         22    1    3    3    0    0  0.39544924632E+02 -0.52140888058E+02  0.73866518008E+02  0.98685033082E+02  0.00000000000E+00 0.  1.
</event>
<event>
 7    1  0.5064652E-006  0.5461985E+02  0.7818608E-02  0.1484344E+00
          2   -1    0    0  502    0  0.00000000000E+00  0.00000000000E+00  0.22695125304E+04  0.22695125304E+04  0.00000000000E+00 0. -1.
          1   -1    0    0  501    0 -0.00000000000E+00 -0.00000000000E+00 -0.28584048412E+02  0.28584048412E+02  0.00000000000E+00 0. -1.
         25    2    1    2    0    0 -0.45449354828E+02  0.22891113263E+01  0.33160809943E+03  0.35729596399E+03  0.12500236156E+03 0.  0.
          2    1    1    2  501    0  0.64074452813E+00 -0.34537304054E+02  0.41058506368E+01  0.34786404446E+02  0.00000000000E+00 0. -1.
          1    1    1    2  502    0  0.44808610299E+02  0.32248192727E+02  0.19052145319E+04  0.19060142103E+04  0.00000000000E+00 0. -1.
         22    1    3    3    0    0  0.33612209905E+02  0.33935768794E+02  0.12600277203E+03  0.13475205237E+03  0.00000000000E+00 0. -1.
         22    1    3    3    0    0 -0.79061564733E+02 -0.31646657468E+02  0.20560532740E+03  0.22254391162E+03  0.00000000000E+00 0. -1.
</event>
<event>
 7    1  0.5064652E-006  0.1093671E+03  0.7818608E-02  0.1309907E+00
          2   -1    0    0  502    0  0.00000000000E+00  0.00000000000E+00  0.31923484394E+04  0.31923484394E+04  0.00000000000E+00 0. -1.
          1   -1    0    0  501    0 -0.00000000000E+00 -0.00000000000E+00 -0.67957423474E+02  0.67957423474E+02  0.00000000000E+00 0. -1.
         25    2    1    2    0    0  0.62294370717E+02  0.10649447935E+03  0.82870861649E+03  0.84711548487E+03  0.12500004364E+03 0.  0.
          2    1    1    2  501    0 -0.98917621857E+02 -0.47492603899E+02 -0.65382008108E+01  0.10992266103E+03  0.00000000000E+00 0. -1.
          1    1    1    2  502    0  0.36623251139E+02 -0.59001875451E+02  0.23022206003E+04  0.23032677170E+04  0.00000000000E+00 0. -1.
         22    1    3    3    0    0  0.52984435842E+02  0.12313646975E+03  0.49403170271E+03  0.51189575492E+03  0.00000000000E+00 0. -1.
         22    1    3    3    0    0  0.93099348754E+01 -0.16641990395E+02  0.33467691378E+03  0.33521972995E+03  0.00000000000E+00 0. -1.
</event>
<event>
 7    1  0.5064652E-006  0.1576220E+03  0.7818608E-02  0.1293913E+00
          2   -1    0    0  502    0  0.00000000000E+00  0.00000000000E+00  0.27001175537E+03  0.27001175537E+03  0.00000000000E+00 0. -1.
          1   -1    0    0  501    0 -0.00000000000E+00 -0.00000000000E+00 -0.68987540376E+03  0.68987540376E+03  0.00000000000E+00 0. -1.
         25    2    1    2    0    0 -0.79810249090E+02 -0.19146102560E+03 -0.39264799394E+02  0.24534474943E+03  0.12500128566E+03 0.  0.
          2    1    1    2  501    0  0.66286121849E+02  0.13731005918E+03 -0.53187497771E+03  0.55329819647E+03  0.00000000000E+00 0. -1.
          1    1    1    2  502    0  0.13524127241E+02  0.54150966418E+02  0.15127612872E+03  0.16124421324E+03  0.00000000000E+00 0. -1.
         22    1    3    3    0    0 -0.71321894441E+02 -0.49347318904E+02  0.23348726849E+02  0.89817223042E+02  0.00000000000E+00 0.  1.
         22    1    3    3    0    0 -0.84883546498E+01 -0.14211370670E+03 -0.62613526243E+02  0.15552752639E+03  0.00000000000E+00 0.  1.
</event>
<event>
 7    1  0.5064652E-006  0.1828409E+03  0.7818608E-02  0.1180689E+00
          2   -1    0    0  502    0  0.00000000000E+00  0.00000000000E+00  0.10193886505E+04  0.10193886505E+04  0.00000000000E+00 0. -1.
          1   -1    0    0  501    0 -0.00000000000E+00 -0.00000000000E+00 -0.81937728122E+03  0.81937728122E+03  0.00000000000E+00 0. -1.
         25    2    1    2    0    0 -0.88088870768E+01 -0.40136094317E+02  0.15048516457E+03  0.19989859958E+03  0.12500065119E+03 0.  0.
          2    1    1    2  501    0  0.40278470498E+02 -0.17834925355E+03 -0.76934108201E+03  0.79076956941E+03  0.00000000000E+00 0. -1.
          1    1    1    2  502    0 -0.31469583421E+02  0.21848534787E+03  0.81886728671E+03  0.84809776274E+03  0.00000000000E+00 0. -1.
         22    1    3    3    0    0 -0.26023091763E+02  0.13974283725E+01 -0.13858345721E+02  0.29516230401E+02  0.00000000000E+00 0. -1.
         22    1    3    3    0    0  0.17214204686E+02 -0.41533522690E+02  0.16434351029E+03  0.17038236917E+03  0.00000000000E+00 0. -1.
</event>
<event>
 7    1  0.5064652E-006  0.5313189E+02  0.7818608E-02  0.1514494E+00
          2   -1    0    0  502    0  0.00000000000E+00  0.00000000000E+00  0.18188397549E+03  0.18188397549E+03  0.00000000000E+00 0. -1.
          1   -1    0    0  501    0 -0.00000000000E+00 -0.00000000000E+00 -0.23680709821E+03  0.23680709821E+03  0.00000000000E+00 0. -1.
         25    2    1    2    0    0  0.41112389265E+02 -0.26888742241E+02 -0.48752976868E+02  0.14288320663E+03  0.12500209987E+03 0.  0.
          2    1    1    2  501    0 -0.54331029848E+02  0.12334116036E+01 -0.13408399729E+03  0.14467861085E+03  0.00000000000E+00 0. -1.
          1    1    1    2  502    0  0.13218640583E+02  0.25655330637E+02  0.12791385143E+03  0.13112925622E+03  0.00000000000E+00 0. -1.
         22    1    3    3    0    0 -0.13315821225E+02  0.38429863108E+02  0.69177475274E+01  0.41255553617E+02  0.00000000000E+00 0. -1.
         22    1    3    3    0    0  0.54428210491E+02 -0.65318605349E+02 -0.55670724395E+02  0.10162765301E+03  0.00000000000E+00 0. -1.
</event>
<event>
 7    1  0.5064652E-006  0.1716258E+03  0.7818608E-02  0.1260143E+00
          2   -1    0    0  502    0  0.00000000000E+00  0.00000000000E+00  0.18535206488E+04  0.18535206488E+04  0.00000000000E+00 0. -1.
          1   -1    0    0  501    0 -0.00000000000E+00 -0.00000000000E+00 -0.11950327410E+03  0.11950327410E+03  0.00000000000E+00 0. -1.
         25    2    1    2    0    0  0.44457239190E+02  0.21933568981E+03  0.58195055518E+03  0.63590471767E+03  0.12499508124E+03 0.  0.
          2    1    1    2  501    0 -0.66149475157E+02 -0.15194255614E+03 -0.16384004195E+02  0.16652546059E+03  0.00000000000E+00 0. -1.
          1    1    1    2  502    0  0.21692235967E+02 -0.67393133668E+02  0.11684508237E+04  0.11705937447E+04  0.00000000000E+00 0. -1.
         22    1    3    3    0    0  0.35828238530E+02  0.21686394482E+03  0.42298926240E+03  0.47669020270E+03  0.00000000000E+00 0.  1.
         22    1    3    3    0    0  0.86290006602E+01  0.24717449937E+01  0.15896129278E+03  0.15921451497E+03  0.00000000000E+00 0.  1.
</event>
<event>
 7    1  0.5064652E-006  0.2776745E+03  0.7818608E-02  0.1252011E+00
          2   -1    0    0  502    0  0.00000000000E+00  0.00000000000E+00  0.53835312658E+03  0.53835312658E+03  0.00000000000E+00 0. -1.
          1   -1    0    0  501    0 -0.00000000000E+00 -0.00000000000E+00 -0.50159182561E+03  0.50159182561E+03  0.00000000000E+00 0. -1.
         25    2    1    2    0    0  0.22428649854E+03  0.93826767667E+02  0.14754443678E+03  0.31064837111E+03  0.12500061557E+03 0.  0.
          2    1    1    2  501    0 -0.25299550645E+03 -0.13157369369E+03 -0.36923328891E+03  0.46653144031E+03  0.00000000000E+00 0. -1.
          1    1    1    2  502    0  0.28709007912E+02  0.37746926018E+02  0.25845015311E+03  0.26276514077E+03  0.00000000000E+00 0. -1.
         22    1    3    3    0    0  0.17707780762E+03  0.11197350358E+02  0.10707303399E+03  0.20723553077E+03  0.00000000000E+00 0.  1.
         22    1    3    3    0    0  0.47208690921E+02  0.82629417310E+02  0.40471402782E+02  0.10341284034E+03  0.00000000000E+00 0.  1.
</event>
<event>
 7    1  0.5064652E-006  0.1484083E+03  0.7818608E-02  0.1308632E+00
          2   -1    0    0  502    0  0.00000000000E+00  0.00000000000E+00  0.30569389094E+03  0.30569389094E+03  0.00000000000E+00 0. -1.
          1   -1    0    0  501    0 -0.00000000000E+00 -0.00000000000E+00 -0.58096465526E+03  0.58096465526E+03  0.00000000000E+00 0. -1.
         25    2    1    2    0    0  0.50730429406E+02 -0.11591952333E+03 -0.29676198619E+03  0.34597021066E+03  0.12496718714E+03 0.  0.
          2    1    1    2  501    0 -0.87807264800E+02  0.15205341639E+03 -0.22693104490E+03  0.28692866069E+03  0.00000000000E+00 0. -1.
          1    1    1    2  502    0  0.37076835394E+02 -0.36133893063E+02  0.24842226677E+03  0.25375967484E+03  0.00000000000E+00 0. -1.
         22    1    3    3    0    0  0.85625421469E+02 -0.61596068285E+02 -0.13171823646E+03  0.16874679922E+03  0.00000000000E+00 0. -1.
         22    1    3    3    0    0 -0.34894992063E+02 -0.54323455045E+02 -0.16504374973E+03  0.17722341144E+03  0.00000000000E+00 0. -1.
</event>
<event>
 7    1  0.5064652E-006  0.8498345E+02  0.7818608E-02  0.1319614E+00
          2   -1    0    0  502    0  0.00000000000E+00  0.00000000000E+00  0.13594702374E+04  0.13594702374E+04  0.00000000000E+00 0. -1.
          1   -1    0    0  501    0 -0.00000000000E+00 -0.00000000000E+00 -0.33073583813E+03  0.33073583813E+03  0.00000000000E+00 0. -1.
         25    2    1    2    0    0 -0.10490996648E+03 -0.95358678239E+01  0.18661261476E+03  0.24808598719E+03  0.12500142084E+03 0.  0.
          2    1    1    2  501    0  0.43493649723E+02  0.69381925849E+02 -0.29276330982E+03  0.30399984338E+03  0.00000000000E+00 0. -1.
          1    1    1    2  502    0  0.61416316756E+02 -0.59846058025E+02  0.11348850944E+04  0.11381202450E+04  0.00000000000E+00 0. -1.
         22    1    3    3    0    0 -0.11333085496E+03 -0.24578572208E+02  0.19653339065E+03  0.22819588633E+03  0.00000000000E+00 0.  1.
         22    1    3    3    0    0  0.84208884839E+01  0.15042704384E+02 -0.99207758882E+01  0.19890100861E+02  0.00000000000E+00 0.  1.
</event>
<event>
 7    1  0.5064652E-006  0.1012447E+03  0.7818608E-02  0.1283839E+00
          2   -1    0    0  502    0  0.00000000000E+00  0.00000000000E+00  0.96377124410E+03  0.96377124410E+03  0.00000000000E+00 0. -1.
          1   -1    0    0  501    0 -0.00000000000E+00 -0.00000000000E+00 -0.16438888857E+04  0.16438888857E+04  0.00000000000E+00 0. -1.
         25    2    1    2    0    0 -0.46954505293E+02 -0.66924594412E+02 -0.11214180563E+03  0.18677438528E+03  0.12500103808E+03 0.  0.
          2    1    1    2  501    0 -0.54833885364E+02  0.78196900510E+02 -0.14900671680E+04  0.14931248023E+04  0.00000000000E+00 0. -1.
          1    1    1    2  502    0  0.10178839066E+03 -0.11272306098E+02  0.92209133200E+03  0.92776094222E+03  0.00000000000E+00 0. -1.
         22    1    3    3    0    0 -0.59182057876E+02 -0.21706217954E+02  0.23394747476E+01  0.63080496308E+02  0.00000000000E+00 0. -1.
         22    1    3    3    0    0  0.12227552583E+02 -0.45218376458E+02 -0.11448128038E+03  0.12369388897E+03  0.00000000000E+00 0. -1.
</event>
<event>
 7    1  0.5064652E-006  0.1232200E+03  0.7818608E-02  0.1338987E+00
          2   -1    0    0  502    0  0.00000000000E+00  0.00000000000E+00  0.15384056643E+04  0.15384056643E+04  0.00000000000E+00 0. -1.
          1   -1    0    0  501    0 -0.00000000000E+00 -0.00000000000E+00 -0.53986119119E+03  0.53986119119E+03  0.00000000000E+00 0. -1.
         25    2    1    2    0    0  0.11309217461E+03  0.32570721775E+02  0.12464428387E+03  0.21216219476E+03  0.12500362999E+03 0.  0.
          2    1    1    2  501    0  0.10243574032E+02 -0.46503761363E+02 -0.49213940586E+03  0.49443778722E+03  0.00000000000E+00 0. -1.
          1    1    1    2  502    0 -0.12333574864E+03  0.13933039588E+02  0.13660395951E+04  0.13716668735E+04  0.00000000000E+00 0. -1.
         22    1    3    3    0    0  0.97433780196E+02 -0.24496478443E+02  0.38371031335E+02  0.10754420033E+03  0.00000000000E+00 0. -1.
         22    1    3    3    0    0  0.15658394416E+02  0.57067200217E+02  0.86273252534E+02  0.10461799443E+03  0.00000000000E+00 0. -1.
</event>
<event>
 7    1  0.5064652E-006  0.6389142E+02  0.7818608E-02  0.1392587E+00
          2   -1    0    0  502    0  0.00000000000E+00  0.00000000000E+00  0.46624793130E+03  0.46624793130E+03  0.00000000000E+00 0. -1.
          1   -1    0    0  501    0 -0.00000000000E+00 -0.00000000000E+00 -0.45489976128E+03  0.45489976128E+03  0.00000000000E+00 0. -1.
         25    2    1    2    0    0 -0.17449912697E+02  0.75075553535E+02  0.22291443513E+03  0.26694071536E+03  0.12500264772E+03 0.  0.
          2    1    1    2  501    0  0.54792718423E+02 -0.21202489530E+02 -0.42597212254E+03  0.43000469386E+03  0.00000000000E+00 0. -1.
          1    1    1    2  502    0 -0.37342805726E+02 -0.53873064005E+02  0.21440585744E+03  0.22420228337E+03  0.00000000000E+00 0. -1.
         22    1    3    3    0    0 -0.62085090977E+02  0.23694241105E+02  0.56785580635E+02  0.87410398416E+02  0.00000000000E+00 0. -1.
         22    1    3    3    0    0  0.44635178280E+02  0.51381312430E+02  0.16612885449E+03  0.17953031695E+03  0.00000000000E+00 0. -1.
</event>
<event>
 7    1  0.5064652E-006  0.1017873E+03  0.7818608E-02  0.1454102E+00
          2   -1    0    0  502    0  0.00000000000E+00  0.00000000000E+00  0.71090261386E+03  0.71090261386E+03  0.00000000000E+00 0. -1.
          1   -1    0    0  501    0 -0.00000000000E+00 -0.00000000000E+00 -0.69298152334E+03  0.69298152334E+03  0.00000000000E+00 0. -1.
         25    2    1    2    0    0  0.30823091841E+02  0.92005968731E+02  0.40712593134E+03  0.43679567935E+03  0.12499512093E+03 0.  0.
          2    1    1    2  501    0 -0.97927857374E+01 -0.10138091978E+03 -0.67385476730E+03  0.68150879449E+03  0.00000000000E+00 0. -1.
          1    1    1    2  502    0 -0.21030306104E+02  0.93749510536E+01  0.28464992649E+03  0.28557966337E+03  0.00000000000E+00 0. -1.
         22    1    3    3    0    0  0.39550781635E+01  0.39110218110E+02  0.35691119631E+03  0.35906942763E+03  0.00000000000E+00 0.  1.
         22    1    3    3    0    0  0.26868013677E+02  0.52895750621E+02  0.50214735026E+02  0.77726251720E+02  0.00000000000E+00 0.  1.
</event>
<event>
 7    1  0.5064652E-006  0.1246280E+03  0.7818608E-02  0.1356320E+00
          2   -1    0    0  502    0  0.00000000000E+00  0.00000000000E+00  0.11521157972E+04  0.11521157972E+04  0.00000000000E+00 0. -1.
          1   -1    0    0  501    0 -0.00000000000E+00 -0.00000000000E+00 -0.45570295806E+03  0.45570295806E+03  0.00000000000E+00 0. -1.
         25    2    1    2    0    0 -0.10949877184E+03 -0.12073785033E+03 -0.19828557722E+03  0.28549805344E+03  0.12499743536E+03 0.  0.
          2    1    1    2  501    0  0.33867631085E+02  0.22367499894E+02 -0.20837459320E+03  0.21229058523E+03  0.00000000000E+00 0. -1.
          1    1    1    2  502    0  0.75631140757E+02  0.98370350434E+02  0.11030730095E+04  0.11100301166E+04  0.00000000000E+00 0. -1.
         22    1    3    3    0    0 -0.13175044386E+03 -0.88291555487E+02 -0.12356323827E+03  0.20105086938E+03  0.00000000000E+00 0. -1.
         22    1    3    3    0    0  0.22251672018E+02 -0.32446294841E+02 -0.74722338956E+02  0.84447184060E+02  0.00000000000E+00 0. -1.
</event>
<event>
 7    1  0.5064652E-006  0.5716353E+02  0.7818608E-02  0.1509701E+00
          2   -1    0    0  502    0  0.00000000000E+00  0.00000000000E+00  0.26895813221E+03  0.26895813221E+03  0.00000000000E+00 0. -1.
          1   -1    0    0  501    0 -0.00000000000E+00 -0.00000000000E+00 -0.27378854766E+03  0.27378854766E+03  0.00000000000E+00 0. -1.
         25    2    1    2    0    0 -0.13610634372E+02 -0.50159769950E+02 -0.33937963042E+02  0.13956515077E+03  0.12500157633E+03 0.  0.
          2    1    1    2  501    0 -0.26347085118E+02  0.85780866064E+01 -0.18212382824E+03  0.18421954640E+03  0.00000000000E+00 0. -1.
          1    1    1    2  502    0  0.39957719490E+02  0.41581683343E+02  0.21123137582E+03  0.21896198270E+03  0.00000000000E+00 0. -1.
         22    1    3    3    0    0 -0.12488481121E+02 -0.20576962071E+00  0.44690725539E+02  0.46403291382E+02  0.00000000000E+00 0. -1.
         22    1    3    3    0    0 -0.11221532512E+01 -0.49954000329E+02 -0.78628688581E+02  0.93161859389E+02  0.00000000000E+00 0. -1.
</event>
<event>
 7    1  0.5064652E-006  0.7838642E+02  0.7818608E-02  0.1358371E+00
          2   -1    0    0  502    0  0.00000000000E+00  0.00000000000E+00  0.39974069431E+03  0.39974069431E+03  0.00000000000E+00 0. -1.
          1   -1    0    0  501    0 -0.00000000000E+00 -0.00000000000E+00 -0.15285953846E+04  0.15285953846E+04  0.00000000000E+00 0. -1.
         25    2    1    2    0    0  0.73588891547E+02  0.32770498987E+02  0.98088610663E+02  0.17813747072E+03  0.12498940903E+03 0.  0.
          2    1    1    2  501    0  0.19331923132E+01 -0.63393660927E+02 -0.14815297940E+04  0.14828867199E+04  0.00000000000E+00 0. -1.
          1    1    1    2  502    0 -0.75522083860E+02  0.30623161941E+02  0.25458649304E+03  0.26731188831E+03  0.00000000000E+00 0. -1.
         22    1    3    3    0    0  0.86142194483E+02  0.27345109384E+02  0.12125748197E+03  0.15123362593E+03  0.00000000000E+00 0.  1.
         22    1    3    3    0    0 -0.12553302936E+02  0.54253896023E+01 -0.23168871309E+02  0.26903844793E+02  0.00000000000E+00 0.  1.
</event>
<event>
 7    1  0.5064652E-006  0.8001525E+02  0.7818608E-02  0.1348854E+00
          2   -1    0    0  502    0  0.00000000000E+00  0.00000000000E+00  0.34963349363E+02  0.34963349363E+02  0.00000000000E+00 0. -1.
          1   -1    0    0  501    0 -0.00000000000E+00 -0.00000000000E+00 -0.83723336123E+03  0.83723336123E+03  0.00000000000E+00 0. -1.
         25    2    1    2    0    0  0.20443968978E+01  0.13899720665E+02 -0.30251359474E+03  0.32761525403E+03  0.12497958983E+03 0.  0.
          2    1    1    2  501    0 -0.75574112331E+02 -0.45456365752E+02 -0.42835885919E+03  0.43734316033E+03  0.00000000000E+00 0. -1.
          1    1    1    2  502    0  0.73529715433E+02  0.31556645087E+02 -0.71397557942E+02  0.10723829624E+03  0.00000000000E+00 0. -1.
         22    1    3    3    0    0 -0.48859298640E+02 -0.26820708772E+02 -0.95436126782E+02  0.11051984337E+03  0.00000000000E+00 0. -1.
         22    1    3    3    0    0  0.50903695538E+02  0.40720429437E+02 -0.20707746796E+03  0.21709541066E+03  0.00000000000E+00 0. -1.
</event>
<event>
 7    1  0.5064652E-006  0.7251014E+02  0.7818608E-02  0.1386522E+00
          2   -1    0    0  502    0  0.00000000000E+00  0.00000000000E+00  0.13944545815E+02  0.13944545815E+02  0.00000000000E+00 0. -1.
          1   -1    0    0  501    0 -0.00000000000E+00 -0.00000000000E+00 -0.19360879936E+04  0.19360879936E+04  0.00000000000E+00 0. -1.
         25    2    1    2    0    0 -0.61169197301E+02  0.67299128032E+02 -0.16048463343E+04  0.16122742407E+04  0.12500250920E+03 0.  0.
          2    1    1    2  501    0  0.75976820267E+01 -0.58100068032E+02 -0.20135058560E+03  0.20970312587E+03  0.00000000000E+00 0. -1.
          1    1    1    2  502    0  0.53571515274E+02 -0.91990599997E+01 -0.11594652787E+03  0.12805517279E+03  0.00000000000E+00 0. -1.
         22    1    3    3    0    0 -0.78796689571E+02  0.74316144412E+02 -0.15575900499E+04  0.15613515206E+04  0.00000000000E+00 0.  1.
         22    1    3    3    0    0  0.17627492270E+02 -0.70170163797E+01 -0.47256284447E+02  0.50922720099E+02  0.00000000000E+00 0.  1.
</event>
<event>
 7    1  0.5064652E-006  0.5842151E+02  0.7818608E-02  0.1519460E+00
          2   -1    0    0  502    0  0.00000000000E+00  0.00000000000E+00  0.65950541941E+03  0.65950541941E+03  0.00000000000E+00 0. -1.
          1   -1    0    0  501    0 -0.00000000000E+00 -0.00000000000E+00 -0.85677711026E+03  0.85677711026E+03  0.00000000000E+00 0. -1.
         25    2    1    2    0    0  0.75037901676E+02 -0.37772265503E+01 -0.28658590867E+01  0.14587018676E+03  0.12499977644E+03 0.  0.
          2    1    1    2  501    0 -0.20149643327E+02 -0.15442846556E+02 -0.78076429878E+03  0.78117691971E+03  0.00000000000E+00 0. -1.
          1    1    1    2  502    0 -0.54888258350E+02  0.19220073107E+02  0.58635846701E+03  0.58923542320E+03  0.00000000000E+00 0. -1.
         22    1    3    3    0    0  0.10275202983E+03 -0.22513067825E+02  0.17602530410E+02  0.10665208359E+03  0.00000000000E+00 0.  1.
         22    1    3    3    0    0 -0.27714128156E+02  0.18735841274E+02 -0.20468389496E+02  0.39218103170E+02  0.00000000000E+00 0.  1.
</event>
<event>
 7    1  0.5064652E-006  0.1329079E+03  0.7818608E-02  0.1284210E+00
          2   -1    0    0  502    0  0.00000000000E+00  0.00000000000E+00  0.19946455126E+04  0.19946455126E+04  0.00000000000E+00 0. -1.
          1   -1    0    0  501    0 -0.00000000000E+00 -0.00000000000E+00 -0.44428458207E+03  0.44428458207E+03  0.00000000000E+00 0. -1.
         25    2    1    2    0    0 -0.19340487431E+03 -0.48576889999E+02  0.11737898525E+04  0.11971521439E+04  0.12500191311E+03 0.  0.
          2    1    1    2  501    0  0.12107229452E+03  0.53490448790E+02 -0.42079563275E+03  0.44112208418E+03  0.00000000000E+00 0. -1.
          1    1    1    2  502    0  0.72332579784E+02 -0.49135587917E+01  0.79736671084E+03  0.80065586660E+03  0.00000000000E+00 0. -1.
         22    1    3    3    0    0 -0.15388820476E+03 -0.88313456641E+02  0.82243595105E+03  0.84135708220E+03  0.00000000000E+00 0. -1.
         22    1    3    3    0    0 -0.39516669546E+02  0.39736566642E+02  0.35135390140E+03  0.35579506170E+03  0.00000000000E+00 0. -1.
</event>
<event>
 7    1  0.5064652E-006  0.4947310E+02  0.7818608E-02  0.1539794E+00
          2   -1    0    0  502    0  0.00000000000E+00  0.00000000000E+00  0.45705484303E+03  0.45705484303E+03  0.00000000000E+00 0. -1.
          1   -1    0    0  501    0 -0.00000000000E+00 -0.00000000000E+00 -0.15311536218E+03  0.15311536218E+03  0.00000000000E+00 0. -1.
         25    2    1    2    0    0 -0.69294957911E+02  0.22896311126E+01 -0.40822880838E+02  0.14865534084E+03  0.12499947663E+03 0.  0.
          2    1    1    2  501    0  0.21690282222E+02 -0.14719910353E+02 -0.53842736586E+02  0.59884759220E+02  0.00000000000E+00 0. -1.
          1    1    1    2  502    0  0.47604675689E+02  0.12430279241E+02  0.39860509828E+03  0.40163010515E+03  0.00000000000E+00 0. -1.
         22    1    3    3    0    0 -0.86930846984E+01 -0.45307098337E+02  0.20198656360E+02  0.50361578609E+02  0.00000000000E+00 0.  1.
         22    1    3    3    0    0 -0.60601873212E+02  0.47596729449E+02 -0.61021537197E+02  0.98293762229E+02  0.00000000000E+00 0.  1.
</event>
<event>
 7    1  0.5064652E-006  0.8204485E+02  0.7818608E-02  0.1418506E+00
          2   -1    0    0  502    0  0.00000000000E+00  0.00000000000E+00  0.55694553216E+03  0.55694553216E+03  0.00000000000E+00 0. -1.
          1   -1    0    0  501    0 -0.00000000000E+00 -0.00000000000E+00 -0.19225567262E+04  0.19225567262E+04  0.00000000000E+00 0. -1.
         25    2    1    2    0    0 -0.25951363357E+02  0.39875965793E+02  0.18516762539E+03  0.22841983081E+03  0.12500001483E+03 0.  0.
          2    1    1    2  501    0  0.28451137195E+02 -0.77117194330E+02 -0.18990443620E+04  0.19008224582E+04  0.00000000000E+00 0. -1.
          1    1    1    2  502    0 -0.24997738382E+01  0.37241228537E+02  0.34826554256E+03  0.35025996932E+03  0.00000000000E+00 0. -1.
         22    1    3    3    0    0 -0.22193884354E+02 -0.37572388584E+02  0.24560589842E+02  0.50074698801E+02  0.00000000000E+00 0. -1.
         22    1    3    3    0    0 -0.37574790031E+01  0.77448354377E+02  0.16060703555E+03  0.17834513201E+03  0.00000000000E+00 0. -1.
</event>
<event>
 7    1  0.5064652E-006  0.1674140E+03  0.7818608E-02  0.1274040E+00
          2   -1    0    0  502    0  0.00000000000E+00  0.00000000000E+00  0.45378795590E+03  0.45378795590E+03  0.00000000000E+00 0. -1.
          1   -1    0    0  501    0 -0.00000000000E+00 -0.00000000000E+00 -0.34645197379E+04  0.34645197379E+04  0.00000000000E+00 0. -1.
         25    2    1    2    0    0  0.11042684741E+03  0.11409191454E+03 -0.23872726004E+02  0.20348501606E+03  0.12500076448E+03 0.  0.
          2    1    1    2  501    0 -0.62630656134E+02 -0.15576566197E+03 -0.33459582529E+04  0.33501674839E+04  0.00000000000E+00 0. -1.
          1    1    1    2  502    0 -0.47796191280E+02  0.41673747430E+02  0.35909919691E+03  0.36465519377E+03  0.00000000000E+00 0. -1.
         22    1    3    3    0    0  0.84036913341E+02  0.26271652020E+02 -0.58229171732E+02  0.10556059371E+03  0.00000000000E+00 0.  1.
         22    1    3    3    0    0  0.26389934074E+02  0.87820262517E+02  0.34356445729E+02  0.97924422347E+02  0.00000000000E+00 0.  1.
</event>
<event>
 7    1  0.5064652E-006  0.7426917E+02  0.7818608E-02  0.1495131E+00
          2   -1    0    0  502    0  0.00000000000E+00  0.00000000000E+00  0.54954808549E+03  0.54954808549E+03  0.00000000000E+00 0. -1.
          1   -1    0    0  501    0 -0.00000000000E+00 -0.00000000000E+00 -0.48632247405E+03  0.48632247405E+03  0.00000000000E+00 0. -1.
         25    2    1    2    0    0  0.69195355090E+02  0.39560781287E+02 -0.23674515424E+03  0.27933821583E+03  0.12501407195E+03 0.  0.
          2    1    1    2  501    0 -0.71719084846E+02 -0.16131971541E+02 -0.22209011421E+03  0.23393992064E+03  0.00000000000E+00 0. -1.
          1    1    1    2  502    0  0.25237297555E+01 -0.23428809747E+02  0.52206087990E+03  0.52259242307E+03  0.00000000000E+00 0. -1.
         22    1    3    3    0    0 -0.31306460648E+02 -0.12177543922E+02 -0.38187749472E+02  0.50859524811E+02  0.00000000000E+00 0. -1.
         22    1    3    3    0    0  0.10050181574E+03  0.51738325210E+02 -0.19855740477E+03  0.22847869102E+03  0.00000000000E+00 0. -1.
</event>
<event>
 7    1  0.5064652E-006  0.6671089E+02  0.7818608E-02  0.1393408E+00
          2   -1    0    0  502    0  0.00000000000E+00  0.00000000000E+00  0.14104431066E+04  0.14104431066E+04  0.00000000000E+00 0. -1.
          1   -1    0    0  501    0 -0.00000000000E+00 -0.00000000000E+00 -0.90879456187E+02  0.90879456187E+02  0.00000000000E+00 0. -1.
         25    2    1    2    0    0 -0.25900320437E+02  0.69802258430E+02  0.81486594903E+02  0.16675673924E+03  0.12499825219E+03 0.  0.
          2    1    1    2  501    0 -0.29496830898E+02 -0.62318867543E+02 -0.22671243715E+02  0.72578850752E+02  0.00000000000E+00 0. -1.
          1    1    1    2  502    0  0.55397151335E+02 -0.74833908879E+01  0.12607482992E+04  0.12619869728E+04  0.00000000000E+00 0. -1.
         22    1    3    3    0    0 -0.14345026303E+02  0.74334457031E+02 -0.82605861975E+01  0.76155292436E+02  0.00000000000E+00 0.  1.
         22    1    3    3    0    0 -0.11555294134E+02 -0.45321986008E+01  0.89747181101E+02  0.90601446800E+02  0.00000000000E+00 0.  1.
</event>
<event>
 7    1  0.5064652E-006  0.8975119E+02  0.7818608E-02  0.1350421E+00
          2   -1    0    0  502    0  0.00000000000E+00  0.00000000000E+00  0.53547574978E+03  0.53547574978E+03  0.00000000000E+00 0. -1.
          1   -1    0    0  501    0 -0.00000000000E+00 -0.00000000000E+00 -0.14605013187E+04  0.14605013187E+04  0.00000000000E+00 0. -1.
         25    2    1    2    0    0  0.73666605301E+02  0.11746336837E+03  0.11416821581E+03  0.21882368619E+03  0.12500004996E+03 0.  0.
          2    1    1    2  501    0 -0.23269061726E+02 -0.86303060390E+02 -0.14043647602E+04  0.14072064693E+04  0.00000000000E+00 0. -1.
          1    1    1    2  502    0 -0.50397543575E+02 -0.31160307985E+02  0.36517097543E+03  0.36994691307E+03  0.00000000000E+00 0. -1.
         22    1    3    3    0    0  0.64277085773E+01  0.79623432596E+02  0.11693869234E+03  0.14161872836E+03  0.00000000000E+00 0.  1.
         22    1    3    3    0    0  0.67238896724E+02  0.37839935779E+02 -0.27704765374E+01  0.77204957824E+02  0.00000000000E+00 0.  1.
</event>
<event>
 7    1  0.5064652E-006  0.7113691E+02  0.7818608E-02  0.1388589E+00
          2   -1    0    0  502    0  0.00000000000E+00  0.00000000000E+00  0.45762424807E+03  0.45762424807E+03  0.00000000000E+00 0. -1.
          1   -1    0    0  501    0 -0.00000000000E+00 -0.00000000000E+00 -0.95799652326E+02  0.95799652326E+02  0.00000000000E+00 0. -1.
         25    2    1    2    0    0 -0.97957546121E+02  0.68441570225E+02  0.17439560452E+03  0.24559978767E+03  0.12500199779E+03 0.  0.
          2    1    1    2  501    0  0.44488240892E+02 -0.31462166025E+02 -0.42358785348E+02  0.69016941143E+02  0.00000000000E+00 0. -1.
          1    1    1    2  502    0  0.53469305230E+02 -0.36979404201E+02  0.22978777657E+03  0.23880717158E+03  0.00000000000E+00 0. -1.
         22    1    3    3    0    0 -0.96684671520E+02  0.10102421781E+03  0.14835537641E+03  0.20387039020E+03  0.00000000000E+00 0. -1.
         22    1    3    3    0    0 -0.12728746016E+01 -0.32582647583E+02  0.26040228109E+02  0.41729397471E+02  0.00000000000E+00 0. -1.
</event>
<event>
 7    1  0.5064652E-006  0.4175243E+03  0.7818608E-02  0.1253562E+00
          2   -1    0    0  502    0  0.00000000000E+00  0.00000000000E+00  0.22712357938E+04  0.22712357938E+04  0.00000000000E+00 0. -1.
          1   -1    0    0  501    0 -0.00000000000E+00 -0.00000000000E+00 -0.94350978912E+03  0.94350978912E+03  0.00000000000E+00 0. -1.
         25    2    1    2    0    0 -0.40707257244E+03 -0.10426816552E+03 -0.72280470157E+03  0.84537065241E+03  0.12499989505E+03 0.  0.
          2    1    1    2  501    0  0.38640640626E+03  0.12745060748E+03  0.10051817600E+03  0.41911510573E+03  0.00000000000E+00 0. -1.
          1    1    1    2  502    0  0.20666166187E+02 -0.23182441966E+02  0.19500125302E+04  0.19502598247E+04  0.00000000000E+00 0. -1.
         22    1    3    3    0    0 -0.33692478147E+03 -0.48792589259E+02 -0.49622200644E+03  0.60177678985E+03  0.00000000000E+00 0. -1.
         22    1    3    3    0    0 -0.70147790977E+02 -0.55475576258E+02 -0.22658269513E+03  0.24359386255E+03  0.00000000000E+00 0. -1.
</event>
<event>
 7    1  0.5064652E-006  0.5462767E+02  0.7818608E-02  0.1488502E+00
          2   -1    0    0  502    0  0.00000000000E+00  0.00000000000E+00  0.14570279419E+04  0.14570279419E+04  0.00000000000E+00 0. -1.
          1   -1    0    0  501    0 -0.00000000000E+00 -0.00000000000E+00 -0.27538018895E+03  0.27538018895E+03  0.00000000000E+00 0. -1.
         25    2    1    2    0    0  0.70937254502E+02  0.48536947375E+02  0.68951264747E+03  0.70600414616E+03  0.12500493606E+03 0.  0.
          2    1    1    2  501    0 -0.49566257375E+02 -0.22677486785E+02 -0.26397812300E+03  0.26954690074E+03  0.00000000000E+00 0. -1.
          1    1    1    2  502    0 -0.21370997127E+02 -0.25859460589E+02  0.75611322846E+03  0.75685708391E+03  0.00000000000E+00 0. -1.
         22    1    3    3    0    0  0.61706499370E+02  0.67751848934E+02  0.67254187978E+03  0.67875664649E+03  0.00000000000E+00 0. -1.
         22    1    3    3    0    0  0.92307551322E+01 -0.19214901560E+02  0.16970767690E+02  0.27247499670E+02  0.00000000000E+00 0. -1.
</event>
<event>
 7    1  0.5064652E-006  0.7470507E+02  0.7818608E-02  0.1385977E+00
          2   -1    0    0  502    0  0.00000000000E+00  0.00000000000E+00  0.14415470154E+04  0.14415470154E+04  0.00000000000E+00 0. -1.
          1   -1    0    0  501    0 -0.00000000000E+00 -0.00000000000E+00 -0.16450373931E+03  0.16450373931E+03  0.00000000000E+00 0. -1.
         25    2    1    2    0    0 -0.30772032912E+02  0.29160960180E+02  0.19868539671E+03  0.23853387281E+03  0.12500096800E+03 0.  0.
          2    1    1    2  501    0  0.67632650258E+01 -0.76401644509E+02 -0.13378720153E+03  0.15421403416E+03  0.00000000000E+00 0. -1.
          1    1    1    2  502    0  0.24008767886E+02  0.47240684329E+02  0.12121450809E+04  0.12133028477E+04  0.00000000000E+00 0. -1.
         22    1    3    3    0    0  0.49820600167E+00 -0.37515683504E+02  0.14592626440E+02  0.40256918218E+02  0.00000000000E+00 0. -1.
         22    1    3    3    0    0 -0.31270238913E+02  0.66676643684E+02  0.18409277027E+03  0.19827695459E+03  0.00000000000E+00 0. -1.
</event>
<event>
 7    1  0.5064652E-006  0.1908612E+03  0.7818608E-02  0.1324518E+00
          2   -1    0    0  502    0  0.00000000000E+00  0.00000000000E+00  0.47024188153E+03  0.47024188153E+03  0.00000000000E+00 0. -1.
          1   -1    0    0  501    0 -0.00000000000E+00 -0.00000000000E+00 -0.87803206491E+03  0.87803206491E+03  0.00000000000E+00 0. -1.
         25    2    1    2    0    0  0.11847759147E+03 -0.16308545625E+03 -0.69987650774E+03  0.73897240979E+03  0.12497716041E+03 0.  0.
          2    1    1    2  501    0 -0.96530902277E+02  0.13594536840E+03 -0.11383298853E+03  0.20188439158E+03  0.00000000000E+00 0. -1.
          1    1    1    2  502    0 -0.21946689197E+02  0.27140087845E+02  0.40591931288E+03  0.40741714508E+03  0.00000000000E+00 0. -1.
         22    1    3    3    0    0 -0.40102012169E+00  0.95142955897E+00  0.52350505686E+01  0.53358963445E+01  0.00000000000E+00 0. -1.
         22    1    3    3    0    0  0.11887861160E+03 -0.16403688581E+03 -0.70511155831E+03  0.73363651344E+03  0.00000000000E+00 0. -1.
</event>
<event>
 7    1  0.5064652E-006  0.7767734E+02  0.7818608E-02  0.1358842E+00
          2   -1    0    0  502    0  0.00000000000E+00  0.00000000000E+00  0.38191789842E+03  0.38191789842E+03  0.00000000000E+00 0. -1.
          1   -1    0    0  501    0 -0.00000000000E+00 -0.00000000000E+00 -0.91234386474E+03  0.91234386474E+03  0.00000000000E+00 0. -1.
         25    2    1    2    0    0  0.73820207640E+02 -0.48234675180E+02  0.15371477935E+03  0.21687845555E+03  0.12502809343E+03 0.  0.
          2    1    1    2  501    0  0.48201098075E+01  0.63566026103E+02 -0.87138696483E+03  0.87371569496E+03  0.00000000000E+00 0. -1.
          1    1    1    2  502    0 -0.78640317447E+02 -0.15331350923E+02  0.18724621917E+03  0.20366761265E+03  0.00000000000E+00 0. -1.
         22    1    3    3    0    0 -0.94745738034E+01  0.29416588516E+02  0.66870143212E+02  0.73666269635E+02  0.00000000000E+00 0.  1.
         22    1    3    3    0    0  0.83294781443E+02 -0.77651263697E+02  0.86844636138E+02  0.14321218592E+03  0.00000000000E+00 0.  1.
</event>
<event>
 7    1  0.6264096E-006  0.1271466E+03  0.7818608E-02  0.1246588E+00
          2   -1    0    0  502    0  0.00000000000E+00  0.00000000000E+00  0.14649364654E+04  0.14649364654E+04  0.00000000000E+00 0. -1.
          1   -1    0    0  501    0 -0.00000000000E+00 -0.00000000000E+00 -0.89859729010E+03  0.89859729010E+03  0.00000000000E+00 0. -1.
         25    2    1    2    0    0 -0.93530469933E+01  0.51236575615E+02 -0.70262715332E+02  0.15255901809E+03  0.12499895466E+03 0.  0.
          2    1    1    2  501    0 -0.77697961859E+02 -0.11739975688E+03 -0.77876647213E+03  0.79138921796E+03  0.00000000000E+00 0. -1.
          1    1    1    2  502    0  0.87051008852E+02  0.66163181262E+02  0.14153683628E+04  0.14195855194E+04  0.00000000000E+00 0. -1.
         22    1    3    3    0    0 -0.63273300762E+02  0.51340900094E+02 -0.43308634790E+02  0.92276955190E+02  0.00000000000E+00 0. -1.
         22    1    3    3    0    0  0.53920253769E+02 -0.10432447901E+00 -0.26954080542E+02  0.60282062904E+02  0.00000000000E+00 0. -1.
</event>
<event>
 7    1  0.5064652E-006  0.4602874E+02  0.7818608E-02  0.1523965E+00
          2   -1    0    0  502    0  0.00000000000E+00  0.00000000000E+00  0.64383944361E+03  0.64383944361E+03  0.00000000000E+00 0. -1.
          1   -1    0    0  501    0 -0.00000000000E+00 -0.00000000000E+00 -0.20547076401E+03  0.20547076401E+03  0.00000000000E+00 0. -1.
         25    2    1    2    0    0  0.38435611524E+02  0.58070611475E+02  0.96098111393E+02  0.17236413610E+03  0.12500022499E+03 0.  0.
          2    1    1    2  501    0 -0.16893303252E+01 -0.31222363140E+02 -0.16484917687E+03  0.16778838134E+03  0.00000000000E+00 0. -1.
          1    1    1    2  502    0 -0.36746281199E+02 -0.26848248335E+02  0.50711974508E+03  0.50915769018E+03  0.00000000000E+00 0. -1.
         22    1    3    3    0    0 -0.15326499316E+02  0.57635787513E+02 -0.28997209275E+01  0.59709245222E+02  0.00000000000E+00 0.  1.
         22    1    3    3    0    0  0.53762110840E+02  0.43482396168E+00  0.98997832320E+02  0.11265489087E+03  0.00000000000E+00 0.  1.
</event>
<event>
 7    1  0.5064652E-006  0.7733597E+02  0.7818608E-02  0.1420794E+00
          2   -1    0    0  502    0  0.00000000000E+00  0.00000000000E+00  0.77368113084E+03  0.77368113084E+03  0.00000000000E+00 0. -1.
          1   -1    0    0  501    0 -0.00000000000E+00 -0.00000000000E+00 -0.46543343524E+03  0.46543343524E+03  0.00000000000E+00 0. -1.
         25    2    1    2    0    0 -0.85128838398E+02  0.37113195711E+02 -0.32330173886E+02  0.15906148478E+03  0.12502402719E+03 0.  0.
          2    1    1    2  501    0  0.51631886422E+02 -0.56903928167E+02 -0.36520407602E+03  0.37319957915E+03  0.00000000000E+00 0. -1.
          1    1    1    2  502    0  0.33496951976E+02  0.19790732456E+02  0.70578194551E+03  0.70685350214E+03  0.00000000000E+00 0. -1.
         22    1    3    3    0    0  0.15448023028E+01  0.12475836803E+01 -0.60956959264E+02  0.60989292191E+02  0.00000000000E+00 0. -1.
         22    1    3    3    0    0 -0.86673640701E+02  0.35865612031E+02  0.28626785379E+02  0.98072192592E+02  0.00000000000E+00 0. -1.
</event>
<event>
 7    1  0.5064652E-006  0.6803279E+02  0.7818608E-02  0.1466247E+00
          2   -1    0    0  502    0  0.00000000000E+00  0.00000000000E+00  0.44539181171E+03  0.44539181171E+03  0.00000000000E+00 0. -1.
          1   -1    0    0  501    0 -0.00000000000E+00 -0.00000000000E+00 -0.16374755827E+04  0.16374755827E+04  0.00000000000E+00 0. -1.
         25    2    1    2    0    0 -0.55459884902E+02  0.25998537883E+02  0.23649180449E+03  0.27441778414E+03  0.12500009543E+03 0.  0.
          2    1    1    2  501    0  0.41243604858E+02 -0.54154089570E+02 -0.16164818887E+04  0.16179145209E+04  0.00000000000E+00 0. -1.
          1    1    1    2  502    0  0.14216280044E+02  0.28155551688E+02  0.18790631327E+03  0.19053508936E+03  0.00000000000E+00 0. -1.
         22    1    3    3    0    0  0.30450592346E+02  0.41036087058E+02  0.72851799424E+02  0.88986424215E+02  0.00000000000E+00 0.  1.
         22    1    3    3    0    0 -0.85910477248E+02 -0.15037549175E+02  0.16364000506E+03  0.18543135992E+03  0.00000000000E+00 0.  1.
</event>
<event>
 7    1  0.5064652E-006  0.3990738E+02  0.7818608E-02  0.1516143E+00
          2   -1    0    0  502    0  0.00000000000E+00  0.00000000000E+00  0.10026111508E+04  0.10026111508E+04  0.00000000000E+00 0. -1.
          1   -1    0    0  501    0 -0.00000000000E+00 -0.00000000000E+00 -0.73601193561E+03  0.73601193561E+03  0.00000000000E+00 0. -1.
         25    2    1    2    0    0  0.34548206450E+02  0.41382090063E+02  0.11968196342E+03  0.18126287295E+03  0.12500560305E+03 0.  0.
          2    1    1    2  501    0  0.34178445267E+01 -0.39766660511E+02 -0.70423247047E+03  0.70536263114E+03  0.00000000000E+00 0. -1.
          1    1    1    2  502    0 -0.37966050977E+02 -0.16154295522E+01  0.85114972227E+03  0.85199758236E+03  0.00000000000E+00 0. -1.
         22    1    3    3    0    0 -0.11057717821E+02 -0.38293717634E+02  0.16463458813E+02  0.43124556922E+02  0.00000000000E+00 0. -1.
         22    1    3    3    0    0  0.45605924271E+02  0.79675807697E+02  0.10321850461E+03  0.13813831603E+03  0.00000000000E+00 0. -1.
</event>
<event>
 7    1  0.5064652E-006  0.5203953E+02  0.7818608E-02  0.1464758E+00
          2   -1    0    0  502    0  0.00000000000E+00  0.00000000000E+00  0.97437978986E+01  0.97437978986E+01  0.00000000000E+00 0. -1.
          1   -1    0    0  501    0 -0.00000000000E+00 -0.00000000000E+00 -0.15779297677E+04  0.15779297677E+04  0.00000000000E+00 0. -1.
         25    2    1    2    0    0  0.27936478320E+01  0.56169375527E+00 -0.59663664133E+03  0.60959677247E+03  0.12499929307E+03 0.  0.
          2    1    1    2  501    0 -0.50715971182E+02 -0.20848715402E+02 -0.34067158336E+03  0.34505638144E+03  0.00000000000E+00 0. -1.
          1    1    1    2  502    0  0.47922323350E+02  0.20287021646E+02 -0.63087774512E+03  0.63302041168E+03  0.00000000000E+00 0. -1.
         22    1    3    3    0    0 -0.53976293417E+02 -0.73081454311E+01 -0.15573263610E+03  0.16498334215E+03  0.00000000000E+00 0. -1.
         22    1    3    3    0    0  0.56769941249E+02  0.78698391864E+01 -0.44090400523E+03  0.44461343032E+03  0.00000000000E+00 0. -1.
</event>
<event>
 7    1  0.5064652E-006  0.7027189E+02  0.7818608E-02  0.1483986E+00
          2   -1    0    0  502    0  0.00000000000E+00  0.00000000000E+00  0.34092682740E+03  0.34092682740E+03  0.00000000000E+00 0. -1.
          1   -1    0    0  501    0 -0.00000000000E+00 -0.00000000000E+00 -0.16058248037E+03  0.16058248037E+03  0.00000000000E+00 0. -1.
         25    2    1    2    0    0 -0.51546713935E+02  0.11253441176E+02  0.16304239714E+03  0.21214432662E+03  0.12505474159E+03 0.  0.
          2    1    1    2  501    0 -0.20511349517E+02  0.17429738181E+02 -0.12469557456E+03  0.12756761950E+03  0.00000000000E+00 0. -1.
          1    1    1    2  502    0  0.72058063453E+02 -0.28683179357E+02  0.14199752444E+03  0.16179736164E+03  0.00000000000E+00 0. -1.
         22    1    3    3    0    0 -0.31444700465E+02  0.37904687566E+01  0.18126086716E+03  0.18400717053E+03  0.00000000000E+00 0. -1.
         22    1    3    3    0    0 -0.20102013471E+02  0.74629724194E+01 -0.18218470023E+02  0.28137156091E+02  0.00000000000E+00 0. -1.
</event>
<event>
 7    1  0.5064652E-006  0.8154986E+02  0.7818608E-02  0.1414748E+00
          2   -1    0    0  502    0  0.00000000000E+00  0.00000000000E+00  0.63073960455E+03  0.63073960455E+03  0.00000000000E+00 0. -1.
          1   -1    0    0  501    0 -0.00000000000E+00 -0.00000000000E+00 -0.17686812550E+03  0.17686812550E+03  0.00000000000E+00 0. -1.
         25    2    1    2    0    0 -0.75733625060E+02  0.68463123039E+01 -0.36524113727E+02  0.15080161356E+03  0.12499864724E+03 0.  0.
          2    1    1    2  501    0  0.80105254155E+02  0.31563815115E+02 -0.60070810604E+02  0.10498394379E+03  0.00000000000E+00 0. -1.
          1    1    1    2  502    0 -0.43716290946E+01 -0.38410127419E+02  0.55046640338E+03  0.55182217270E+03  0.00000000000E+00 0. -1.
         22    1    3    3    0    0 -0.98895148028E+02 -0.28213794714E+02 -0.35411910317E+02  0.10876705341E+03  0.00000000000E+00 0. -1.
         22    1    3    3    0    0  0.23161522968E+02  0.35060107018E+02 -0.11122034097E+01  0.42034560147E+02  0.00000000000E+00 0. -1.
</event>
<event>
 7    1  0.5064652E-006  0.2408893E+03  0.7818608E-02  0.1312291E+00
          2   -1    0    0  502    0  0.00000000000E+00  0.00000000000E+00  0.76760132288E+03  0.76760132288E+03  0.00000000000E+00 0. -1.
          1   -1    0    0  501    0 -0.00000000000E+00 -0.00000000000E+00 -0.86467522149E+03  0.86467522149E+03  0.00000000000E+00 0. -1.
         25    2    1    2    0    0 -0.22764437608E+03 -0.89221684235E+02  0.17854321256E+03  0.32754663743E+03  0.12500660001E+03 0.  0.
          2    1    1    2  501    0  0.23343890864E+03  0.58915625302E+02 -0.77134345799E+03  0.80804424703E+03  0.00000000000E+00 0. -1.
          1    1    1    2  502    0 -0.57945325604E+01  0.30306058933E+02  0.49572634683E+03  0.49668565990E+03  0.00000000000E+00 0. -1.
         22    1    3    3    0    0 -0.16938815530E+03 -0.16241041780E+01  0.10872286870E+03  0.20128498962E+03  0.00000000000E+00 0.  1.
         22    1    3    3    0    0 -0.58256220780E+02 -0.87597580057E+02  0.69820343860E+02  0.12626164781E+03  0.00000000000E+00 0.  1.
</event>
<event>
 7    1  0.5064652E-006  0.8041214E+02  0.7818608E-02  0.1343457E+00
          2   -1    0    0  502    0  0.00000000000E+00  0.00000000000E+00  0.24367144993E+03  0.24367144993E+03  0.00000000000E+00 0. -1.
          1   -1    0    0  501    0 -0.00000000000E+00 -0.00000000000E+00 -0.16739029591E+04  0.16739029591E+04  0.00000000000E+00 0. -1.
         25    2    1    2    0    0 -0.85993252530E+02  0.83899685408E+01 -0.33782423960E+03  0.37042449395E+03  0.12499543115E+03 0.  0.
          2    1    1    2  501    0  0.59505776927E+02  0.56623475732E+02 -0.13130456315E+04  0.13156123996E+04  0.00000000000E+00 0. -1.
          1    1    1    2  502    0  0.26487475603E+02 -0.65013444272E+02  0.22063836196E+03  0.23153751547E+03  0.00000000000E+00 0. -1.
         22    1    3    3    0    0  0.57886553615E+01  0.36430147691E+02 -0.19430073561E+03  0.19777118104E+03  0.00000000000E+00 0.  1.
         22    1    3    3    0    0 -0.91781907891E+02 -0.28040179150E+02 -0.14352350399E+03  0.17265331291E+03  0.00000000000E+00 0.  1.
</event>
<event>
 7    1  0.5064652E-006  0.5482621E+02  0.7818608E-02  0.1452072E+00
          2   -1    0    0  502    0  0.00000000000E+00  0.00000000000E+00  0.98398531219E+03  0.98398531219E+03  0.00000000000E+00 0. -1.
          1   -1    0    0  501    0 -0.00000000000E+00 -0.00000000000E+00 -0.86366332324E+02  0.86366332324E+02  0.00000000000E+00 0. -1.
         25    2    1    2    0    0 -0.29055002650E+02 -0.86127457357E+02  0.30811681634E+03  0.34471100902E+03  0.12501030013E+03 0.  0.
          2    1    1    2  501    0  0.27919782204E+02  0.33212592878E+02 -0.59967374017E+02  0.74018082322E+02  0.00000000000E+00 0. -1.
          1    1    1    2  502    0  0.11352204459E+01  0.52914864479E+02  0.64946953755E+03  0.65162255318E+03  0.00000000000E+00 0. -1.
         22    1    3    3    0    0  0.44079260330E+02 -0.11700528079E+02  0.58604398280E+02  0.74258730438E+02  0.00000000000E+00 0.  1.
         22    1    3    3    0    0 -0.73134262980E+02 -0.74426929277E+02  0.24951241806E+03  0.27045227858E+03  0.00000000000E+00 0.  1.
</event>
<event>
 7    1  0.5064652E-006  0.7444266E+02  0.7818608E-02  0.1425086E+00
          2   -1    0    0  502    0  0.00000000000E+00  0.00000000000E+00  0.30971699526E+04  0.30971699526E+04  0.00000000000E+00 0. -1.
          1   -1    0    0  501    0 -0.00000000000E+00 -0.00000000000E+00 -0.34201870419E+02  0.34201870419E+02  0.00000000000E+00 0. -1.
         25    2    1    2    0    0  0.22045838263E+02  0.10676506165E+03  0.90167166441E+03  0.91679962697E+03  0.12499987296E+03 0.  0.
          2    1    1    2  501    0  0.18816628421E+01 -0.39066752034E+02 -0.11360974698E+02  0.40728657179E+02  0.00000000000E+00 0. -1.
          1    1    1    2  502    0 -0.23927501105E+02 -0.67698309613E+02  0.21726573925E+04  0.21738435389E+04  0.00000000000E+00 0. -1.
         22    1    3    3    0    0  0.13031704218E+02  0.14437359473E+02  0.13216732401E+02  0.23514775754E+02  0.00000000000E+00 0.  1.
         22    1    3    3    0    0  0.90141340448E+01  0.92327702174E+02  0.88845493201E+03  0.89328485122E+03  0.00000000000E+00 0.  1.
</event>
<event>
 7    1  0.5064652E-006  0.1337454E+03  0.7818608E-02  0.1244984E+00
          2   -1    0    0  502    0  0.00000000000E+00  0.00000000000E+00  0.14726466029E+04  0.14726466029E+04  0.00000000000E+00 0. -1.
          1   -1    0    0  501    0 -0.00000000000E+00 -0.00000000000E+00 -0.26901796780E+04  0.26901796780E+04  0.00000000000E+00 0. -1.
         25    2    1    2    0    0  0.21997831413E+03 -0.89398810836E+02 -0.99279204538E+02  0.28611893511E+03  0.12500031404E+03 0.  0.
          2    1    1    2  501    0 -0.12221102902E+03  0.49387871224E+02 -0.24937146693E+04  0.24971959373E+04  0.00000000000E+00 0. -1.
          1    1    1    2  502    0 -0.97767285105E+02  0.40010939612E+02  0.13754607987E+04  0.13795114085E+04  0.00000000000E+00 0. -1.
         22    1    3    3    0    0  0.41583713158E+02 -0.79432471871E+02 -0.31964603813E+02  0.95186441705E+02  0.00000000000E+00 0.  1.
         22    1    3    3    0    0  0.17839460097E+03 -0.99663389660E+01 -0.67314600725E+02  0.19093249341E+03  0.00000000000E+00 0.  1.
</event>
<event>
 7    1  0.5064652E-006  0.1360042E+03  0.7818608E-02  0.1304719E+00
          2   -1    0    0  502    0  0.00000000000E+00  0.00000000000E+00  0.13026245426E+04  0.13026245426E+04  0.00000000000E+00 0. -1.
          1   -1    0    0  501    0 -0.00000000000E+00 -0.00000000000E+00 -0.11373891805E+04  0.11373891805E+04  0.00000000000E+00 0. -1.
         25    2    1    2    0    0  0.94729632899E+02  0.24843681765E+02  0.32235929875E+03  0.35934890857E+03  0.12500083492E+03 0.  0.
          2    1    1    2  501    0  0.53834472667E+02 -0.23011438833E+02 -0.11123819409E+04  0.11139215678E+04  0.00000000000E+00 0. -1.
          1    1    1    2  502    0 -0.14856410557E+03 -0.18322429323E+01  0.95525800420E+03  0.96674324677E+03  0.00000000000E+00 0. -1.
         22    1    3    3    0    0 -0.24741031612E+02 -0.14744429995E+02  0.32987434017E+02  0.43791410849E+02  0.00000000000E+00 0. -1.
         22    1    3    3    0    0  0.11947066451E+03  0.39588111761E+02  0.28937186473E+03  0.31555749772E+03  0.00000000000E+00 0. -1.
</event>
<event>
 7    1  0.5064652E-006  0.8029287E+02  0.7818608E-02  0.1448293E+00
          2   -1    0    0  502    0  0.00000000000E+00  0.00000000000E+00  0.27018943179E+03  0.27018943179E+03  0.00000000000E+00 0. -1.
          1   -1    0    0  501    0 -0.00000000000E+00 -0.00000000000E+00 -0.18429071308E+03  0.18429071308E+03  0.00000000000E+00 0. -1.
         25    2    1    2    0    0  0.78417016524E+02  0.36502768104E+02  0.19171586040E+03  0.24466885081E+03  0.12500477937E+03 0.  0.
          2    1    1    2  501    0 -0.56169123916E+02 -0.57312491761E+02 -0.14163624289E+03  0.16278979542E+03  0.00000000000E+00 0. -1.
          1    1    1    2  502    0 -0.22247892608E+02  0.20809723657E+02  0.35819101197E+02  0.47021498644E+02  0.00000000000E+00 0. -1.
         22    1    3    3    0    0  0.42616370201E+02  0.69002796481E+02  0.50824413368E+02  0.95711346901E+02  0.00000000000E+00 0.  1.
         22    1    3    3    0    0  0.35800646323E+02 -0.32500028378E+02  0.14089144704E+03  0.14895750390E+03  0.00000000000E+00 0.  1.
</event>
<event>
 7    1  0.5064652E-006  0.3930847E+02  0.7818608E-02  0.1575601E+00
          2   -1    0    0  502    0  0.00000000000E+00  0.00000000000E+00  0.12989110454E+04  0.12989110454E+04  0.00000000000E+00 0. -1.
          1   -1    0    0  501    0 -0.00000000000E+00 -0.00000000000E+00 -0.77409423473E+02  0.77409423473E+02  0.00000000000E+00 0. -1.
         25    2    1    2    0    0  0.71242850325E+01 -0.53319066179E+02  0.57780912126E+03  0.59361799854E+03  0.12500107731E+03 0.  0.
          2    1    1    2  501    0 -0.22584139996E+02  0.32075053563E+02 -0.63706573355E+02  0.74815639602E+02  0.00000000000E+00 0. -1.
          1    1    1    2  502    0  0.15459854963E+02  0.21244012616E+02  0.70739907402E+03  0.70788683072E+03  0.00000000000E+00 0. -1.
         22    1    3    3    0    0 -0.42370953887E+02  0.15383228078E+02  0.12313479959E+03  0.13112635246E+03  0.00000000000E+00 0. -1.
         22    1    3    3    0    0  0.49495238919E+02 -0.68702294257E+02  0.45467432167E+03  0.46249164608E+03  0.00000000000E+00 0. -1.
</event>
<event>
 7    1  0.5064652E-006  0.7137865E+02  0.7818608E-02  0.1512758E+00
          2   -1    0    0  502    0  0.00000000000E+00  0.00000000000E+00  0.88972115591E+03  0.88972115591E+03  0.00000000000E+00 0. -1.
          1   -1    0    0  501    0 -0.00000000000E+00 -0.00000000000E+00 -0.23134437697E+04  0.23134437697E+04  0.00000000000E+00 0. -1.
         25    2    1    2    0    0 -0.46029312044E+02  0.76443941092E+02 -0.59911836807E+02  0.16485530430E+03  0.12500187786E+03 0.  0.
          2    1    1    2  501    0  0.27046330572E+02 -0.65856452575E+02 -0.22003432964E+04  0.22014947645E+04  0.00000000000E+00 0. -1.
          1    1    1    2  502    0  0.18982981473E+02 -0.10587488517E+02  0.83653251940E+03  0.83681485677E+03  0.00000000000E+00 0. -1.
         22    1    3    3    0    0 -0.47953477146E+02  0.10697150539E+03 -0.64695624798E+02  0.13389534272E+03  0.00000000000E+00 0.  1.
         22    1    3    3    0    0  0.19241651019E+01 -0.30527564295E+02  0.47837879912E+01  0.30959961574E+02  0.00000000000E+00 0.  1.
</event>
<event>
 7    1  0.5064652E-006  0.5856533E+02  0.7818608E-02  0.1432171E+00
          2   -1    0    0  502    0  0.00000000000E+00  0.00000000000E+00  0.56060658335E+03  0.56060658335E+03  0.00000000000E+00 0. -1.
          1   -1    0    0  501    0 -0.00000000000E+00 -0.00000000000E+00 -0.29119648353E+04  0.29119648353E+04  0.00000000000E+00 0. -1.
         25    2    1    2    0    0 -0.17822083408E+01 -0.16961832139E+02 -0.32347418801E+02  0.13024525321E+03  0.12500636170E+03 0.  0.
          2    1    1    2  501    0  0.32731450077E+02 -0.33883085466E+02 -0.28287405328E+04  0.28291328023E+04  0.00000000000E+00 0. -1.
          1    1    1    2  502    0 -0.30949241736E+02  0.50844917606E+02  0.50972969966E+03  0.51319336310E+03  0.00000000000E+00 0. -1.
         22    1    3    3    0    0 -0.36421441203E+02 -0.51950649412E+02 -0.46906648470E+02  0.78902630021E+02  0.00000000000E+00 0. -1.
         22    1    3    3    0    0  0.34639232862E+02  0.34988817273E+02  0.14559229669E+02  0.51342623189E+02  0.00000000000E+00 0. -1.
</event>
<event>
 7    1  0.5064652E-006  0.2748858E+03  0.7818608E-02  0.1306643E+00
          2   -1    0    0  502    0  0.00000000000E+00  0.00000000000E+00  0.98929874250E+03  0.98929874250E+03  0.00000000000E+00 0. -1.
          1   -1    0    0  501    0 -0.00000000000E+00 -0.00000000000E+00 -0.39463881001E+03  0.39463881001E+03  0.00000000000E+00 0. -1.
         25    2    1    2    0    0  0.24058302772E+03  0.14635010731E+03 -0.10069319826E+03  0.32413358915E+03  0.12499966522E+03 0.  0.
          2    1    1    2  501    0 -0.21613232138E+03 -0.16091918065E+03 -0.82209396249E+02  0.28172069125E+03  0.00000000000E+00 0. -1.
          1    1    1    2  502    0 -0.24450706333E+02  0.14569073339E+02  0.77756252700E+03  0.77808327211E+03  0.00000000000E+00 0. -1.
         22    1    3    3    0    0  0.43580333520E+01 -0.53958809702E+01  0.18015358694E+02  0.19304433041E+02  0.00000000000E+00 0. -1.
         22    1    3    3    0    0  0.23622499436E+03  0.15174598828E+03 -0.11870855695E+03  0.30482915611E+03  0.00000000000E+00 0. -1.
</event>
<event>
 7    1  0.5064652E-006  0.7137657E+02  0.7818608E-02  0.1489101E+00
          2   -1    0    0  502    0  0.00000000000E+00  0.00000000000E+00  0.12442413490E+03  0.12442413490E+03  0.00000000000E+00 0. -1.
          1   -1    0    0  501    0 -0.00000000000E+00 -0.00000000000E+00 -0.12791595711E+03  0.12791595711E+03  0.00000000000E+00 0. -1.
         25    2    1    2    0    0  0.56279597917E+02 -0.96537351429E+01 -0.14308996757E+02  0.13816871163E+03  0.12500103097E+03 0.  0.
          2    1    1    2  501    0 -0.74993357851E+02  0.27075895385E+02 -0.11093117441E+02  0.80499472590E+02  0.00000000000E+00 0. -1.
          1    1    1    2  502    0  0.18713759934E+02 -0.17422160242E+02  0.21910291990E+02  0.33671907779E+02  0.00000000000E+00 0. -1.
         22    1    3    3    0    0  0.91579845870E+02 -0.12979746735E+02  0.13013585684E+02  0.93406078000E+02  0.00000000000E+00 0. -1.
         22    1    3    3    0    0 -0.35300247954E+02  0.33260115920E+01 -0.27322582441E+02  0.44762633635E+02  0.00000000000E+00 0. -1.
</event>
<event>
 7    1  0.5064652E-006  0.1143594E+03  0.7818608E-02  0.1396230E+00
          2   -1    0    0  502    0  0.00000000000E+00  0.00000000000E+00  0.49843095821E+02  0.49843095821E+02  0.00000000000E+00 0. -1.
          1   -1    0    0  501    0 -0.00000000000E+00 -0.00000000000E+00 -0.31161456084E+04  0.31161456084E+04  0.00000000000E+00 0. -1.
         25    2    1    2    0    0 -0.94360954730E+02  0.76728085811E+02 -0.15749162831E+04  0.15845431617E+04  0.12499817433E+03 0.  0.
          2    1    1    2  501    0  0.27609966096E+02  0.15944800659E+02 -0.14635432417E+04  0.14638904902E+04  0.00000000000E+00 0. -1.
          1    1    1    2  502    0  0.66750988634E+02 -0.92672886470E+02 -0.27842987814E+02  0.11755505238E+03  0.00000000000E+00 0. -1.
         22    1    3    3    0    0 -0.77168947150E+02  0.47919591957E+02 -0.14964683411E+04  0.14992227418E+04  0.00000000000E+00 0.  1.
         22    1    3    3    0    0 -0.17192007580E+02  0.28808493854E+02 -0.78447941967E+02  0.85320419839E+02  0.00000000000E+00 0.  1.
</event>
<event>
 7    1  0.5064652E-006  0.6412070E+02  0.7818608E-02  0.1531453E+00
          2   -1    0    0  502    0  0.00000000000E+00  0.00000000000E+00  0.12178732859E+04  0.12178732859E+04  0.00000000000E+00 0. -1.
          1   -1    0    0  501    0 -0.00000000000E+00 -0.00000000000E+00 -0.34496356512E+03  0.34496356512E+03  0.00000000000E+00 0. -1.
         25    2    1    2    0    0 -0.50878068351E+02 -0.63805635657E+02 -0.16999948731E+03  0.22623688208E+03  0.12499425645E+03 0.  0.
          2    1    1    2  501    0  0.38290637947E+02  0.46548059472E+02 -0.14056004498E+03  0.15293796468E+03  0.00000000000E+00 0. -1.
          1    1    1    2  502    0  0.12587430404E+02  0.17257576185E+02  0.11834692531E+04  0.11836620042E+04  0.00000000000E+00 0. -1.
         22    1    3    3    0    0 -0.87833532582E+02 -0.17589532878E+02 -0.92980832609E+02  0.12911063607E+03  0.00000000000E+00 0. -1.
         22    1    3    3    0    0  0.36955464231E+02 -0.46216102779E+02 -0.77018654702E+02  0.97126246014E+02  0.00000000000E+00 0. -1.
</event>
<event>
 7    1  0.5064652E-006  0.1762296E+03  0.7818608E-02  0.1267530E+00
          2   -1    0    0  502    0  0.00000000000E+00  0.00000000000E+00  0.76438348764E+03  0.76438348764E+03  0.00000000000E+00 0. -1.
          1   -1    0    0  501    0 -0.00000000000E+00 -0.00000000000E+00 -0.56695505653E+03  0.56695505653E+03  0.00000000000E+00 0. -1.
         25    2    1    2    0    0  0.96219374162E+02  0.19380660700E+03 -0.72070984697E+02  0.26007485041E+03  0.12500212837E+03 0.  0.
          2    1    1    2  501    0 -0.59570740277E+02 -0.23801678325E+02 -0.38691764781E+03  0.39219951450E+03  0.00000000000E+00 0. -1.
          1    1    1    2  502    0 -0.36648633885E+02 -0.17000492868E+03  0.65641706363E+03  0.67906417926E+03  0.00000000000E+00 0. -1.
         22    1    3    3    0    0  0.71732008208E+02  0.20354733145E+03 -0.83424195238E+02  0.23137976034E+03  0.00000000000E+00 0. -1.
         22    1    3    3    0    0  0.24487365954E+02 -0.97407244542E+01  0.11353210541E+02  0.28695090065E+02  0.00000000000E+00 0. -1.
</event>
<event>
 7    1  0.5064652E-006  0.1452955E+03  0.7818608E-02  0.1313485E+00
          2   -1    0    0  502    0  0.00000000000E+00  0.00000000000E+00  0.29541218880E+03  0.29541218880E+03  0.00000000000E+00 0. -1.
          1   -1    0    0  501    0 -0.00000000000E+00 -0.00000000000E+00 -0.59331472019E+03  0.59331472019E+03  0.00000000000E+00 0. -1.
         25    2    1    2    0    0  0.89646563339E+02 -0.15112302127E+03 -0.23569382898E+03  0.31945667901E+03  0.12500525936E+03 0.  0.
          2    1    1    2  501    0 -0.48724232436E+02  0.13673449497E+02 -0.29311566290E+03  0.29745219092E+03  0.00000000000E+00 0. -1.
          1    1    1    2  502    0 -0.40922330903E+02  0.13744957178E+03  0.23090696050E+03  0.27181803905E+03  0.00000000000E+00 0. -1.
         22    1    3    3    0    0 -0.94603467130E+00  0.17845567296E+02 -0.47726468262E+02  0.50962486463E+02  0.00000000000E+00 0.  1.
         22    1    3    3    0    0  0.90592598010E+02 -0.16896858857E+03 -0.18796736072E+03  0.26849419255E+03  0.00000000000E+00 0.  1.
</event>
<event>
 7    1  0.5064652E-006  0.1122155E+03  0.7818608E-02  0.1319145E+00
          2   -1    0    0  502    0  0.00000000000E+00  0.00000000000E+00  0.98114927569E+03  0.98114927569E+03  0.00000000000E+00 0. -1.
          1   -1    0    0  501    0 -0.00000000000E+00 -0.00000000000E+00 -0.14645087930E+03  0.14645087930E+03  0.00000000000E+00 0. -1.
         25    2    1    2    0    0  0.71081831002E+02 -0.24289068270E+02  0.14802206520E+03  0.20779441117E+03  0.12500159996E+03 0.  0.
          2    1    1    2  501    0 -0.84553534009E+02  0.85090362277E+02 -0.84110752761E+02  0.14650695750E+03  0.00000000000E+00 0. -1.
          1    1    1    2  502    0  0.13471703007E+02 -0.60801294007E+02  0.77078708396E+03  0.77329878632E+03  0.00000000000E+00 0. -1.
         22    1    3    3    0    0  0.46088348270E+02 -0.62511399875E+02  0.14183790536E+03  0.16170900518E+03  0.00000000000E+00 0.  1.
         22    1    3    3    0    0  0.24993482732E+02  0.38222331606E+02  0.61841598429E+01  0.46085405992E+02  0.00000000000E+00 0.  1.
</event>
<event>
 7    1  0.5064652E-006  0.4305100E+02  0.7818608E-02  0.1564316E+00
          2   -1    0    0  502    0  0.00000000000E+00  0.00000000000E+00  0.71457260352E+03  0.71457260352E+03  0.00000000000E+00 0. -1.
          1   -1    0    0  501    0 -0.00000000000E+00 -0.00000000000E+00 -0.23110046318E+03  0.23110046318E+03  0.00000000000E+00 0. -1.
         25    2    1    2    0    0  0.22467222172E+02 -0.28613459165E+02  0.20735801899E+03  0.24484068166E+03  0.12500442087E+03 0.  0.
          2    1    1    2  501    0  0.19620858064E+02  0.16667794618E+02 -0.21059402420E+03  0.21216181672E+03  0.00000000000E+00 0. -1.
          1    1    1    2  502    0 -0.42088080236E+02  0.11945664547E+02  0.48670814555E+03  0.48867056832E+03  0.00000000000E+00 0. -1.
         22    1    3    3    0    0  0.34477722940E+02  0.43765134945E+02  0.10552928456E+03  0.11933369313E+03  0.00000000000E+00 0. -1.
         22    1    3    3    0    0 -0.12010500768E+02 -0.72378594110E+02  0.10182873442E+03  0.12550698853E+03  0.00000000000E+00 0. -1.
</event>
<event>
 7    1  0.5064652E-006  0.1211706E+03  0.7818608E-02  0.1337466E+00
          2   -1    0    0  502    0  0.00000000000E+00  0.00000000000E+00  0.35428394254E+03  0.35428394254E+03  0.00000000000E+00 0. -1.
          1   -1    0    0  501    0 -0.00000000000E+00 -0.00000000000E+00 -0.10118332938E+04  0.10118332938E+04  0.00000000000E+00 0. -1.
         25    2    1    2    0    0 -0.19612814387E+00  0.16654204390E+03  0.71049883169E+02  0.22002085949E+03  0.12499920743E+03 0.  0.
          2    1    1    2  501    0  0.13298430041E+02 -0.11925608360E+03 -0.93055778765E+03  0.93826257405E+03  0.00000000000E+00 0. -1.
          1    1    1    2  502    0 -0.13102301897E+02 -0.47285960306E+02  0.20195855323E+03  0.20783380279E+03  0.00000000000E+00 0. -1.
         22    1    3    3    0    0  0.41316644368E+02  0.14534147020E+03  0.22586213535E+02  0.15277874559E+03  0.00000000000E+00 0. -1.
         22    1    3    3    0    0 -0.41512772512E+02  0.21200573702E+02  0.48463669635E+02  0.67242113897E+02  0.00000000000E+00 0. -1.
</event>
<event>
 7    1  0.5064652E-006  0.4655701E+02  0.7818608E-02  0.1483171E+00
          2   -1    0    0  502    0  0.00000000000E+00  0.00000000000E+00  0.15355811190E+03  0.15355811190E+03  0.00000000000E+00 0. -1.
          1   -1    0    0  501    0 -0.00000000000E+00 -0.00000000000E+00 -0.31930530165E+03  0.31930530165E+03  0.00000000000E+00 0. -1.
         25    2    1    2    0    0 -0.31348827356E+02  0.33915614570E+02 -0.11110408229E+03  0.17349989384E+03  0.12500031269E+03 0.  0.
          2    1    1    2  501    0 -0.70857746464E+01 -0.47786245793E+02 -0.17013283358E+03  0.17685845909E+03  0.00000000000E+00 0. -1.
          1    1    1    2  502    0  0.38434602002E+02  0.13870631224E+02  0.11548972611E+03  0.12250506063E+03  0.00000000000E+00 0. -1.
         22    1    3    3    0    0  0.10951550081E+02  0.55033866653E+00 -0.11859968833E+03  0.11910552209E+03  0.00000000000E+00 0.  1.
         22    1    3    3    0    0 -0.42300377437E+02  0.33365275903E+02  0.74956060393E+01  0.54394371743E+02  0.00000000000E+00 0.  1.
</event>
<event>
 7    1  0.5064652E-006  0.1220555E+03  0.7818608E-02  0.1342059E+00
          2   -1    0    0  502    0  0.00000000000E+00  0.00000000000E+00  0.84096445777E+03  0.84096445777E+03  0.00000000000E+00 0. -1.
          1   -1    0    0  501    0 -0.00000000000E+00 -0.00000000000E+00 -0.10699621503E+04  0.10699621503E+04  0.00000000000E+00 0. -1.
         25    2    1    2    0    0  0.85400036007E+02  0.14421031164E+03  0.12079680869E+03  0.24146698309E+03  0.12499861918E+03 0.  0.
          2    1    1    2  501    0 -0.57469246243E+02 -0.10664466466E+03 -0.10051552376E+04  0.10124291829E+04  0.00000000000E+00 0. -1.
          1    1    1    2  502    0 -0.27930789764E+02 -0.37565646979E+02  0.65536073644E+03  0.65703044200E+03  0.00000000000E+00 0. -1.
         22    1    3    3    0    0 -0.32798158256E+02  0.27246903059E+02  0.20970035805E+02  0.47516895026E+02  0.00000000000E+00 0.  1.
         22    1    3    3    0    0  0.11819819426E+03  0.11696340858E+03  0.99826772887E+02  0.19395008806E+03  0.00000000000E+00 0.  1.
</event>
<event>
 7    1  0.5064652E-006  0.8602229E+02  0.7818608E-02  0.1357799E+00
          2   -1    0    0  502    0  0.00000000000E+00  0.00000000000E+00  0.64094226428E+03  0.64094226428E+03  0.00000000000E+00 0. -1.
          1   -1    0    0  501    0 -0.00000000000E+00 -0.00000000000E+00 -0.44813841845E+03  0.44813841845E+03  0.00000000000E+00 0. -1.
         25    2    1    2    0    0  0.16073872070E+02 -0.33352485431E+02 -0.12462713460E+02  0.13096157585E+03  0.12499942989E+03 0.  0.
          2    1    1    2  501    0 -0.66960105275E+02  0.61334753533E+02 -0.36946543394E+03  0.38046066100E+03  0.00000000000E+00 0. -1.
          1    1    1    2  502    0  0.50886233205E+02 -0.27982268102E+02  0.57473199323E+03  0.57765844588E+03  0.00000000000E+00 0. -1.
         22    1    3    3    0    0 -0.44910146952E+02  0.17589270523E+02 -0.17579552799E+02  0.51335605708E+02  0.00000000000E+00 0. -1.
         22    1    3    3    0    0  0.60984019022E+02 -0.50941755954E+02  0.51168393395E+01  0.79625970139E+02  0.00000000000E+00 0. -1.
</event>
<event>
 7    1  0.5064652E-006  0.8822400E+02  0.7818608E-02  0.1415141E+00
          2   -1    0    0  502    0  0.00000000000E+00  0.00000000000E+00  0.74960655837E+03  0.74960655837E+03  0.00000000000E+00 0. -1.
          1   -1    0    0  501    0 -0.00000000000E+00 -0.00000000000E+00 -0.11788626479E+03  0.11788626479E+03  0.00000000000E+00 0. -1.
         25    2    1    2    0    0  0.62190338655E+02 -0.80555024269E+02  0.67197167340E+02  0.17463616671E+03  0.12500232505E+03 0.  0.
          2    1    1    2  501    0  0.11946092039E+02  0.33562491428E+02 -0.55882690855E+02  0.66272355346E+02  0.00000000000E+00 0. -1.
          1    1    1    2  502    0 -0.74136430694E+02  0.46992532841E+02  0.62040581709E+03  0.62658430110E+03  0.00000000000E+00 0. -1.
         22    1    3    3    0    0 -0.27195744800E+01 -0.93524456992E+02  0.27802719742E+02  0.97607434994E+02  0.00000000000E+00 0.  1.
         22    1    3    3    0    0  0.64909913135E+02  0.12969432723E+02  0.39394447598E+02  0.77028731717E+02  0.00000000000E+00 0.  1.
</event>
<event>
 7    1  0.5064652E-006  0.5631072E+02  0.7818608E-02  0.1425669E+00
          2   -1    0    0  502    0  0.00000000000E+00  0.00000000000E+00  0.17550838415E+04  0.17550838415E+04  0.00000000000E+00 0. -1.
          1   -1    0    0  501    0 -0.00000000000E+00 -0.00000000000E+00 -0.17144489697E+03  0.17144489697E+03  0.00000000000E+00 0. -1.
         25    2    1    2    0    0 -0.36233434322E+02  0.67836795376E+02  0.16017433954E+04  0.16084528461E+04  0.12499584355E+03 0.  0.
          2    1    1    2  501    0  0.52951335882E+02 -0.19150587912E+02 -0.15867862095E+03  0.16837307901E+03  0.00000000000E+00 0. -1.
          1    1    1    2  502    0 -0.16717901559E+02 -0.48686207463E+02  0.14057417014E+03  0.14970281340E+03  0.00000000000E+00 0. -1.
         22    1    3    3    0    0  0.82333478223E+01  0.20113176471E+01  0.52190972763E+01  0.99535115120E+01  0.00000000000E+00 0. -1.
         22    1    3    3    0    0 -0.44466782145E+02  0.65825477728E+02  0.15965242981E+04  0.15984993346E+04  0.00000000000E+00 0. -1.
</event>
<event>
 7    1  0.5064652E-006  0.9135057E+02  0.7818608E-02  0.1361282E+00
          2   -1    0    0  502    0  0.00000000000E+00  0.00000000000E+00  0.94018139835E+03  0.94018139835E+03  0.00000000000E+00 0. -1.
          1   -1    0    0  501    0 -0.00000000000E+00 -0.00000000000E+00 -0.75886218320E+02  0.75886218320E+02  0.00000000000E+00 0. -1.
         25    2    1    2    0    0  0.38444230350E+02  0.16020094796E+02  0.49589979790E+03  0.51310845174E+03  0.12501628460E+03 0.  0.
          2    1    1    2  501    0 -0.88455817336E+02 -0.33886003984E+02 -0.31291926572E+02  0.99759097607E+02  0.00000000000E+00 0. -1.
          1    1    1    2  502    0  0.50011586986E+02  0.17865909188E+02  0.39968730871E+03  0.40320006732E+03  0.00000000000E+00 0. -1.
         22    1    3    3    0    0 -0.64488178434E+01  0.64886015657E+02  0.23136046328E+03  0.24037355564E+03  0.00000000000E+00 0. -1.
         22    1    3    3    0    0  0.44893048194E+02 -0.48865920861E+02  0.26453933461E+03  0.27273489611E+03  0.00000000000E+00 0. -1.
</event>
<event>
 7    1  0.5064652E-006  0.1702576E+03  0.7818608E-02  0.1188984E+00
          2   -1    0    0  502    0  0.00000000000E+00  0.00000000000E+00  0.34375152154E+03  0.34375152154E+03  0.00000000000E+00 0. -1.
          1   -1    0    0  501    0 -0.00000000000E+00 -0.00000000000E+00 -0.17698247955E+04  0.17698247955E+04  0.00000000000E+00 0. -1.
         25    2    1    2    0    0 -0.16484438323E+03 -0.25076451220E+03 -0.44681934690E+03  0.55256349376E+03  0.12498949796E+03 0.  0.
          2    1    1    2  501    0  0.11748854869E+03  0.93066945048E+02 -0.12419600463E+04  0.12509715312E+04  0.00000000000E+00 0. -1.
          1    1    1    2  502    0  0.47355834535E+02  0.15769756716E+03  0.26270611919E+03  0.31004129211E+03  0.00000000000E+00 0. -1.
         22    1    3    3    0    0 -0.12733846558E+03 -0.17879818551E+03 -0.21627867180E+03  0.30815635614E+03  0.00000000000E+00 0.  1.
         22    1    3    3    0    0 -0.37505917651E+02 -0.71966326699E+02 -0.23054067511E+03  0.24440713762E+03  0.00000000000E+00 0.  1.
</event>
<event>
 7    1  0.5064652E-006  0.1668398E+03  0.7818608E-02  0.1324145E+00
          2   -1    0    0  502    0  0.00000000000E+00  0.00000000000E+00  0.13047385191E+04  0.13047385191E+04  0.00000000000E+00 0. -1.
          1   -1    0    0  501    0 -0.00000000000E+00 -0.00000000000E+00 -0.11508595252E+04  0.11508595252E+04  0.00000000000E+00 0. -1.
         25    2    1    2    0    0 -0.62306175535E+02 -0.11138033133E+03 -0.28254062739E+03  0.33428082983E+03  0.12500731717E+03 0.  0.
          2    1    1    2  501    0 -0.16049006198E+02 -0.36706074181E+02 -0.83648025259E+03  0.83743902432E+03  0.00000000000E+00 0. -1.
          1    1    1    2  502    0  0.78355181733E+02  0.14808640552E+03  0.12728998740E+04  0.12838781901E+04  0.00000000000E+00 0. -1.
         22    1    3    3    0    0 -0.99373491335E+02 -0.68227913681E+02 -0.17305604614E+03  0.21089934587E+03  0.00000000000E+00 0.  1.
         22    1    3    3    0    0  0.37067315800E+02 -0.43152417654E+02 -0.10948458126E+03  0.12338148395E+03  0.00000000000E+00 0.  1.
</event>
<event>
 7    1  0.5064652E-006  0.1117755E+03  0.7818608E-02  0.1346558E+00
          2   -1    0    0  502    0  0.00000000000E+00  0.00000000000E+00  0.99045339806E+03  0.99045339806E+03  0.00000000000E+00 0. -1.
          1   -1    0    0  501    0 -0.00000000000E+00 -0.00000000000E+00 -0.14778433251E+03  0.14778433251E+03  0.00000000000E+00 0. -1.
         25    2    1    2    0    0 -0.59923402693E+02 -0.14073882769E+03  0.14415626527E+03  0.24454933954E+03  0.12500047538E+03 0.  0.
          2    1    1    2  501    0  0.30652755384E+02  0.10122365065E+03 -0.67910752330E+02  0.12568885848E+03  0.00000000000E+00 0. -1.
          1    1    1    2  502    0  0.29270647309E+02  0.39515177037E+02  0.76642355261E+03  0.76799953255E+03  0.00000000000E+00 0. -1.
         22    1    3    3    0    0 -0.40435457997E+01 -0.43231971997E+02 -0.18208704551E+02  0.47084079971E+02  0.00000000000E+00 0. -1.
         22    1    3    3    0    0 -0.55879856893E+02 -0.97506855689E+02  0.16236496982E+03  0.19746525957E+03  0.00000000000E+00 0. -1.
</event>
<event>
 7    1  0.5064652E-006  0.5732106E+02  0.7818608E-02  0.1446654E+00
          2   -1    0    0  502    0  0.00000000000E+00  0.00000000000E+00  0.32756335992E+03  0.32756335992E+03  0.00000000000E+00 0. -1.
          1   -1    0    0  501    0 -0.00000000000E+00 -0.00000000000E+00 -0.32184450763E+03  0.32184450763E+03  0.00000000000E+00 0. -1.
         25    2    1    2    0    0 -0.96592831982E+02  0.14052897854E+02  0.40959931036E+02  0.16380072022E+03  0.12500120346E+03 0.  0.
          2    1    1    2  501    0  0.53505228566E+02 -0.17053487540E+02 -0.25527250808E+03  0.26137651827E+03  0.00000000000E+00 0. -1.
          1    1    1    2  502    0  0.43087603417E+02  0.30005896861E+01  0.22003142934E+03  0.22423062905E+03  0.00000000000E+00 0. -1.
         22    1    3    3    0    0 -0.90961165346E+02 -0.13308299386E+02  0.75796204338E+02  0.11914742559E+03  0.00000000000E+00 0.  1.
         22    1    3    3    0    0 -0.56316666359E+01  0.27361197240E+02 -0.34836273302E+02  0.44653294627E+02  0.00000000000E+00 0.  1.
</event>
<event>
 7    1  0.5064652E-006  0.8745450E+02  0.7818608E-02  0.1366200E+00
          2   -1    0    0  502    0  0.00000000000E+00  0.00000000000E+00  0.30514937011E+04  0.30514937011E+04  0.00000000000E+00 0. -1.
          1   -1    0    0  501    0 -0.00000000000E+00 -0.00000000000E+00 -0.59181060524E+02  0.59181060524E+02  0.00000000000E+00 0. -1.
         25    2    1    2    0    0  0.20943496152E+02  0.11237829030E+03  0.33141025971E+03  0.37218825627E+03  0.12499531073E+03 0.  0.
          2    1    1    2  501    0 -0.50862258937E+02 -0.68340974741E+02  0.85709341205E+01  0.85620786754E+02  0.00000000000E+00 0. -1.
          1    1    1    2  502    0  0.29918762785E+02 -0.44037315555E+02  0.26523314468E+04  0.26528657186E+04  0.00000000000E+00 0. -1.
         22    1    3    3    0    0 -0.30329444470E+01  0.30457509520E+02  0.25739871219E+03  0.25921218273E+03  0.00000000000E+00 0.  1.
         22    1    3    3    0    0  0.23976440599E+02  0.81920780775E+02  0.74011547521E+02  0.11297607354E+03  0.00000000000E+00 0.  1.
</event>
<event>
 7    1  0.5064652E-006  0.9785025E+02  0.7818608E-02  0.1329843E+00
          2   -1    0    0  502    0  0.00000000000E+00  0.00000000000E+00  0.14156967830E+04  0.14156967830E+04  0.00000000000E+00 0. -1.
          1   -1    0    0  501    0 -0.00000000000E+00 -0.00000000000E+00 -0.17936250156E+03  0.17936250156E+03  0.00000000000E+00 0. -1.
         25    2    1    2    0    0 -0.72104794058E+02  0.31047827534E+02  0.44013541531E+03  0.46422606942E+03  0.12499436309E+03 0.  0.
          2    1    1    2  501    0 -0.30571090849E+02 -0.57307648982E+02 -0.15796729683E+03  0.17079937089E+03  0.00000000000E+00 0. -1.
          1    1    1    2  502    0  0.10267588491E+03  0.26259821447E+02  0.95416616297E+03  0.96003384426E+03  0.00000000000E+00 0. -1.
         22    1    3    3    0    0 -0.51789091410E+02 -0.44868059412E+02  0.18618244647E+03  0.19839142148E+03  0.00000000000E+00 0. -1.
         22    1    3    3    0    0 -0.20315702648E+02  0.75915886946E+02  0.25395296884E+03  0.26583464794E+03  0.00000000000E+00 0. -1.
</event>
<event>
 7    1  0.5064652E-006  0.1242895E+03  0.7818608E-02  0.1262464E+00
          2   -1    0    0  502    0  0.00000000000E+00  0.00000000000E+00  0.62214034301E+03  0.62214034301E+03  0.00000000000E+00 0. -1.
          1   -1    0    0  501    0 -0.00000000000E+00 -0.00000000000E+00 -0.14986160734E+03  0.14986160734E+03  0.00000000000E+00 0. -1.
         25    2    1    2    0    0 -0.85902444751E+02  0.13046364403E+03  0.23159224048E+03  0.30604070238E+03  0.12500381288E+03 0.  0.
          2    1    1    2  501    0 -0.94009804046E+01 -0.12343754576E+03 -0.69097059991E+02  0.14177309278E+03  0.00000000000E+00 0. -1.
          1    1    1    2  502    0  0.95303425155E+02 -0.70260982688E+01  0.30978355519E+03  0.32418815519E+03  0.00000000000E+00 0. -1.
         22    1    3    3    0    0  0.72001327917E+01 -0.17150314751E+02  0.53719815604E+02  0.56848868035E+02  0.00000000000E+00 0. -1.
         22    1    3    3    0    0 -0.93102577542E+02  0.14761395878E+03  0.17787242488E+03  0.24919183434E+03  0.00000000000E+00 0. -1.
</event>
<event>
 7    1  0.5064652E-006  0.2498753E+02  0.7818608E-02  0.1692667E+00
          2   -1    0    0  502    0  0.00000000000E+00  0.00000000000E+00  0.27632410336E+02  0.27632410336E+02  0.00000000000E+00 0. -1.
          1   -1    0    0  501    0 -0.00000000000E+00 -0.00000000000E+00 -0.12519484455E+04  0.12519484455E+04  0.00000000000E+00 0. -1.
         25    2    1    2    0    0  0.25561561068E+02 -0.90738378231E+01 -0.17321782341E+03  0.21532560634E+03  0.12499989784E+03 0.  0.
          2    1    1    2  501    0 -0.15259140109E+02 -0.14485329237E+02 -0.10320269426E+04  0.10322413847E+04  0.00000000000E+00 0. -1.
          1    1    1    2  502    0 -0.10302420959E+02  0.23559167060E+02 -0.19071269170E+02  0.32013864777E+02  0.00000000000E+00 0. -1.
         22    1    3    3    0    0  0.27074623480E+02 -0.63132183105E+02 -0.12611259493E+03  0.14360743149E+03  0.00000000000E+00 0. -1.
         22    1    3    3    0    0 -0.15130624124E+01  0.54058345282E+02 -0.47105228482E+02  0.71718174844E+02  0.00000000000E+00 0. -1.
</event>
<event>
 7    1  0.5064652E-006  0.8113921E+02  0.7818608E-02  0.1400103E+00
          2   -1    0    0  502    0  0.00000000000E+00  0.00000000000E+00  0.11178936485E+04  0.11178936485E+04  0.00000000000E+00 0. -1.
          1   -1    0    0  501    0 -0.00000000000E+00 -0.00000000000E+00 -0.19205376302E+03  0.19205376302E+03  0.00000000000E+00 0. -1.
         25    2    1    2    0    0  0.11424321197E+03 -0.72696731231E+01  0.35496545673E+03  0.39335818587E+03  0.12500330914E+03 0.  0.
          2    1    1    2  501    0 -0.78463601478E+02 -0.17604232658E+02 -0.16282354926E+03  0.18159833138E+03  0.00000000000E+00 0. -1.
          1    1    1    2  502    0 -0.35779610496E+02  0.24873905781E+02  0.73369797800E+03  0.73499089425E+03  0.00000000000E+00 0. -1.
         22    1    3    3    0    0  0.31490490484E+02  0.12572724800E+02  0.27335993529E+03  0.27545485769E+03  0.00000000000E+00 0.  1.
         22    1    3    3    0    0  0.82752721489E+02 -0.19842397923E+02  0.81605521432E+02  0.11790332819E+03  0.00000000000E+00 0.  1.
</event>
<event>
 7    1  0.5064652E-006  0.4439306E+02  0.7818608E-02  0.1492093E+00
          2   -1    0    0  502    0  0.00000000000E+00  0.00000000000E+00  0.18154690699E+04  0.18154690699E+04  0.00000000000E+00 0. -1.
          1   -1    0    0  501    0 -0.00000000000E+00 -0.00000000000E+00 -0.10674594404E+03  0.10674594404E+03  0.00000000000E+00 0. -1.
         25    2    1    2    0    0  0.39828555234E+01  0.29856128579E+02  0.21155311845E+03  0.24756100440E+03  0.12499790967E+03 0.  0.
          2    1    1    2  501    0  0.36176708647E+02 -0.26987030155E+02 -0.82730205015E+02  0.94240866225E+02  0.00000000000E+00 0. -1.
          1    1    1    2  502    0 -0.40159564170E+02 -0.28690984245E+01  0.15799002125E+04  0.15804131434E+04  0.00000000000E+00 0. -1.
         22    1    3    3    0    0  0.63578787578E+02  0.18969914269E+02  0.90741336255E+02  0.11241045317E+03  0.00000000000E+00 0. -1.
         22    1    3    3    0    0 -0.59595932054E+02  0.10886214310E+02  0.12081178219E+03  0.13515055122E+03  0.00000000000E+00 0. -1.
</event>
<event>
 7    1  0.5064652E-006  0.1535708E+03  0.7818608E-02  0.1365683E+00
          2   -1    0    0  502    0  0.00000000000E+00  0.00000000000E+00  0.25674989498E+03  0.25674989498E+03  0.00000000000E+00 0. -1.
          1   -1    0    0  501    0 -0.00000000000E+00 -0.00000000000E+00 -0.45710805880E+03  0.45710805880E+03  0.00000000000E+00 0. -1.
         25    2    1    2    0    0 -0.59196523656E+02  0.11232630772E+03  0.53337406298E+02  0.18598822268E+03  0.12500124898E+03 0.  0.
          2    1    1    2  501    0  0.77503021207E+02 -0.13665799399E+03 -0.37300266685E+03  0.40473832917E+03  0.00000000000E+00 0. -1.
          1    1    1    2  502    0 -0.18306497552E+02  0.24331686272E+02  0.11930709674E+03  0.12313140194E+03  0.00000000000E+00 0. -1.
         22    1    3    3    0    0 -0.64595629448E+02  0.24341231813E+02  0.67686315715E+02  0.96677444345E+02  0.00000000000E+00 0.  1.
         22    1    3    3    0    0  0.53991057926E+01  0.87985075904E+02 -0.14348909417E+02  0.89310778335E+02  0.00000000000E+00 0.  1.
</event>
<event>
 7    1  0.5064652E-006  0.1493514E+03  0.7818608E-02  0.1253069E+00
          2   -1    0    0  502    0  0.00000000000E+00  0.00000000000E+00  0.12587559209E+04  0.12587559209E+04  0.00000000000E+00 0. -1.
          1   -1    0    0  501    0 -0.00000000000E+00 -0.00000000000E+00 -0.77728071624E+03  0.77728071624E+03  0.00000000000E+00 0. -1.
         25    2    1    2    0    0  0.14325095871E+03  0.15965710075E+03  0.15749678424E+03  0.29400882265E+03  0.12499889502E+03 0.  0.
          2    1    1    2  501    0 -0.18665686456E+02 -0.85227723420E+02 -0.70121072071E+03  0.70661775206E+03  0.00000000000E+00 0. -1.
          1    1    1    2  502    0 -0.12458527225E+03 -0.74429377330E+02  0.10251891411E+04  0.10354100624E+04  0.00000000000E+00 0. -1.
         22    1    3    3    0    0  0.11365380156E+03  0.39451557580E+02  0.10446824266E+03  0.15933369301E+03  0.00000000000E+00 0.  1.
         22    1    3    3    0    0  0.29597157151E+02  0.12020554317E+03  0.53028541585E+02  0.13467512964E+03  0.00000000000E+00 0.  1.
</event>
<event>
 7    1  0.5064652E-006  0.7083993E+02  0.7818608E-02  0.1423179E+00
          2   -1    0    0  502    0  0.00000000000E+00  0.00000000000E+00  0.13660469796E+04  0.13660469796E+04  0.00000000000E+00 0. -1.
          1   -1    0    0  501    0 -0.00000000000E+00 -0.00000000000E+00 -0.17797600974E+02  0.17797600974E+02  0.00000000000E+00 0. -1.
         25    2    1    2    0    0  0.23821606462E+02 -0.58623216508E+02  0.60960552206E+03  0.62550280037E+03  0.12502283909E+03 0.  0.
          2    1    1    2  501    0  0.38295430416E+02  0.16514595332E+02  0.47808065145E+02  0.63441965154E+02  0.00000000000E+00 0. -1.
          1    1    1    2  502    0 -0.62117036878E+02  0.42108621176E+02  0.69083579140E+03  0.69489981503E+03  0.00000000000E+00 0. -1.
         22    1    3    3    0    0 -0.41602370247E+01 -0.14957408174E+02  0.19603846895E+01  0.15648474031E+02  0.00000000000E+00 0. -1.
         22    1    3    3    0    0  0.27981843487E+02 -0.43665808335E+02  0.60764513737E+03  0.60985432634E+03  0.00000000000E+00 0. -1.
</event>
<event>
 7    1  0.5064652E-006  0.6612892E+02  0.7818608E-02  0.1428224E+00
          2   -1    0    0  502    0  0.00000000000E+00  0.00000000000E+00  0.23344436279E+03  0.23344436279E+03  0.00000000000E+00 0. -1.
          1   -1    0    0  501    0 -0.00000000000E+00 -0.00000000000E+00 -0.32629957243E+03  0.32629957243E+03  0.00000000000E+00 0. -1.
         25    2    1    2    0    0  0.70068737384E+02  0.17780936341E+02 -0.15198913109E+03  0.20965304610E+03  0.12501165592E+03 0.  0.
          2    1    1    2  501    0 -0.62715071651E+02  0.24574542681E+02 -0.13520470541E+03  0.15105429727E+03  0.00000000000E+00 0. -1.
          1    1    1    2  502    0 -0.73536657324E+01 -0.42355479022E+02  0.19433862686E+03  0.19903659184E+03  0.00000000000E+00 0. -1.
         22    1    3    3    0    0  0.61496000248E+02 -0.45735929195E+00 -0.54544830562E+01  0.61739117336E+02  0.00000000000E+00 0. -1.
         22    1    3    3    0    0  0.85727371361E+01  0.18238295633E+02 -0.14653464803E+03  0.14791392877E+03  0.00000000000E+00 0. -1.
</event>
<event>
 7    1  0.5064652E-006  0.5935370E+02  0.7818608E-02  0.1446796E+00
          2   -1    0    0  502    0  0.00000000000E+00  0.00000000000E+00  0.17606787716E+03  0.17606787716E+03  0.00000000000E+00 0. -1.
          1   -1    0    0  501    0 -0.00000000000E+00 -0.00000000000E+00 -0.16363438238E+04  0.16363438238E+04  0.00000000000E+00 0. -1.
         25    2    1    2    0    0  0.78055142608E+02  0.42108054665E+01 -0.61342166474E+02  0.15968297804E+03  0.12500182366E+03 0.  0.
          2    1    1    2  501    0 -0.29653791688E+02  0.29273956849E+02 -0.15187058322E+04  0.15192773666E+04  0.00000000000E+00 0. -1.
          1    1    1    2  502    0 -0.48401350920E+02 -0.33484762315E+02  0.11977205199E+03  0.13345135637E+03  0.00000000000E+00 0. -1.
         22    1    3    3    0    0  0.60380108094E+02  0.43533726443E+01  0.29355552881E+02  0.67278955043E+02  0.00000000000E+00 0.  1.
         22    1    3    3    0    0  0.17675034514E+02 -0.14256717776E+00 -0.90697719355E+02  0.92404023000E+02  0.00000000000E+00 0.  1.
</event>
<event>
 7    1  0.5064652E-006  0.6385272E+02  0.7818608E-02  0.1402223E+00
          2   -1    0    0  502    0  0.00000000000E+00  0.00000000000E+00  0.17448603855E+04  0.17448603855E+04  0.00000000000E+00 0. -1.
          1   -1    0    0  501    0 -0.00000000000E+00 -0.00000000000E+00 -0.27578666572E+03  0.27578666572E+03  0.00000000000E+00 0. -1.
         25    2    1    2    0    0  0.84366333082E+02 -0.55876077816E+02  0.14474857238E+03  0.21637413096E+03  0.12500320440E+03 0.  0.
          2    1    1    2  501    0 -0.54453013451E+02 -0.16357913346E-01 -0.23623302809E+03  0.24242766860E+03  0.00000000000E+00 0. -1.
          1    1    1    2  502    0 -0.29913319630E+02  0.55892435729E+02  0.15605581755E+04  0.15618452516E+04  0.00000000000E+00 0. -1.
         22    1    3    3    0    0 -0.47330781172E+01 -0.70093594747E+02  0.56346637332E+02  0.90058078992E+02  0.00000000000E+00 0. -1.
         22    1    3    3    0    0  0.89099411199E+02  0.14217516931E+02  0.88401935048E+02  0.12631605196E+03  0.00000000000E+00 0. -1.
</event>
<event>
 7    1  0.5064652E-006  0.7572930E+02  0.7818608E-02  0.1390492E+00
          2   -1    0    0  502    0  0.00000000000E+00  0.00000000000E+00  0.58287768394E+02  0.58287768394E+02  0.00000000000E+00 0. -1.
          1   -1    0    0  501    0 -0.00000000000E+00 -0.00000000000E+00 -0.69978092791E+03  0.69978092791E+03  0.00000000000E+00 0. -1.
         25    2    1    2    0    0  0.51011348104E+02 -0.33560735139E+02 -0.68560347204E+02  0.15509354208E+03  0.12500002003E+03 0.  0.
          2    1    1    2  501    0  0.16231411295E+02 -0.47722767103E+02 -0.37783832547E+03  0.38118594072E+03  0.00000000000E+00 0. -1.
          1    1    1    2  502    0 -0.67242759399E+02  0.81283502242E+02 -0.19509448684E+03  0.22178921350E+03  0.00000000000E+00 0. -1.
         22    1    3    3    0    0  0.56448914172E+02  0.35457029920E+02 -0.50257153717E+02  0.83483306006E+02  0.00000000000E+00 0. -1.
         22    1    3    3    0    0 -0.54375660682E+01 -0.69017765060E+02 -0.18303193487E+02  0.71610236073E+02  0.00000000000E+00 0. -1.
</event>
<event>
 7    1  0.5064652E-006  0.3090577E+03  0.7818608E-02  0.1284771E+00
          2   -1    0    0  502    0  0.00000000000E+00  0.00000000000E+00  0.87453238799E+03  0.87453238799E+03  0.00000000000E+00 0. -1.
          1   -1    0    0  501    0 -0.00000000000E+00 -0.00000000000E+00 -0.53604042616E+03  0.53604042616E+03  0.00000000000E+00 0. -1.
         25    2    1    2    0    0 -0.85735431956E+02  0.27303803094E+03  0.63965305398E+02  0.31877037908E+03  0.12499065425E+03 0.  0.
          2    1    1    2  501    0  0.87785875631E+02 -0.30398304339E+03 -0.34694580761E+03  0.46955664626E+03  0.00000000000E+00 0. -1.
          1    1    1    2  502    0 -0.20504436757E+01  0.30945012445E+02  0.62147246405E+03  0.62224578881E+03  0.00000000000E+00 0. -1.
         22    1    3    3    0    0 -0.10921896922E+03  0.25802329528E+03  0.72872414675E+02  0.28950853695E+03  0.00000000000E+00 0.  1.
         22    1    3    3    0    0  0.23483537264E+02  0.15014735665E+02 -0.89071092770E+01  0.29261842136E+02  0.00000000000E+00 0.  1.
</event>
<event>
 7    1  0.5064652E-006  0.7553747E+02  0.7818608E-02  0.1354804E+00
          2   -1    0    0  502    0  0.00000000000E+00  0.00000000000E+00  0.49885517764E+03  0.49885517764E+03  0.00000000000E+00 0. -1.
          1   -1    0    0  501    0 -0.00000000000E+00 -0.00000000000E+00 -0.11927577132E+03  0.11927577132E+03  0.00000000000E+00 0. -1.
         25    2    1    2    0    0 -0.65561452268E+02 -0.38319629867E+02 -0.36822849321E+02  0.15082200828E+03  0.12499863157E+03 0.  0.
          2    1    1    2  501    0  0.70264459916E+02 -0.37071294562E+02  0.51514099172E+02  0.94684093814E+02  0.00000000000E+00 0. -1.
          1    1    1    2  502    0 -0.47030076487E+01  0.75390924429E+02  0.36488815647E+03  0.37262484686E+03  0.00000000000E+00 0. -1.
         22    1    3    3    0    0 -0.30377974689E+02 -0.41683367035E+02 -0.79899551585E+02  0.95101328997E+02  0.00000000000E+00 0. -1.
         22    1    3    3    0    0 -0.35183477579E+02  0.33637371679E+01  0.43076702264E+02  0.55720679287E+02  0.00000000000E+00 0. -1.
</event>
<event>
 7    1  0.5064652E-006  0.1017672E+03  0.7818608E-02  0.1472355E+00
          2   -1    0    0  502    0  0.00000000000E+00  0.00000000000E+00  0.60863449387E+02  0.60863449387E+02  0.00000000000E+00 0. -1.
          1   -1    0    0  501    0 -0.00000000000E+00 -0.00000000000E+00 -0.80486910478E+03  0.80486910478E+03  0.00000000000E+00 0. -1.
         25    2    1    2    0    0 -0.85198730502E+02  0.20203814517E+02 -0.18604438287E+03  0.24063091266E+03  0.12499482362E+03 0.  0.
          2    1    1    2  501    0 -0.20119832081E+02  0.15847671650E+01 -0.50467059884E+03  0.50507398712E+03  0.00000000000E+00 0. -1.
          1    1    1    2  502    0  0.10531856258E+03 -0.21788581682E+02 -0.53290673689E+02  0.12002765439E+03  0.00000000000E+00 0. -1.
         22    1    3    3    0    0  0.19906540637E+02  0.37836969392E+02 -0.77512334254E+02  0.88521571238E+02  0.00000000000E+00 0. -1.
         22    1    3    3    0    0 -0.10510527114E+03 -0.17633154875E+02 -0.10853204861E+03  0.15210934142E+03  0.00000000000E+00 0. -1.
</event>
<event>
 7    1  0.5064652E-006  0.1256089E+03  0.7818608E-02  0.1442649E+00
          2   -1    0    0  502    0  0.00000000000E+00  0.00000000000E+00  0.20909391422E+03  0.20909391422E+03  0.00000000000E+00 0. -1.
          1   -1    0    0  501    0 -0.00000000000E+00 -0.00000000000E+00 -0.90518410611E+03  0.90518410611E+03  0.00000000000E+00 0. -1.
         25    2    1    2    0    0 -0.62771447930E+02 -0.12602941077E+03 -0.12818889146E+03  0.22776085053E+03  0.12497578201E+03 0.  0.
          2    1    1    2  501    0  0.64725654086E+02  0.10581841317E+03 -0.72124537195E+03  0.73183456697E+03  0.00000000000E+00 0. -1.
          1    1    1    2  502    0 -0.19542061565E+01  0.20210997600E+02  0.15334407152E+03  0.15468260282E+03  0.00000000000E+00 0. -1.
         22    1    3    3    0    0 -0.90500548703E+02 -0.65149781830E+02 -0.43165081904E+02  0.11957452774E+03  0.00000000000E+00 0. -1.
         22    1    3    3    0    0  0.27729100773E+02 -0.60879628939E+02 -0.85023809552E+02  0.10818632280E+03  0.00000000000E+00 0. -1.
</event>
<event>
 7    1  0.5064652E-006  0.2901094E+03  0.7818608E-02  0.1184618E+00
          2   -1    0    0  502    0  0.00000000000E+00  0.00000000000E+00  0.90878115961E+03  0.90878115961E+03  0.00000000000E+00 0. -1.
          1   -1    0    0  501    0 -0.00000000000E+00 -0.00000000000E+00 -0.60411971274E+03  0.60411971274E+03  0.00000000000E+00 0. -1.
         25    2    1    2    0    0  0.18550403592E+03 -0.11760472033E+03  0.42432426662E+02  0.25625396064E+03  0.12499185545E+03 0.  0.
          2    1    1    2  501    0  0.70156444090E+02 -0.60030380212E+02 -0.46052869433E+03  0.46969378482E+03  0.00000000000E+00 0. -1.
          1    1    1    2  502    0 -0.25566048001E+03  0.17763510054E+03  0.72275771454E+03  0.78695312689E+03  0.00000000000E+00 0. -1.
         22    1    3    3    0    0  0.69639625025E+02 -0.94995165049E+02  0.67236651855E+02  0.13562642113E+03  0.00000000000E+00 0.  1.
         22    1    3    3    0    0  0.11586441089E+03 -0.22609555280E+02 -0.24804225193E+02  0.12062753951E+03  0.00000000000E+00 0.  1.
</event>
<event>
 7    1  0.5064652E-006  0.1141294E+03  0.7818608E-02  0.1383503E+00
          2   -1    0    0  502    0  0.00000000000E+00  0.00000000000E+00  0.47424066078E+02  0.47424066078E+02  0.00000000000E+00 0. -1.
          1   -1    0    0  501    0 -0.00000000000E+00 -0.00000000000E+00 -0.39822871466E+04  0.39822871466E+04  0.00000000000E+00 0. -1.
         25    2    1    2    0    0 -0.66806967259E+02  0.83817292275E+02 -0.24016923339E+04  0.24073298822E+04  0.12499034312E+03 0.  0.
          2    1    1    2  501    0 -0.28713876815E+02 -0.20684288337E+02 -0.15037454652E+04  0.15041618099E+04  0.00000000000E+00 0. -1.
          1    1    1    2  502    0  0.95520844074E+02 -0.63133003938E+02 -0.29425281481E+02  0.11821952051E+03  0.00000000000E+00 0. -1.
         22    1    3    3    0    0 -0.38937513153E+02  0.11337321066E+03 -0.15286279787E+04  0.15333209423E+04  0.00000000000E+00 0. -1.
         22    1    3    3    0    0 -0.27869454106E+02 -0.29555918388E+02 -0.87306435522E+03  0.87400893996E+03  0.00000000000E+00 0. -1.
</event>
<event>
 7    1  0.5064652E-006  0.1367475E+03  0.7818608E-02  0.1311163E+00
          2   -1    0    0  502    0  0.00000000000E+00  0.00000000000E+00  0.19169011508E+04  0.19169011508E+04  0.00000000000E+00 0. -1.
          1   -1    0    0  501    0 -0.00000000000E+00 -0.00000000000E+00 -0.19769931989E+03  0.19769931989E+03  0.00000000000E+00 0. -1.
         25    2    1    2    0    0  0.15770626520E+03 -0.98231250557E+02  0.12016194562E+04  0.12223074687E+04  0.12500234364E+03 0.  0.
          2    1    1    2  501    0 -0.10386138298E+03  0.87464181414E+02 -0.16149882711E+03  0.21099535792E+03  0.00000000000E+00 0. -1.
          1    1    1    2  502    0 -0.53844882223E+02  0.10767069143E+02  0.67908120184E+03  0.68129764407E+03  0.00000000000E+00 0. -1.
         22    1    3    3    0    0  0.28939419403E+02 -0.25901241413E+02  0.62014470373E+02  0.73172117898E+02  0.00000000000E+00 0.  1.
         22    1    3    3    0    0  0.12876684580E+03 -0.72330009144E+02  0.11396049858E+04  0.11491353508E+04  0.00000000000E+00 0.  1.
</event>
<event>
 7    1  0.5064652E-006  0.7541198E+02  0.7818608E-02  0.1345172E+00
          2   -1    0    0  502    0  0.00000000000E+00  0.00000000000E+00  0.70169356992E+03  0.70169356992E+03  0.00000000000E+00 0. -1.
          1   -1    0    0  501    0 -0.00000000000E+00 -0.00000000000E+00 -0.36649211485E+03  0.36649211485E+03  0.00000000000E+00 0. -1.
         25    2    1    2    0    0 -0.35648548475E+02 -0.85666100009E+02  0.74658357938E+02  0.17265168964E+03  0.12500094330E+03 0.  0.
          2    1    1    2  501    0 -0.35725546392E+02  0.67057573439E+02 -0.31054366477E+03  0.31970361360E+03  0.00000000000E+00 0. -1.
          1    1    1    2  502    0  0.71374094867E+02  0.18608526570E+02  0.57108676190E+03  0.57583038153E+03  0.00000000000E+00 0. -1.
         22    1    3    3    0    0 -0.54932954200E+02 -0.10650314369E+03  0.79558491529E+02  0.14384054591E+03  0.00000000000E+00 0. -1.
         22    1    3    3    0    0  0.19284405725E+02  0.20837043685E+02 -0.49001335915E+01  0.28811143728E+02  0.00000000000E+00 0. -1.
</event>
<event>
 7    1  0.5064652E-006  0.1910180E+03  0.7818608E-02  0.1367772E+00
          2   -1    0    0  502    0  0.00000000000E+00  0.00000000000E+00  0.80750116626E+03  0.80750116626E+03  0.00000000000E+00 0. -1.
          1   -1    0    0  501    0 -0.00000000000E+00 -0.00000000000E+00 -0.57784803213E+03  0.57784803213E+03  0.00000000000E+00 0. -1.
         25    2    1    2    0    0 -0.18667430535E+02 -0.16836333868E+03  0.11530757102E+03  0.24003569691E+03  0.12500645215E+03 0.  0.
          2    1    1    2  501    0  0.17783037263E+02  0.19240523458E+03 -0.49713184907E+03  0.53336299653E+03  0.00000000000E+00 0. -1.
          1    1    1    2  502    0  0.88439327215E+00 -0.24041895894E+02  0.61147741218E+03  0.61195050495E+03  0.00000000000E+00 0. -1.
         22    1    3    3    0    0  0.17302556422E+02 -0.12199947553E+02  0.70538703549E+02  0.73647307333E+02  0.00000000000E+00 0. -1.
         22    1    3    3    0    0 -0.35969986957E+02 -0.15616339113E+03  0.44768867475E+02  0.16638838958E+03  0.00000000000E+00 0. -1.
</event>
<event>
 7    1  0.5064652E-006  0.1001415E+03  0.7818608E-02  0.1285206E+00
          2   -1    0    0  502    0  0.00000000000E+00  0.00000000000E+00  0.80923251899E+02  0.80923251899E+02  0.00000000000E+00 0. -1.
          1   -1    0    0  501    0 -0.00000000000E+00 -0.00000000000E+00 -0.11043736430E+04  0.11043736430E+04  0.00000000000E+00 0. -1.
         25    2    1    2    0    0  0.47354547450E+01 -0.11099262959E+02 -0.24256446209E+03  0.27314516448E+03  0.12500057777E+03 0.  0.
          2    1    1    2  501    0  0.38940271164E+01 -0.10006578185E+03 -0.79363293374E+03  0.79992597011E+03  0.00000000000E+00 0. -1.
          1    1    1    2  502    0 -0.86294818614E+01  0.11116504481E+03  0.12747004736E+02  0.11222576030E+03  0.00000000000E+00 0. -1.
         22    1    3    3    0    0  0.45200188742E+02 -0.27505595442E+02 -0.41087497874E+02  0.66991024208E+02  0.00000000000E+00 0. -1.
         22    1    3    3    0    0 -0.40464733997E+02  0.16406332483E+02 -0.20147696421E+03  0.20615414027E+03  0.00000000000E+00 0. -1.
</event>
<event>
 7    1  0.5064652E-006  0.9070111E+02  0.7818608E-02  0.1375611E+00
          2   -1    0    0  502    0  0.00000000000E+00  0.00000000000E+00  0.79774901587E+02  0.79774901587E+02  0.00000000000E+00 0. -1.
          1   -1    0    0  501    0 -0.00000000000E+00 -0.00000000000E+00 -0.11564201767E+04  0.11564201767E+04  0.00000000000E+00 0. -1.
         25    2    1    2    0    0  0.17587585193E+01 -0.45899393111E+02 -0.76096848047E+02  0.15338153675E+03  0.12500127205E+03 0.  0.
          2    1    1    2  501    0 -0.10738938705E+02  0.92534088286E+02 -0.10251187167E+04  0.10293426376E+04  0.00000000000E+00 0. -1.
          1    1    1    2  502    0  0.89801801858E+01 -0.46634695175E+02  0.24570289651E+02  0.53470903899E+02  0.00000000000E+00 0. -1.
         22    1    3    3    0    0 -0.37415483787E+02 -0.39826090128E+02 -0.94898283097E+02  0.10950671220E+03  0.00000000000E+00 0. -1.
         22    1    3    3    0    0  0.39174242306E+02 -0.60733029826E+01  0.18801435050E+02  0.43874824550E+02  0.00000000000E+00 0. -1.
</event>
<event>
 7    1  0.6713738E-006  0.8521733E+02  0.7818608E-02  0.1398701E+00
          2   -1    0    0  502    0  0.00000000000E+00  0.00000000000E+00  0.21797385221E+04  0.21797385221E+04  0.00000000000E+00 0. -1.
          1   -1    0    0  501    0 -0.00000000000E+00 -0.00000000000E+00 -0.57701345719E+03  0.57701345719E+03  0.00000000000E+00 0. -1.
         25    2    1    2    0    0 -0.94273002757E+02 -0.52059386673E+01 -0.31781268458E+02  0.15985034854E+03  0.12501033580E+03 0.  0.
          2    1    1    2  501    0  0.78318733770E+02 -0.33596728147E+02 -0.47721448080E+03  0.48476409199E+03  0.00000000000E+00 0. -1.
          1    1    1    2  502    0  0.15954268987E+02  0.38802666814E+02  0.21117208141E+04  0.21121375387E+04  0.00000000000E+00 0. -1.
         22    1    3    3    0    0 -0.72280090088E+02 -0.35315390501E+02 -0.69867651608E+02  0.10655081872E+03  0.00000000000E+00 0. -1.
         22    1    3    3    0    0 -0.21992912669E+02  0.30109451834E+02  0.38086383150E+02  0.53299529818E+02  0.00000000000E+00 0. -1.
</event>
<event>
 7    1  0.5064652E-006  0.9871585E+02  0.7818608E-02  0.1344879E+00
          2   -1    0    0  502    0  0.00000000000E+00  0.00000000000E+00  0.18027926432E+04  0.18027926432E+04  0.00000000000E+00 0. -1.
          1   -1    0    0  501    0 -0.00000000000E+00 -0.00000000000E+00 -0.26620945699E+03  0.26620945699E+03  0.00000000000E+00 0. -1.
         25    2    1    2    0    0  0.84199454777E+02 -0.66266081243E+02  0.12409045109E+03  0.20616633054E+03  0.12500149634E+03 0.  0.
          2    1    1    2  501    0 -0.49861659873E+02 -0.26549651986E+02 -0.22010649530E+03  0.22723982577E+03  0.00000000000E+00 0. -1.
          1    1    1    2  502    0 -0.34337794903E+02  0.92815733229E+02  0.16325992304E+04  0.16355959439E+04  0.00000000000E+00 0. -1.
         22    1    3    3    0    0  0.46158164448E+02  0.31847584494E+02  0.24209685377E+02  0.61081532801E+02  0.00000000000E+00 0. -1.
         22    1    3    3    0    0  0.38041290328E+02 -0.98113665736E+02  0.99880765713E+02  0.14508479773E+03  0.00000000000E+00 0. -1.
</event>
<event>
 7    1  0.5064652E-006  0.4271600E+02  0.7818608E-02  0.1567950E+00
          2   -1    0    0  502    0  0.00000000000E+00  0.00000000000E+00  0.28028110588E+04  0.28028110588E+04  0.00000000000E+00 0. -1.
          1   -1    0    0  501    0 -0.00000000000E+00 -0.00000000000E+00 -0.28261927792E+03  0.28261927792E+03  0.00000000000E+00 0. -1.
         25    2    1    2    0    0  0.34256672487E+02  0.53502106803E+02  0.12951931259E+04  0.13027607631E+04  0.12499750957E+03 0.  0.
          2    1    1    2  501    0 -0.44263235493E+01 -0.24971190789E+02 -0.27797486905E+03  0.27912932582E+03  0.00000000000E+00 0. -1.
          1    1    1    2  502    0 -0.29830348938E+02 -0.28530916015E+02  0.15029735240E+04  0.15035402478E+04  0.00000000000E+00 0. -1.
         22    1    3    3    0    0  0.21346939005E+02  0.59811796127E+02  0.12809679581E+04  0.12825412478E+04  0.00000000000E+00 0. -1.
         22    1    3    3    0    0  0.12909733483E+02 -0.63096893237E+01  0.14225167871E+02  0.20219515299E+02  0.00000000000E+00 0. -1.
</event>
<event>
 7    1  0.5064652E-006  0.7677265E+02  0.7818608E-02  0.1383282E+00
          2   -1    0    0  502    0  0.00000000000E+00  0.00000000000E+00  0.45527896385E+03  0.45527896385E+03  0.00000000000E+00 0. -1.
          1   -1    0    0  501    0 -0.00000000000E+00 -0.00000000000E+00 -0.12394379197E+04  0.12394379197E+04  0.00000000000E+00 0. -1.
         25    2    1    2    0    0  0.11820860729E+03 -0.98278509577E+01  0.32669170155E+03  0.36935381733E+03  0.12499965208E+03 0.  0.
          2    1    1    2  501    0 -0.74210404368E+02 -0.19183777430E+02 -0.12103465034E+04  0.12127711490E+04  0.00000000000E+00 0. -1.
          1    1    1    2  502    0 -0.43998202924E+02  0.29011628388E+02  0.99495846046E+02  0.11259191722E+03  0.00000000000E+00 0. -1.
         22    1    3    3    0    0  0.13168514444E+03 -0.20698271277E+02  0.32580108687E+03  0.35201668129E+03  0.00000000000E+00 0.  1.
         22    1    3    3    0    0 -0.13476537148E+02  0.10870420319E+02  0.89061467675E+00  0.17337136036E+02  0.00000000000E+00 0.  1.
</event>
<event>
 7    1  0.5064652E-006  0.3655770E+02  0.7818608E-02  0.1550684E+00
          2   -1    0    0  502    0  0.00000000000E+00  0.00000000000E+00  0.27356405148E+04  0.27356405148E+04  0.00000000000E+00 0. -1.
          1   -1    0    0  501    0 -0.00000000000E+00 -0.00000000000E+00 -0.19626856327E+04  0.19626856327E+04  0.00000000000E+00 0. -1.
         25    2    1    2    0    0 -0.23313371799E+02 -0.10861946581E+02  0.74616612529E+02  0.14780517913E+03  0.12496894384E+03 0.  0.
          2    1    1    2  501    0 -0.62867166716E+01  0.32459788521E+02 -0.19258215471E+04  0.19261053429E+04  0.00000000000E+00 0. -1.
          1    1    1    2  502    0  0.29600088470E+02 -0.21597841940E+02  0.26241598166E+04  0.26244156255E+04  0.00000000000E+00 0. -1.
         22    1    3    3    0    0 -0.19050884796E+02  0.25441947102E+02 -0.25803246805E+02  0.40939423903E+02  0.00000000000E+00 0. -1.
         22    1    3    3    0    0 -0.42624870026E+01 -0.36303893683E+02  0.10041985933E+03  0.10686575523E+03  0.00000000000E+00 0. -1.
</event>
<event>
 7    1  0.5064652E-006  0.1262478E+03  0.7818608E-02  0.1252254E+00
          2   -1    0    0  502    0  0.00000000000E+00  0.00000000000E+00  0.94258151001E+03  0.94258151001E+03  0.00000000000E+00 0. -1.
          1   -1    0    0  501    0 -0.00000000000E+00 -0.00000000000E+00 -0.79513022483E+03  0.79513022483E+03  0.00000000000E+00 0. -1.
         25    2    1    2    0    0  0.66061272711E+02 -0.12706973305E+03  0.21022949583E+03  0.28342753365E+03  0.12499566835E+03 0.  0.
          2    1    1    2  501    0  0.37815158991E+02  0.12098966517E+03 -0.74928728369E+03  0.75993415427E+03  0.00000000000E+00 0. -1.
          1    1    1    2  502    0 -0.10387643170E+03  0.60800678840E+01  0.68650907304E+03  0.69435004692E+03  0.00000000000E+00 0. -1.
         22    1    3    3    0    0  0.56590115158E+01 -0.12310530923E+03  0.17285415645E+03  0.21228636549E+03  0.00000000000E+00 0. -1.
         22    1    3    3    0    0  0.60402261195E+02 -0.39644238224E+01  0.37375339381E+02  0.71141168162E+02  0.00000000000E+00 0. -1.
</event>
<event>
 7    1  0.5064652E-006  0.1974110E+03  0.7818608E-02  0.1280278E+00
          2   -1    0    0  502    0  0.00000000000E+00  0.00000000000E+00  0.71566224412E+03  0.71566224412E+03  0.00000000000E+00 0. -1.
          1   -1    0    0  501    0 -0.00000000000E+00 -0.00000000000E+00 -0.18223259912E+04  0.18223259912E+04  0.00000000000E+00 0. -1.
         25    2    1    2    0    0  0.23406005382E+03 -0.67675670898E+02 -0.20279554597E+03  0.34075463364E+03  0.12499432649E+03 0.  0.
          2    1    1    2  501    0 -0.18724441980E+03  0.48306166184E+02 -0.15435161920E+04  0.15555822683E+04  0.00000000000E+00 0. -1.
          1    1    1    2  502    0 -0.46815634021E+02  0.19369504714E+02  0.63964799093E+03  0.64165133336E+03  0.00000000000E+00 0. -1.
         22    1    3    3    0    0  0.22999424850E+02 -0.58129525663E+02 -0.43637557804E+02  0.76238125294E+02  0.00000000000E+00 0. -1.
         22    1    3    3    0    0  0.21106062897E+03 -0.95461452353E+01 -0.15915798817E+03  0.26451650835E+03  0.00000000000E+00 0. -1.
</event>
<event>
 7    1  0.5064652E-006  0.1210483E+03  0.7818608E-02  0.1327263E+00
          2   -1    0    0  502    0  0.00000000000E+00  0.00000000000E+00  0.81526713102E+03  0.81526713102E+03  0.00000000000E+00 0. -1.
          1   -1    0    0  501    0 -0.00000000000E+00 -0.00000000000E+00 -0.12934666512E+04  0.12934666512E+04  0.00000000000E+00 0. -1.
         25    2    1    2    0    0 -0.13755266290E+03 -0.80007766011E+02 -0.16634025816E+03  0.26194672352E+03  0.12500010714E+03 0.  0.
          2    1    1    2  501    0  0.11452695193E+03  0.31481230388E+02 -0.10751088215E+04  0.10816498827E+04  0.00000000000E+00 0. -1.
          1    1    1    2  502    0  0.23025710977E+02  0.48526535623E+02  0.76324955952E+03  0.76513717602E+03  0.00000000000E+00 0. -1.
         22    1    3    3    0    0 -0.11401667500E+02 -0.41885280910E+02 -0.11068154472E+03  0.11888977719E+03  0.00000000000E+00 0. -1.
         22    1    3    3    0    0 -0.12615099540E+03 -0.38122485102E+02 -0.55658713440E+02  0.14305694633E+03  0.00000000000E+00 0. -1.
</event>
<event>
 7    1  0.5064652E-006  0.6472665E+02  0.7818608E-02  0.1412805E+00
          2   -1    0    0  502    0  0.00000000000E+00  0.00000000000E+00  0.12235743611E+03  0.12235743611E+03  0.00000000000E+00 0. -1.
          1   -1    0    0  501    0 -0.00000000000E+00 -0.00000000000E+00 -0.77573270393E+03  0.77573270393E+03  0.00000000000E+00 0. -1.
         25    2    1    2    0    0 -0.37356438939E+02 -0.54209593740E+01 -0.83728224668E+02  0.15511934086E+03  0.12500681570E+03 0.  0.
          2    1    1    2  501    0 -0.18645540614E+02  0.45795337940E+02 -0.64145510244E+03  0.64335800113E+03  0.00000000000E+00 0. -1.
          1    1    1    2  502    0  0.56001979553E+02 -0.40374378566E+02  0.71808059289E+02  0.99612798060E+02  0.00000000000E+00 0. -1.
         22    1    3    3    0    0 -0.22136909689E+02 -0.63068563490E+02 -0.63400262403E+02  0.92126433471E+02  0.00000000000E+00 0. -1.
         22    1    3    3    0    0 -0.15219529250E+02  0.57647604116E+02 -0.20327962265E+02  0.62992907384E+02  0.00000000000E+00 0. -1.
</event>
<event>
 7    1  0.5064652E-006  0.7817202E+02  0.7818608E-02  0.1353918E+00
          2   -1    0    0  502    0  0.00000000000E+00  0.00000000000E+00  0.40808461494E+03  0.40808461494E+03  0.00000000000E+00 0. -1.
          1   -1    0    0  501    0 -0.00000000000E+00 -0.00000000000E+00 -0.62379694534E+02  0.62379694534E+02  0.00000000000E+00 0. -1.
         25    2    1    2    0    0 -0.59867802995E+02  0.64091296091E+02  0.23681582302E+03  0.28176118493E+03  0.12496312746E+03 0.  0.
          2    1    1    2  501    0  0.63460450177E+02  0.18263541505E+02  0.23700232008E+02  0.70160435305E+02  0.00000000000E+00 0. -1.
          1    1    1    2  502    0 -0.35926471816E+01 -0.82354837596E+02  0.85188865371E+02  0.11854268924E+03  0.00000000000E+00 0. -1.
         22    1    3    3    0    0 -0.75359812982E+02  0.91414594175E+02  0.20670926879E+03  0.23825291446E+03  0.00000000000E+00 0.  1.
         22    1    3    3    0    0  0.15492009987E+02 -0.27323298084E+02  0.30106554231E+02  0.43508270470E+02  0.00000000000E+00 0.  1.
</event>
<event>
 7    1  0.5064652E-006  0.6703639E+02  0.7818608E-02  0.1382115E+00
          2   -1    0    0  502    0  0.00000000000E+00  0.00000000000E+00  0.12696614113E+04  0.12696614113E+04  0.00000000000E+00 0. -1.
          1   -1    0    0  501    0 -0.00000000000E+00 -0.00000000000E+00 -0.44172586015E+03  0.44172586015E+03  0.00000000000E+00 0. -1.
         25    2    1    2    0    0  0.98759674767E+01  0.88939277732E+01  0.33417451169E+03  0.35703899553E+03  0.12501041308E+03 0.  0.
          2    1    1    2  501    0  0.37221546586E+02  0.48241360472E+02 -0.42664229459E+03  0.43097136787E+03  0.00000000000E+00 0. -1.
          1    1    1    2  502    0 -0.47097514063E+02 -0.57135288245E+02  0.92040333404E+03  0.92337690804E+03  0.00000000000E+00 0. -1.
         22    1    3    3    0    0 -0.18336661623E+02 -0.46613214690E+02  0.72917744040E+02  0.88464808479E+02  0.00000000000E+00 0.  1.
         22    1    3    3    0    0  0.28212629100E+02  0.55507142464E+02  0.26125676765E+03  0.26857418705E+03  0.00000000000E+00 0.  1.
</event>
<event>
 7    1  0.5064652E-006  0.7460936E+02  0.7818608E-02  0.1367268E+00
          2   -1    0    0  502    0  0.00000000000E+00  0.00000000000E+00  0.58117399984E+02  0.58117399984E+02  0.00000000000E+00 0. -1.
          1   -1    0    0  501    0 -0.00000000000E+00 -0.00000000000E+00 -0.96201280837E+03  0.96201280837E+03  0.00000000000E+00 0. -1.
         25    2    1    2    0    0  0.64444476427E+02  0.24736466642E+02 -0.35213094338E+03  0.37998216615E+03  0.12500104791E+03 0.  0.
          2    1    1    2  501    0 -0.38764600583E+02  0.48199182052E+02 -0.55906822433E+03  0.56247945284E+03  0.00000000000E+00 0. -1.
          1    1    1    2  502    0 -0.25679875843E+02 -0.72935648694E+02  0.73037593320E+01  0.77668589366E+02  0.00000000000E+00 0. -1.
         22    1    3    3    0    0  0.64568951780E+02  0.67365122193E+02 -0.18119360203E+03  0.20380954502E+03  0.00000000000E+00 0. -1.
         22    1    3    3    0    0 -0.12447535320E+00 -0.42628655551E+02 -0.17093734135E+03  0.17617262113E+03  0.00000000000E+00 0. -1.
</event>
<event>
 7    1  0.5064652E-006  0.1776710E+03  0.7818608E-02  0.1216922E+00
          2   -1    0    0  502    0  0.00000000000E+00  0.00000000000E+00  0.47580747070E+03  0.47580747070E+03  0.00000000000E+00 0. -1.
          1   -1    0    0  501    0 -0.00000000000E+00 -0.00000000000E+00 -0.33345277517E+03  0.33345277517E+03  0.00000000000E+00 0. -1.
         25    2    1    2    0    0 -0.87436451163E+02 -0.18583549469E+03  0.95845418375E+02  0.25882576867E+03  0.12499788089E+03 0.  0.
          2    1    1    2  501    0 -0.58768487066E+02  0.88456869984E+02 -0.21245022044E+03  0.23751515548E+03  0.00000000000E+00 0. -1.
          1    1    1    2  502    0  0.14620493823E+03  0.97378624708E+02  0.25895949759E+03  0.31291932172E+03  0.00000000000E+00 0. -1.
         22    1    3    3    0    0 -0.26148086737E+02 -0.13826271795E+02 -0.25936469178E+02  0.39339403467E+02  0.00000000000E+00 0.  1.
         22    1    3    3    0    0 -0.61288364426E+02 -0.17200922290E+03  0.12178188755E+03  0.21948636521E+03  0.00000000000E+00 0.  1.
</event>
<event>
 7    1  0.5064652E-006  0.1120712E+03  0.7818608E-02  0.1301131E+00
          2   -1    0    0  502    0  0.00000000000E+00  0.00000000000E+00  0.22892211365E+04  0.22892211365E+04  0.00000000000E+00 0. -1.
          1   -1    0    0  501    0 -0.00000000000E+00 -0.00000000000E+00 -0.58335339743E+03  0.58335339743E+03  0.00000000000E+00 0. -1.
         25    2    1    2    0    0 -0.66147511995E+02 -0.73232175092E+02  0.15395672543E+04  0.15477826320E+04  0.12500120249E+03 0.  0.
          2    1    1    2  501    0  0.31148965429E+02 -0.66492759226E+02 -0.56991101104E+03  0.57462170650E+03  0.00000000000E+00 0. -1.
          1    1    1    2  502    0  0.34998546567E+02  0.13972493432E+03  0.73621149586E+03  0.75017019547E+03  0.00000000000E+00 0. -1.
         22    1    3    3    0    0 -0.22241681486E+02  0.22889631792E+02  0.11636427867E+03  0.12066181247E+03  0.00000000000E+00 0. -1.
         22    1    3    3    0    0 -0.43905830510E+02 -0.96121806884E+02  0.14232029756E+04  0.14271208195E+04  0.00000000000E+00 0. -1.
</event>
<event>
 7    1  0.5064652E-006  0.7604586E+02  0.7818608E-02  0.1362903E+00
          2   -1    0    0  502    0  0.00000000000E+00  0.00000000000E+00  0.12637699371E+04  0.12637699371E+04  0.00000000000E+00 0. -1.
          1   -1    0    0  501    0 -0.00000000000E+00 -0.00000000000E+00 -0.29546343434E+03  0.29546343434E+03  0.00000000000E+00 0. -1.
         25    2    1    2    0    0  0.83719442176E+01  0.35008889311E+02  0.34805904673E+01  0.13012248044E+03  0.12499613445E+03 0.  0.
          2    1    1    2  501    0  0.45362782372E+02 -0.67770241766E+02 -0.22412229852E+03  0.23849820207E+03  0.00000000000E+00 0. -1.
          1    1    1    2  502    0 -0.53734726590E+02  0.32761352455E+02  0.11889482108E+04  0.11906126889E+04  0.00000000000E+00 0. -1.
         22    1    3    3    0    0 -0.25832379737E+02 -0.39592339731E+02 -0.53677055990E+01  0.47578119674E+02  0.00000000000E+00 0.  1.
         22    1    3    3    0    0  0.34204323955E+02  0.74601229042E+02  0.88482960663E+01  0.82544360771E+02  0.00000000000E+00 0.  1.
</event>
<event>
 7    1  0.5064652E-006  0.2797210E+03  0.7818608E-02  0.1172194E+00
          2   -1    0    0  502    0  0.00000000000E+00  0.00000000000E+00  0.46959421799E+03  0.46959421799E+03  0.00000000000E+00 0. -1.
          1   -1    0    0  501    0 -0.00000000000E+00 -0.00000000000E+00 -0.94485782934E+03  0.94485782934E+03  0.00000000000E+00 0. -1.
         25    2    1    2    0    0 -0.34480093570E+03  0.18914649160E+02  0.14478404107E+03  0.39475759813E+03  0.12500277407E+03 0.  0.
          2    1    1    2  501    0  0.10391763573E+03 -0.36545100510E+02 -0.74129975827E+03  0.74943962465E+03  0.00000000000E+00 0. -1.
          1    1    1    2  502    0  0.24088329996E+03  0.17630451351E+02  0.12125210585E+03  0.27025482454E+03  0.00000000000E+00 0. -1.
         22    1    3    3    0    0 -0.61796385352E+02  0.52083901330E+01  0.84940700157E+02  0.10517054299E+03  0.00000000000E+00 0.  1.
         22    1    3    3    0    0 -0.28300455035E+03  0.13706259027E+02  0.59843340911E+02  0.28958705514E+03  0.00000000000E+00 0.  1.
</event>
<event>
 7    1  0.5064652E-006  0.1710275E+03  0.7818608E-02  0.1270914E+00
          2   -1    0    0  502    0  0.00000000000E+00  0.00000000000E+00  0.49452987785E+03  0.49452987785E+03  0.00000000000E+00 0. -1.
          1   -1    0    0  501    0 -0.00000000000E+00 -0.00000000000E+00 -0.26500857910E+04  0.26500857910E+04  0.00000000000E+00 0. -1.
         25    2    1    2    0    0 -0.51706393915E+02  0.20497896282E+03 -0.12978129426E+04  0.13208454747E+04  0.12499763049E+03 0.  0.
          2    1    1    2  501    0  0.64008986811E+02 -0.14220290344E+03 -0.13340766523E+04  0.13431602028E+04  0.00000000000E+00 0. -1.
          1    1    1    2  502    0 -0.12302592896E+02 -0.62776059381E+02  0.47633368176E+03  0.48060999137E+03  0.00000000000E+00 0. -1.
         22    1    3    3    0    0 -0.34388994703E+02  0.20516356473E+03 -0.94581521824E+03  0.96842197326E+03  0.00000000000E+00 0.  1.
         22    1    3    3    0    0 -0.17317399212E+02 -0.18460191015E+00 -0.35199772435E+03  0.35242350140E+03  0.00000000000E+00 0.  1.
</event>
<event>
 7    1  0.5064652E-006  0.8923656E+02  0.7818608E-02  0.1490221E+00
          2   -1    0    0  502    0  0.00000000000E+00  0.00000000000E+00  0.90363567955E+03  0.90363567955E+03  0.00000000000E+00 0. -1.
          1   -1    0    0  501    0 -0.00000000000E+00 -0.00000000000E+00 -0.81367646837E+03  0.81367646837E+03  0.00000000000E+00 0. -1.
         25    2    1    2    0    0  0.79526821303E+02 -0.31427039906E+01 -0.78950022724E+01  0.14839685679E+03  0.12499961660E+03 0.  0.
          2    1    1    2  501    0  0.72962314842E+01 -0.18934831299E+02 -0.73298216962E+03  0.73326299771E+03  0.00000000000E+00 0. -1.
          1    1    1    2  502    0 -0.86823052787E+02  0.22077535290E+02  0.83083638307E+03  0.83565229342E+03  0.00000000000E+00 0. -1.
         22    1    3    3    0    0  0.55333364373E+02  0.18709920918E+02 -0.62029980278E+02  0.85203056323E+02  0.00000000000E+00 0. -1.
         22    1    3    3    0    0  0.24193456929E+02 -0.21852624908E+02  0.54134978005E+02  0.63193800465E+02  0.00000000000E+00 0. -1.
</event>
<event>
 7    1  0.5064652E-006  0.8209721E+02  0.7818608E-02  0.1461422E+00
          2   -1    0    0  502    0  0.00000000000E+00  0.00000000000E+00  0.58735956348E+03  0.58735956348E+03  0.00000000000E+00 0. -1.
          1   -1    0    0  501    0 -0.00000000000E+00 -0.00000000000E+00 -0.14626302586E+03  0.14626302586E+03  0.00000000000E+00 0. -1.
         25    2    1    2    0    0  0.44522495106E+02 -0.42186218033E+02  0.61600704581E+02  0.15225381609E+03  0.12499859258E+03 0.  0.
          2    1    1    2  501    0 -0.70893420213E+02  0.48275615429E+02 -0.82247998908E+02  0.11883242570E+03  0.00000000000E+00 0. -1.
          1    1    1    2  502    0  0.26370925107E+02 -0.60893973965E+01  0.46174383195E+03  0.46253634754E+03  0.00000000000E+00 0. -1.
         22    1    3    3    0    0  0.28741527961E+02  0.33554087737E+02 -0.11671493719E+02  0.45696564412E+02  0.00000000000E+00 0. -1.
         22    1    3    3    0    0  0.15780967145E+02 -0.75740305770E+02  0.73272198301E+02  0.10655725168E+03  0.00000000000E+00 0. -1.
</event>
<event>
 7    1  0.5064652E-006  0.1035974E+03  0.7818608E-02  0.1466073E+00
          2   -1    0    0  502    0  0.00000000000E+00  0.00000000000E+00  0.75685150517E+03  0.75685150517E+03  0.00000000000E+00 0. -1.
          1   -1    0    0  501    0 -0.00000000000E+00 -0.00000000000E+00 -0.14024172231E+03  0.14024172231E+03  0.00000000000E+00 0. -1.
         25    2    1    2    0    0  0.41789229389E+00  0.12066275524E+03  0.16154635163E+03  0.23723754708E+03  0.12499901953E+03 0.  0.
          2    1    1    2  501    0  0.72944279474E+01 -0.19413993863E+02 -0.96663090155E+02  0.98862858724E+02  0.00000000000E+00 0. -1.
          1    1    1    2  502    0 -0.77123202413E+01 -0.10124876137E+03  0.55172652138E+03  0.56099282167E+03  0.00000000000E+00 0. -1.
         22    1    3    3    0    0  0.49188175198E+02  0.24983744722E+02  0.97975942370E+02  0.11244087052E+03  0.00000000000E+00 0.  1.
         22    1    3    3    0    0 -0.48770282904E+02  0.95679010514E+02  0.63570409262E+02  0.12479667656E+03  0.00000000000E+00 0.  1.
</event>
<event>
 7    1  0.5064652E-006  0.1049878E+03  0.7818608E-02  0.1397022E+00
          2   -1    0    0  502    0  0.00000000000E+00  0.00000000000E+00  0.80166009447E+03  0.80166009447E+03  0.00000000000E+00 0. -1.
          1   -1    0    0  501    0 -0.00000000000E+00 -0.00000000000E+00 -0.68547565074E+03  0.68547565074E+03  0.00000000000E+00 0. -1.
         25    2    1    2    0    0  0.13093433911E+02  0.76010993836E+02 -0.10168815834E+03  0.17864727548E+03  0.12500103318E+03 0.  0.
          2    1    1    2  501    0 -0.17656717483E+02  0.29652099019E+02 -0.54109146043E+03  0.54219090291E+03  0.00000000000E+00 0. -1.
          1    1    1    2  502    0  0.45632835720E+01 -0.10566309286E+03  0.75896406249E+03  0.76629756681E+03  0.00000000000E+00 0. -1.
         22    1    3    3    0    0  0.66871522697E+02  0.61137249447E+02 -0.55855725891E+02  0.10643977608E+03  0.00000000000E+00 0. -1.
         22    1    3    3    0    0 -0.53778088785E+02  0.14873744389E+02 -0.45832432444E+02  0.72207499398E+02  0.00000000000E+00 0. -1.
</event>
<event>
 7    1  0.5064652E-006  0.4049428E+02  0.7818608E-02  0.1589526E+00
          2   -1    0    0  502    0  0.00000000000E+00  0.00000000000E+00  0.15272467116E+04  0.15272467116E+04  0.00000000000E+00 0. -1.
          1   -1    0    0  501    0 -0.00000000000E+00 -0.00000000000E+00 -0.14880200959E+04  0.14880200959E+04  0.00000000000E+00 0. -1.
         25    2    1    2    0    0 -0.79195316451E+01 -0.20195254097E+02  0.16870218536E+03  0.21108218597E+03  0.12499877848E+03 0.  0.
          2    1    1    2  501    0  0.30368468896E+02  0.26834177538E+02 -0.14664476987E+04  0.14670075562E+04  0.00000000000E+00 0. -1.
          1    1    1    2  502    0 -0.22448937251E+02 -0.66389234412E+01  0.13369721291E+04  0.13371770653E+04  0.00000000000E+00 0. -1.
         22    1    3    3    0    0 -0.32676428460E+02 -0.40554052680E+01  0.17727782153E+03  0.18030979257E+03  0.00000000000E+00 0. -1.
         22    1    3    3    0    0  0.24756896815E+02 -0.16139848829E+02 -0.85756361717E+01  0.30772393405E+02  0.00000000000E+00 0. -1.
</event>
<event>
 7    1  0.5064652E-006  0.4675853E+02  0.7818608E-02  0.1519300E+00
          2   -1    0    0  502    0  0.00000000000E+00  0.00000000000E+00  0.72307288692E+03  0.72307288692E+03  0.00000000000E+00 0. -1.
          1   -1    0    0  501    0 -0.00000000000E+00 -0.00000000000E+00 -0.64117127861E+03  0.64117127861E+03  0.00000000000E+00 0. -1.
         25    2    1    2    0    0  0.61423690641E+01 -0.15726489238E+02  0.18658437415E+03  0.22522018036E+03  0.12500139921E+03 0.  0.
          2    1    1    2  501    0  0.15640107783E+02 -0.27634109124E+02 -0.62030817267E+03  0.62112034747E+03  0.00000000000E+00 0. -1.
          1    1    1    2  502    0 -0.21782476847E+02  0.43360598361E+02  0.51562540682E+03  0.51790363770E+03  0.00000000000E+00 0. -1.
         22    1    3    3    0    0  0.34108913049E+02 -0.61998311673E+02  0.12154530344E+03  0.14064305666E+03  0.00000000000E+00 0.  1.
         22    1    3    3    0    0 -0.27966543985E+02  0.46271822436E+02  0.65039070719E+02  0.84577123703E+02  0.00000000000E+00 0.  1.
</event>
<event>
 7    1  0.5064652E-006  0.4364808E+03  0.7818608E-02  0.1227894E+00
          2   -1    0    0  502    0  0.00000000000E+00  0.00000000000E+00  0.17798173733E+04  0.17798173733E+04  0.00000000000E+00 0. -1.
          1   -1    0    0  501    0 -0.00000000000E+00 -0.00000000000E+00 -0.13438042665E+04  0.13438042665E+04  0.00000000000E+00 0. -1.
         25    2    1    2    0    0  0.26198092834E+03  0.33845472409E+03 -0.13708887730E+03  0.46648095039E+03  0.12500203889E+03 0.  0.
          2    1    1    2  501    0 -0.29738194793E+03 -0.32321135481E+03 -0.99549138505E+03  0.10880738488E+04  0.00000000000E+00 0. -1.
          1    1    1    2  502    0  0.35401019594E+02 -0.15243369279E+02  0.15685933691E+04  0.15690668406E+04  0.00000000000E+00 0. -1.
         22    1    3    3    0    0  0.25236566402E+03  0.28120534135E+03 -0.15081463844E+03  0.40682911345E+03  0.00000000000E+00 0. -1.
         22    1    3    3    0    0  0.96152643172E+01  0.57249382735E+02  0.13725761141E+02  0.59651836941E+02  0.00000000000E+00 0. -1.
</event>
<event>
 7    1  0.5064652E-006  0.1293116E+03  0.7818608E-02  0.1313615E+00
          2   -1    0    0  502    0  0.00000000000E+00  0.00000000000E+00  0.27431739041E+03  0.27431739041E+03  0.00000000000E+00 0. -1.
          1   -1    0    0  501    0 -0.00000000000E+00 -0.00000000000E+00 -0.90445830141E+03  0.90445830141E+03  0.00000000000E+00 0. -1.
         25    2    1    2    0    0 -0.74597547477E+02  0.23122006118E+02 -0.50496966192E+02  0.15580227129E+03  0.12499993155E+03 0.  0.
          2    1    1    2  501    0  0.12800004353E+03 -0.42457396890E+02 -0.79187402399E+03  0.80327524023E+03  0.00000000000E+00 0. -1.
          1    1    1    2  502    0 -0.53402496055E+02  0.19335390771E+02  0.21223007918E+03  0.21969818030E+03  0.00000000000E+00 0. -1.
         22    1    3    3    0    0 -0.24339941120E+02  0.42803335377E+02  0.30902883498E+02  0.58133866735E+02  0.00000000000E+00 0.  1.
         22    1    3    3    0    0 -0.50257606357E+02 -0.19681329259E+02 -0.81399849690E+02  0.97668404552E+02  0.00000000000E+00 0.  1.
</event>
<event>
 7    1  0.5064652E-006  0.7057633E+02  0.7818608E-02  0.1439072E+00
          2   -1    0    0  502    0  0.00000000000E+00  0.00000000000E+00  0.20974403632E+04  0.20974403632E+04  0.00000000000E+00 0. -1.
          1   -1    0    0  501    0 -0.00000000000E+00 -0.00000000000E+00 -0.88682411650E+02  0.88682411650E+02  0.00000000000E+00 0. -1.
         25    2    1    2    0    0 -0.60977846508E+02 -0.17646470943E+02  0.31286938517E+03  0.34284412071E+03  0.12500057293E+03 0.  0.
          2    1    1    2  501    0 -0.78937285789E+01  0.36266996722E+02 -0.68254514431E+02  0.77693530891E+02  0.00000000000E+00 0. -1.
          1    1    1    2  502    0  0.68871575087E+02 -0.18620525779E+02  0.17641430808E+04  0.17655851232E+04  0.00000000000E+00 0. -1.
         22    1    3    3    0    0  0.22626577788E+02 -0.45886287726E+02  0.13280338439E+03  0.14231743508E+03  0.00000000000E+00 0.  1.
         22    1    3    3    0    0 -0.83604424296E+02  0.28239816783E+02  0.18006600078E+03  0.20052668563E+03  0.00000000000E+00 0.  1.
</event>
<event>
 7    1  0.5064652E-006  0.8361921E+02  0.7818608E-02  0.1471236E+00
          2   -1    0    0  502    0  0.00000000000E+00  0.00000000000E+00  0.51549988474E+03  0.51549988474E+03  0.00000000000E+00 0. -1.
          1   -1    0    0  501    0 -0.00000000000E+00 -0.00000000000E+00 -0.98020317155E+02  0.98020317155E+02  0.00000000000E+00 0. -1.
         25    2    1    2    0    0 -0.78662707571E+02 -0.23942609952E+02  0.98086879393E+02  0.17890593223E+03  0.12500090617E+03 0.  0.
          2    1    1    2  501    0  0.88814825045E+01 -0.23111670875E+02 -0.49978774940E+02  0.55775514400E+02  0.00000000000E+00 0. -1.
          1    1    1    2  502    0  0.69781225067E+02  0.47054280827E+02  0.36937146313E+03  0.37883875527E+03  0.00000000000E+00 0. -1.
         22    1    3    3    0    0 -0.75631278120E+02 -0.44742881500E+02  0.11987320225E+03  0.14863243351E+03  0.00000000000E+00 0.  1.
         22    1    3    3    0    0 -0.30314294514E+01  0.20800271547E+02 -0.21786322854E+02  0.30273498716E+02  0.00000000000E+00 0.  1.
</event>
<event>
 7    1  0.5064652E-006  0.5105213E+02  0.7818608E-02  0.1546963E+00
          2   -1    0    0  502    0  0.00000000000E+00  0.00000000000E+00  0.46262921747E+03  0.46262921747E+03  0.00000000000E+00 0. -1.
          1   -1    0    0  501    0 -0.00000000000E+00 -0.00000000000E+00 -0.10862464742E+03  0.10862464742E+03  0.00000000000E+00 0. -1.
         25    2    1    2    0    0 -0.10811986447E+02  0.60629342313E+02  0.89206264211E+02  0.16544420887E+03  0.12498484898E+03 0.  0.
          2    1    1    2  501    0  0.21587309229E+02 -0.11046637000E+02 -0.66429933790E+02  0.70717580644E+02  0.00000000000E+00 0. -1.
          1    1    1    2  502    0 -0.10775322782E+02 -0.49582705313E+02  0.33122823963E+03  0.33509207537E+03  0.00000000000E+00 0. -1.
         22    1    3    3    0    0  0.14641820831E+02  0.65725131894E+02 -0.51973497031E+01  0.67536570269E+02  0.00000000000E+00 0.  1.
         22    1    3    3    0    0 -0.25453807278E+02 -0.50957895812E+01  0.94403613914E+02  0.97907638601E+02  0.00000000000E+00 0.  1.
</event>
<event>
 7    1  0.5064652E-006  0.5687984E+02  0.7818608E-02  0.1525486E+00
          2   -1    0    0  502    0  0.00000000000E+00  0.00000000000E+00  0.17909113679E+04  0.17909113679E+04  0.00000000000E+00 0. -1.
          1   -1    0    0  501    0 -0.00000000000E+00 -0.00000000000E+00 -0.24897712238E+03  0.24897712238E+03  0.00000000000E+00 0. -1.
         25    2    1    2    0    0  0.54339210472E+02 -0.20361660761E+02  0.10148927508E+04  0.10242071418E+04  0.12500250607E+03 0.  0.
          2    1    1    2  501    0 -0.39739054797E+02  0.40715197392E+02 -0.24080075310E+03  0.24743064173E+03  0.00000000000E+00 0. -1.
          1    1    1    2  502    0 -0.14600155675E+02 -0.20353536631E+02  0.76784224779E+03  0.76825070679E+03  0.00000000000E+00 0. -1.
         22    1    3    3    0    0  0.64687832436E+02  0.33396015019E+02  0.76128832017E+03  0.76476121496E+03  0.00000000000E+00 0. -1.
         22    1    3    3    0    0 -0.10348621964E+02 -0.53757675780E+02  0.25360443068E+03  0.25944592682E+03  0.00000000000E+00 0. -1.
</event>
<event>
 7    1  0.5064652E-006  0.7650023E+02  0.7818608E-02  0.1360025E+00
          2   -1    0    0  502    0  0.00000000000E+00  0.00000000000E+00  0.98647080142E+03  0.98647080142E+03  0.00000000000E+00 0. -1.
          1   -1    0    0  501    0 -0.00000000000E+00 -0.00000000000E+00 -0.62752464221E+02  0.62752464221E+02  0.00000000000E+00 0. -1.
         25    2    1    2    0    0 -0.40621602884E+02 -0.51676846209E+02  0.36131979448E+03  0.38793857954E+03  0.12499494612E+03 0.  0.
          2    1    1    2  501    0  0.56611649113E+02 -0.30040945596E+02 -0.24423391697E+02  0.68584541185E+02  0.00000000000E+00 0. -1.
          1    1    1    2  502    0 -0.15990046229E+02  0.81717791805E+02  0.58682193441E+03  0.59270014492E+03  0.00000000000E+00 0. -1.
         22    1    3    3    0    0 -0.25212556148E+02 -0.48140111401E+02  0.36710365900E+03  0.37110408212E+03  0.00000000000E+00 0. -1.
         22    1    3    3    0    0 -0.15409046736E+02 -0.35367348083E+01 -0.57838645230E+01  0.16834497415E+02  0.00000000000E+00 0. -1.
</event>
<event>
 7    1  0.5064652E-006  0.2924050E+02  0.7818608E-02  0.1617098E+00
          2   -1    0    0  502    0  0.00000000000E+00  0.00000000000E+00  0.22989225860E+03  0.22989225860E+03  0.00000000000E+00 0. -1.
          1   -1    0    0  501    0 -0.00000000000E+00 -0.00000000000E+00 -0.12671705277E+03  0.12671705277E+03  0.00000000000E+00 0. -1.
         25    2    1    2    0    0  0.30300620107E+02 -0.28084229586E+02  0.16375215067E+03  0.21010957825E+03  0.12499766595E+03 0.  0.
          2    1    1    2  501    0 -0.19084917832E+01  0.27417018032E+02 -0.96711255504E+02  0.10054054983E+03  0.00000000000E+00 0. -1.
          1    1    1    2  502    0 -0.28392128324E+02  0.66721155424E+00  0.36134310661E+02  0.45959183293E+02  0.00000000000E+00 0. -1.
         22    1    3    3    0    0 -0.39890912558E+02  0.11102795609E+01  0.10997230754E+03  0.11698899970E+03  0.00000000000E+00 0.  1.
         22    1    3    3    0    0  0.70191532665E+02 -0.29194509147E+02  0.53779843124E+02  0.93120578545E+02  0.00000000000E+00 0.  1.
</event>
<event>
 7    1  0.5064652E-006  0.2688463E+03  0.7818608E-02  0.1274480E+00
          2   -1    0    0  502    0  0.00000000000E+00  0.00000000000E+00  0.23495718641E+04  0.23495718641E+04  0.00000000000E+00 0. -1.
          1   -1    0    0  501    0 -0.00000000000E+00 -0.00000000000E+00 -0.11628257512E+03  0.11628257512E+03  0.00000000000E+00 0. -1.
         25    2    1    2    0    0  0.24035334884E+03 -0.39400767616E+02  0.90431912593E+03  0.94484879305E+03  0.12499602961E+03 0.  0.
          2    1    1    2  501    0 -0.27378209842E+03  0.18695846253E+02  0.10101531199E+03  0.29242138318E+03  0.00000000000E+00 0. -1.
          1    1    1    2  502    0  0.33428749580E+02  0.20704921363E+02  0.12279548511E+04  0.12285842630E+04  0.00000000000E+00 0. -1.
         22    1    3    3    0    0  0.49135297668E+02 -0.60894864321E+02  0.33008957427E+03  0.33923677427E+03  0.00000000000E+00 0. -1.
         22    1    3    3    0    0  0.19121805117E+03  0.21494096705E+02  0.57422955167E+03  0.60561201878E+03  0.00000000000E+00 0. -1.
</event>
<event>
 7    1  0.5064652E-006  0.1096322E+03  0.7818608E-02  0.1297913E+00
          2   -1    0    0  502    0  0.00000000000E+00  0.00000000000E+00  0.83758343319E+03  0.83758343319E+03  0.00000000000E+00 0. -1.
          1   -1    0    0  501    0 -0.00000000000E+00 -0.00000000000E+00 -0.10472636149E+03  0.10472636149E+03  0.00000000000E+00 0. -1.
         25    2    1    2    0    0 -0.10957178710E+03 -0.11096629385E+03  0.80943361357E+02  0.21562962866E+03  0.12499925643E+03 0.  0.
          2    1    1    2  501    0  0.85063396498E+02  0.37631079652E+02  0.26795627825E+02  0.96798167596E+02  0.00000000000E+00 0. -1.
          1    1    1    2  502    0  0.24508390600E+02  0.73335214203E+02  0.62511808251E+03  0.62988199842E+03  0.00000000000E+00 0. -1.
         22    1    3    3    0    0 -0.95682763561E+02 -0.57478984118E+02 -0.69184204542E+01  0.11183420496E+03  0.00000000000E+00 0.  1.
         22    1    3    3    0    0 -0.13889023537E+02 -0.53487309737E+02  0.87861781811E+02  0.10379542370E+03  0.00000000000E+00 0.  1.
</event>
<event>
 7    1  0.5064652E-006  0.1245911E+03  0.7818608E-02  0.1306305E+00
          2   -1    0    0  502    0  0.00000000000E+00  0.00000000000E+00  0.11952269682E+03  0.11952269682E+03  0.00000000000E+00 0. -1.
          1   -1    0    0  501    0 -0.00000000000E+00 -0.00000000000E+00 -0.94646512582E+03  0.94646512582E+03  0.00000000000E+00 0. -1.
         25    2    1    2    0    0 -0.15344443240E+03  0.22665877359E+01 -0.17555999173E+03  0.26456715887E+03  0.12499655836E+03 0.  0.
          2    1    1    2  501    0  0.41871233860E+02 -0.47059064025E+02 -0.67580689356E+03  0.67873611450E+03  0.00000000000E+00 0. -1.
          1    1    1    2  502    0  0.11157319854E+03  0.44792476290E+02  0.24424456299E+02  0.12268454928E+03  0.00000000000E+00 0. -1.
         22    1    3    3    0    0  0.10573475465E+02 -0.27034886804E+02 -0.41862093710E+02  0.50942304401E+02  0.00000000000E+00 0.  1.
         22    1    3    3    0    0 -0.16401790787E+03  0.29301474540E+02 -0.13369789802E+03  0.21362485447E+03  0.00000000000E+00 0.  1.
</event>
<event>
 7    1  0.5064652E-006  0.1015352E+03  0.7818608E-02  0.1345429E+00
          2   -1    0    0  502    0  0.00000000000E+00  0.00000000000E+00  0.20574814825E+03  0.20574814825E+03  0.00000000000E+00 0. -1.
          1   -1    0    0  501    0 -0.00000000000E+00 -0.00000000000E+00 -0.18088221067E+04  0.18088221067E+04  0.00000000000E+00 0. -1.
         25    2    1    2    0    0  0.21543339548E+02  0.11396034189E+03 -0.15543996478E+04  0.15637243694E+04  0.12499825282E+03 0.  0.
          2    1    1    2  501    0 -0.51923792162E+02 -0.17084513182E+02 -0.23358519146E+03  0.23989581583E+03  0.00000000000E+00 0. -1.
          1    1    1    2  502    0  0.30380452613E+02 -0.96875828708E+02  0.18491088081E+03  0.21095006976E+03  0.00000000000E+00 0. -1.
         22    1    3    3    0    0  0.11633287600E+01 -0.15743141513E+02 -0.61406747305E+03  0.61427034871E+03  0.00000000000E+00 0. -1.
         22    1    3    3    0    0  0.20380010788E+02  0.12970348340E+03 -0.94033217475E+03  0.94945402065E+03  0.00000000000E+00 0. -1.
</event>
<event>
 7    1  0.5064652E-006  0.3965598E+02  0.7818608E-02  0.1518599E+00
          2   -1    0    0  502    0  0.00000000000E+00  0.00000000000E+00  0.19632603014E+04  0.19632603014E+04  0.00000000000E+00 0. -1.
          1   -1    0    0  501    0 -0.00000000000E+00 -0.00000000000E+00 -0.23516470870E+03  0.23516470870E+03  0.00000000000E+00 0. -1.
         25    2    1    2    0    0  0.77193466900E+01  0.76058928312E+01  0.20139106166E+03  0.23727786364E+03  0.12499994775E+03 0.  0.
          2    1    1    2  501    0  0.16491297718E+02 -0.36395086665E+02 -0.21517904431E+03  0.21885745668E+03  0.00000000000E+00 0. -1.
          1    1    1    2  502    0 -0.24210644408E+02  0.28789193834E+02  0.17418835754E+04  0.17422896898E+04  0.00000000000E+00 0. -1.
         22    1    3    3    0    0  0.65593540699E+02  0.28954645320E+01  0.87017358005E+02  0.10900879272E+03  0.00000000000E+00 0.  1.
         22    1    3    3    0    0 -0.57874194009E+02  0.47104282993E+01  0.11437370366E+03  0.12826907092E+03  0.00000000000E+00 0.  1.
</event>
<event>
 7    1  0.5064652E-006  0.1394512E+03  0.7818608E-02  0.1278030E+00
          2   -1    0    0  502    0  0.00000000000E+00  0.00000000000E+00  0.93222216683E+03  0.93222216683E+03  0.00000000000E+00 0. -1.
          1   -1    0    0  501    0 -0.00000000000E+00 -0.00000000000E+00 -0.44131900344E+03  0.44131900344E+03  0.00000000000E+00 0. -1.
         25    2    1    2    0    0 -0.54500649396E+01 -0.20784538048E+03  0.22494753969E+03  0.33084058712E+03  0.12499877232E+03 0.  0.
          2    1    1    2  501    0 -0.97745002058E+01  0.13616952044E+03 -0.37422032209E+03  0.39834473590E+03  0.00000000000E+00 0. -1.
          1    1    1    2  502    0  0.15224565145E+02  0.71675860043E+02  0.64017594580E+03  0.64435584724E+03  0.00000000000E+00 0. -1.
         22    1    3    3    0    0 -0.50071306437E+02 -0.18292779802E+03  0.19289079393E+03  0.27051168810E+03  0.00000000000E+00 0. -1.
         22    1    3    3    0    0  0.44621241497E+02 -0.24917582458E+02  0.32056745765E+02  0.60328899023E+02  0.00000000000E+00 0. -1.
</event>
<event>
 7    1  0.5064652E-006  0.4837426E+02  0.7818608E-02  0.1560114E+00
          2   -1    0    0  502    0  0.00000000000E+00  0.00000000000E+00  0.13783275296E+03  0.13783275296E+03  0.00000000000E+00 0. -1.
          1   -1    0    0  501    0 -0.00000000000E+00 -0.00000000000E+00 -0.28157697043E+03  0.28157697043E+03  0.00000000000E+00 0. -1.
         25    2    1    2    0    0  0.48710199867E+02  0.95597278120E+00 -0.11474221003E+03  0.17653293164E+03  0.12499801493E+03 0.  0.
          2    1    1    2  501    0 -0.43803375768E+02  0.22054973059E+02 -0.13012120174E+03  0.13905640836E+03  0.00000000000E+00 0. -1.
          1    1    1    2  502    0 -0.49068240990E+01 -0.23010945840E+02  0.10111919429E+03  0.10382038338E+03  0.00000000000E+00 0. -1.
         22    1    3    3    0    0 -0.10944424406E+02 -0.33314546857E+02  0.78696583916E+01  0.35938433202E+02  0.00000000000E+00 0.  1.
         22    1    3    3    0    0  0.59654624273E+02  0.34270519638E+02 -0.12261186843E+03  0.14059449844E+03  0.00000000000E+00 0.  1.
</event>
<event>
 7    1  0.5064652E-006  0.3514423E+02  0.7818608E-02  0.1568588E+00
          2   -1    0    0  502    0  0.00000000000E+00  0.00000000000E+00  0.10782259435E+04  0.10782259435E+04  0.00000000000E+00 0. -1.
          1   -1    0    0  501    0 -0.00000000000E+00 -0.00000000000E+00 -0.10923993591E+03  0.10923993591E+03  0.00000000000E+00 0. -1.
         25    2    1    2    0    0 -0.52074129646E+01 -0.54807449007E+02  0.81884331226E+02  0.15925180257E+03  0.12500047721E+03 0.  0.
          2    1    1    2  501    0 -0.15472190259E+02  0.26517686761E+02 -0.66879406652E+02  0.73589614869E+02  0.00000000000E+00 0. -1.
          1    1    1    2  502    0  0.20679603224E+02  0.28289762246E+02  0.95398108305E+03  0.95462446200E+03  0.00000000000E+00 0. -1.
         22    1    3    3    0    0  0.45466635403E+02 -0.69593368787E+02  0.57678760966E+02  0.10117950079E+03  0.00000000000E+00 0. -1.
         22    1    3    3    0    0 -0.50674048368E+02  0.14785919780E+02  0.24205570260E+02  0.58072301774E+02  0.00000000000E+00 0. -1.
</event>
<event>
 7    1  0.5064652E-006  0.4786496E+02  0.7818608E-02  0.1475811E+00
          2   -1    0    0  502    0  0.00000000000E+00  0.00000000000E+00  0.15913091202E+04  0.15913091202E+04  0.00000000000E+00 0. -1.
          1   -1    0    0  501    0 -0.00000000000E+00 -0.00000000000E+00 -0.19223445845E+04  0.19223445845E+04  0.00000000000E+00 0. -1.
         25    2    1    2    0    0 -0.86999897195E+02  0.39437497874E+01  0.19746565255E+02  0.15361949833E+03  0.12499795260E+03 0.  0.
          2    1    1    2  501    0  0.46990673569E+02  0.83884897732E+01 -0.18548097649E+04  0.18554238745E+04  0.00000000000E+00 0. -1.
          1    1    1    2  502    0  0.40009223625E+02 -0.12332239561E+02  0.15040277353E+04  0.15046103319E+04  0.00000000000E+00 0. -1.
         22    1    3    3    0    0 -0.61157568315E+02  0.11319372843E+02 -0.49404212373E+02  0.79430174140E+02  0.00000000000E+00 0. -1.
         22    1    3    3    0    0 -0.25842328880E+02 -0.73756230551E+01  0.69150777628E+02  0.74189324191E+02  0.00000000000E+00 0. -1.
</event>
<event>
 7    1  0.5064652E-006  0.8496804E+02  0.7818608E-02  0.1402806E+00
          2   -1    0    0  502    0  0.00000000000E+00  0.00000000000E+00  0.28089368742E+04  0.28089368742E+04  0.00000000000E+00 0. -1.
          1   -1    0    0  501    0 -0.00000000000E+00 -0.00000000000E+00 -0.17756657412E+03  0.17756657412E+03  0.00000000000E+00 0. -1.
         25    2    1    2    0    0  0.49359030931E+02  0.20055971362E+02  0.18969139404E+04  0.19017744299E+04  0.12499971612E+03 0.  0.
          2    1    1    2  501    0 -0.85159486314E+02 -0.62550154907E+00 -0.16429500105E+03  0.18505506405E+03  0.00000000000E+00 0. -1.
          1    1    1    2  502    0  0.35800455383E+02 -0.19430469813E+02  0.89875136070E+03  0.89967395434E+03  0.00000000000E+00 0. -1.
         22    1    3    3    0    0  0.41486791352E+02 -0.33101700363E+02  0.15325888814E+04  0.15335075989E+04  0.00000000000E+00 0. -1.
         22    1    3    3    0    0  0.78722395789E+01  0.53157671725E+02  0.36432505906E+03  0.36826683108E+03  0.00000000000E+00 0. -1.
</event>
<event>
 7    1  0.5064652E-006  0.3615617E+02  0.7818608E-02  0.1546083E+00
          2   -1    0    0  502    0  0.00000000000E+00  0.00000000000E+00  0.16352130906E+03  0.16352130906E+03  0.00000000000E+00 0. -1.
          1   -1    0    0  501    0 -0.00000000000E+00 -0.00000000000E+00 -0.93481246015E+03  0.93481246015E+03  0.00000000000E+00 0. -1.
         25    2    1    2    0    0 -0.35981564616E+01 -0.23886644507E+01 -0.44986656922E+02  0.13291886148E+03  0.12499988795E+03 0.  0.
          2    1    1    2  501    0  0.32931673415E+02 -0.15647892789E+02 -0.84297789235E+03  0.84376600942E+03  0.00000000000E+00 0. -1.
          1    1    1    2  502    0 -0.29333516953E+02  0.18036557240E+02  0.11667339819E+03  0.12164889831E+03  0.00000000000E+00 0. -1.
         22    1    3    3    0    0  0.32575514037E+02  0.38827052927E+02  0.13797629324E+02  0.52526933365E+02  0.00000000000E+00 0. -1.
         22    1    3    3    0    0 -0.36173670498E+02 -0.41215717378E+02 -0.58784286247E+02  0.80391928114E+02  0.00000000000E+00 0. -1.
</event>
<event>
 7    1  0.5064652E-006  0.1074500E+03  0.7818608E-02  0.1366651E+00
          2   -1    0    0  502    0  0.00000000000E+00  0.00000000000E+00  0.12611306445E+04  0.12611306445E+04  0.00000000000E+00 0. -1.
          1   -1    0    0  501    0 -0.00000000000E+00 -0.00000000000E+00 -0.30923698927E+03  0.30923698927E+03  0.00000000000E+00 0. -1.
         25    2    1    2    0    0 -0.27671710300E+02  0.14420565329E+03  0.74691315490E+03  0.77140473731E+03  0.12500005516E+03 0.  0.
          2    1    1    2  501    0  0.33822376044E+02 -0.10147660339E+03 -0.28638291483E+03  0.30570676810E+03  0.00000000000E+00 0. -1.
          1    1    1    2  502    0 -0.61506657437E+01 -0.42729049907E+02  0.49136341517E+03  0.49325612836E+03  0.00000000000E+00 0. -1.
         22    1    3    3    0    0 -0.44621271630E+00  0.16086111484E+03  0.63019550642E+03  0.65040208616E+03  0.00000000000E+00 0.  1.
         22    1    3    3    0    0 -0.27225497584E+02 -0.16655461547E+02  0.11671764848E+03  0.12100265115E+03  0.00000000000E+00 0.  1.
</event>
<event>
 7    1  0.5064652E-006  0.4938622E+02  0.7818608E-02  0.1525776E+00
          2   -1    0    0  502    0  0.00000000000E+00  0.00000000000E+00  0.24828803082E+03  0.24828803082E+03  0.00000000000E+00 0. -1.
          1   -1    0    0  501    0 -0.00000000000E+00 -0.00000000000E+00 -0.65854251557E+03  0.65854251557E+03  0.00000000000E+00 0. -1.
         25    2    1    2    0    0  0.15408204612E+02 -0.64203836517E+02 -0.24803074472E+03  0.28548801141E+03  0.12499843574E+03 0.  0.
          2    1    1    2  501    0 -0.24132514712E+02  0.15706832651E+02 -0.38860006454E+03  0.38966536030E+03  0.00000000000E+00 0. -1.
          1    1    1    2  502    0  0.87243100998E+01  0.48497003866E+02  0.22637632451E+03  0.23167717468E+03  0.00000000000E+00 0. -1.
         22    1    3    3    0    0  0.58824061163E+02 -0.17546964532E+02 -0.18862642207E+03  0.19836353807E+03  0.00000000000E+00 0. -1.
         22    1    3    3    0    0 -0.43415856551E+02 -0.46656871985E+02 -0.59404322657E+02  0.87124473334E+02  0.00000000000E+00 0. -1.
</event>
<event>
 7    1  0.5064652E-006  0.8218301E+02  0.7818608E-02  0.1353928E+00
          2   -1    0    0  502    0  0.00000000000E+00  0.00000000000E+00  0.19153133618E+04  0.19153133618E+04  0.00000000000E+00 0. -1.
          1   -1    0    0  501    0 -0.00000000000E+00 -0.00000000000E+00 -0.43612992459E+03  0.43612992459E+03  0.00000000000E+00 0. -1.
         25    2    1    2    0    0  0.13622207047E+03  0.45430538336E+02  0.47633223234E+03  0.51297124634E+03  0.12500687062E+03 0.  0.
          2    1    1    2  501    0 -0.74596558277E+02 -0.33300419007E+02 -0.41311442447E+03  0.42111410819E+03  0.00000000000E+00 0. -1.
          1    1    1    2  502    0 -0.61625512191E+02 -0.12130119329E+02  0.14159656293E+04  0.14173579318E+04  0.00000000000E+00 0. -1.
         22    1    3    3    0    0  0.94450090455E+02 -0.32631058162E+02  0.21597352711E+03  0.23797094351E+03  0.00000000000E+00 0.  1.
         22    1    3    3    0    0  0.41771980013E+02  0.78061596498E+02  0.26035870523E+03  0.27500030282E+03  0.00000000000E+00 0.  1.
</event>
<event>
 7    1  0.5064652E-006  0.9011034E+02  0.7818608E-02  0.1305978E+00
          2   -1    0    0  502    0  0.00000000000E+00  0.00000000000E+00  0.12697751737E+04  0.12697751737E+04  0.00000000000E+00 0. -1.
          1   -1    0    0  501    0 -0.00000000000E+00 -0.00000000000E+00 -0.55066279715E+03  0.55066279715E+03  0.00000000000E+00 0. -1.
         25    2    1    2    0    0 -0.36265862287E+02 -0.13444152104E+03 -0.44625956799E+02  0.19234872865E+03  0.12496728390E+03 0.  0.
          2    1    1    2  501    0  0.70595746392E+02  0.51448662787E+02 -0.42605145972E+03  0.43491444060E+03  0.00000000000E+00 0. -1.
          1    1    1    2  502    0 -0.34329884105E+02  0.82992858258E+02  0.11897897930E+04  0.11931748016E+04  0.00000000000E+00 0. -1.
         22    1    3    3    0    0 -0.19457662954E+02  0.28041884214E+01  0.29508797927E+02  0.35457485463E+02  0.00000000000E+00 0. -1.
         22    1    3    3    0    0 -0.16808199333E+02 -0.13724570947E+03 -0.74134754726E+02  0.15689124319E+03  0.00000000000E+00 0. -1.
</event>
<event>
 7    1  0.5064652E-006  0.8962213E+02  0.7818608E-02  0.1485258E+00
          2   -1    0    0  502    0  0.00000000000E+00  0.00000000000E+00  0.77832330358E+03  0.77832330358E+03  0.00000000000E+00 0. -1.
          1   -1    0    0  501    0 -0.00000000000E+00 -0.00000000000E+00 -0.31337336010E+03  0.31337336010E+03  0.00000000000E+00 0. -1.
         25    2    1    2    0    0 -0.70618483311E+02 -0.37449758219E+02 -0.46551997274E+02  0.15550371485E+03  0.12499944922E+03 0.  0.
          2    1    1    2  501    0  0.20989383828E+01 -0.20812071959E+02 -0.20902759878E+03  0.21007161858E+03  0.00000000000E+00 0. -1.
          1    1    1    2  502    0  0.68519544928E+02  0.58261830179E+02  0.72052953954E+03  0.72612133025E+03  0.00000000000E+00 0. -1.
         22    1    3    3    0    0 -0.35931107113E+02  0.45632973670E+02 -0.13796004079E+02  0.59697089317E+02  0.00000000000E+00 0. -1.
         22    1    3    3    0    0 -0.34687376198E+02 -0.83082731889E+02 -0.32755993195E+02  0.95806625532E+02  0.00000000000E+00 0. -1.
</event>
<event>
 7    1  0.5064652E-006  0.1215038E+03  0.7818608E-02  0.1354807E+00
          2   -1    0    0  502    0  0.00000000000E+00  0.00000000000E+00  0.16881832242E+03  0.16881832242E+03  0.00000000000E+00 0. -1.
          1   -1    0    0  501    0 -0.00000000000E+00 -0.00000000000E+00 -0.62824436144E+03  0.62824436144E+03  0.00000000000E+00 0. -1.
         25    2    1    2    0    0 -0.89609461566E+02 -0.73168731665E+02 -0.77686598848E+02  0.18719975991E+03  0.12500009429E+03 0.  0.
          2    1    1    2  501    0  0.11633151622E+03  0.40549804342E+02 -0.48390320441E+03  0.49933918285E+03  0.00000000000E+00 0. -1.
          1    1    1    2  502    0 -0.26722054654E+02  0.32618927324E+02  0.10216376423E+03  0.11052374110E+03  0.00000000000E+00 0. -1.
         22    1    3    3    0    0 -0.95895180408E+02 -0.10853536242E+02 -0.13375372259E+02  0.97429900223E+02  0.00000000000E+00 0.  1.
         22    1    3    3    0    0  0.62857188422E+01 -0.62315195423E+02 -0.64311226588E+02  0.89769859682E+02  0.00000000000E+00 0.  1.
</event>
<event>
 7    1  0.5064652E-006  0.1011301E+03  0.7818608E-02  0.1323995E+00
          2   -1    0    0  502    0  0.00000000000E+00  0.00000000000E+00  0.27530262288E+03  0.27530262288E+03  0.00000000000E+00 0. -1.
          1   -1    0    0  501    0 -0.00000000000E+00 -0.00000000000E+00 -0.70755639624E+03  0.70755639624E+03  0.00000000000E+00 0. -1.
         25    2    1    2    0    0 -0.88964143624E+02 -0.38781922248E+02 -0.49373845319E+02  0.16577044569E+03  0.12499363071E+03 0.  0.
          2    1    1    2  501    0  0.39969039587E+02 -0.52746399093E+02 -0.58560193641E+03  0.58932956371E+03  0.00000000000E+00 0. -1.
          1    1    1    2  502    0  0.48995104037E+02  0.91528321341E+02  0.20272200837E+03  0.22775900971E+03  0.00000000000E+00 0. -1.
         22    1    3    3    0    0 -0.59466074033E+02  0.31073083426E+02  0.12071478575E+02  0.68172362945E+02  0.00000000000E+00 0. -1.
         22    1    3    3    0    0 -0.29498069591E+02 -0.69855005674E+02 -0.61445323894E+02  0.97598082746E+02  0.00000000000E+00 0. -1.
</event>
<event>
 7    1  0.5064652E-006  0.6007191E+02  0.7818608E-02  0.1435186E+00
          2   -1    0    0  502    0  0.00000000000E+00  0.00000000000E+00  0.24529939335E+03  0.24529939335E+03  0.00000000000E+00 0. -1.
          1   -1    0    0  501    0 -0.00000000000E+00 -0.00000000000E+00 -0.13981285586E+04  0.13981285586E+04  0.00000000000E+00 0. -1.
         25    2    1    2    0    0  0.93523855802E+02  0.17151693382E+02 -0.15196070739E+03  0.21853280136E+03  0.12499454584E+03 0.  0.
          2    1    1    2  501    0 -0.50780473679E+02 -0.30889173942E+02 -0.12097671061E+04  0.12112263408E+04  0.00000000000E+00 0. -1.
          1    1    1    2  502    0 -0.42743382124E+02  0.13737480559E+02  0.20889864820E+03  0.21366880986E+03  0.00000000000E+00 0. -1.
         22    1    3    3    0    0  0.36210281190E+02 -0.51497765896E+02 -0.89610991648E+02  0.10951408211E+03  0.00000000000E+00 0. -1.
         22    1    3    3    0    0  0.57313574612E+02  0.68649459278E+02 -0.62349715738E+02  0.10901871925E+03  0.00000000000E+00 0. -1.
</event>
<event>
 7    1  0.5064652E-006  0.5833544E+02  0.7818608E-02  0.1542098E+00
          2   -1    0    0  502    0  0.00000000000E+00  0.00000000000E+00  0.43813384563E+03  0.43813384563E+03  0.00000000000E+00 0. -1.
          1   -1    0    0  501    0 -0.00000000000E+00 -0.00000000000E+00 -0.14056955015E+04  0.14056955015E+04  0.00000000000E+00 0. -1.
         25    2    1    2    0    0  0.47140727639E+02  0.41140741962E+02 -0.17460568104E+02  0.14086680816E+03  0.12499510931E+03 0.  0.
          2    1    1    2  501    0 -0.54593461254E+02 -0.20547315328E+02 -0.13255713099E+04  0.13268541501E+04  0.00000000000E+00 0. -1.
          1    1    1    2  502    0  0.74527336158E+01 -0.20593426634E+02  0.37547022211E+03  0.37610838883E+03  0.00000000000E+00 0. -1.
         22    1    3    3    0    0  0.77654098967E+02  0.29472254926E+02  0.25510147370E+02  0.86888091909E+02  0.00000000000E+00 0.  1.
         22    1    3    3    0    0 -0.30513371328E+02  0.11668487036E+02 -0.42970715474E+02  0.53978716249E+02  0.00000000000E+00 0.  1.
</event>
<event>
 7    1  0.5064652E-006  0.9030243E+02  0.7818608E-02  0.1366485E+00
          2   -1    0    0  502    0  0.00000000000E+00  0.00000000000E+00  0.15835911964E+04  0.15835911964E+04  0.00000000000E+00 0. -1.
          1   -1    0    0  501    0 -0.00000000000E+00 -0.00000000000E+00 -0.26478676149E+03  0.26478676149E+03  0.00000000000E+00 0. -1.
         25    2    1    2    0    0 -0.88697728496E+01 -0.10549472359E+03  0.20720886702E+01  0.16382581051E+03  0.12500717205E+03 0.  0.
          2    1    1    2  501    0 -0.41399354112E+02  0.30528366199E+02 -0.17892584984E+03  0.18617289654E+03  0.00000000000E+00 0. -1.
          1    1    1    2  502    0  0.50269126961E+02  0.74966357392E+02  0.14956581960E+04  0.14983792508E+04  0.00000000000E+00 0. -1.
         22    1    3    3    0    0 -0.24043240029E+02  0.22727563945E+02 -0.88484822084E+01  0.34247849441E+02  0.00000000000E+00 0. -1.
         22    1    3    3    0    0  0.15173467179E+02 -0.12822228754E+03  0.10920570879E+02  0.12957796107E+03  0.00000000000E+00 0. -1.
</event>
<event>
 7    1  0.5064652E-006  0.7556705E+02  0.7818608E-02  0.1358332E+00
          2   -1    0    0  502    0  0.00000000000E+00  0.00000000000E+00  0.69457757450E+03  0.69457757450E+03  0.00000000000E+00 0. -1.
          1   -1    0    0  501    0 -0.00000000000E+00 -0.00000000000E+00 -0.50174228727E+02  0.50174228727E+02  0.00000000000E+00 0. -1.
         25    2    1    2    0    0  0.29499522887E+02  0.13855035449E+02  0.17097321517E+03  0.21428680535E+03  0.12499924313E+03 0.  0.
          2    1    1    2  501    0 -0.70284721512E+02 -0.65504497514E+02  0.63224116063E+02  0.11501334759E+03  0.00000000000E+00 0. -1.
          1    1    1    2  502    0  0.40785198624E+02  0.51649462065E+02  0.41020601454E+03  0.41545165028E+03  0.00000000000E+00 0. -1.
         22    1    3    3    0    0 -0.23048374503E+02  0.67226691668E+01  0.15783930296E+03  0.15965483835E+03  0.00000000000E+00 0.  1.
         22    1    3    3    0    0  0.52547897391E+02  0.71323662827E+01  0.13133912210E+02  0.54631967006E+02  0.00000000000E+00 0.  1.
</event>
<event>
 7    1  0.5064652E-006  0.6102018E+02  0.7818608E-02  0.1408083E+00
          2   -1    0    0  502    0  0.00000000000E+00  0.00000000000E+00  0.55342843431E+03  0.55342843431E+03  0.00000000000E+00 0. -1.
          1   -1    0    0  501    0 -0.00000000000E+00 -0.00000000000E+00 -0.44226463230E+03  0.44226463230E+03  0.00000000000E+00 0. -1.
         25    2    1    2    0    0  0.20133705661E+01 -0.42968395073E+02  0.27484562996E+03  0.30498426288E+03  0.12499977463E+03 0.  0.
          2    1    1    2  501    0 -0.54169637250E+02 -0.51772930561E+01 -0.42063075529E+03  0.42413604687E+03  0.00000000000E+00 0. -1.
          1    1    1    2  502    0  0.52156266684E+02  0.48145688129E+02  0.25694892734E+03  0.26657275686E+03  0.00000000000E+00 0. -1.
         22    1    3    3    0    0 -0.27927979170E+02 -0.31208676657E+02  0.17096285426E+02  0.45235345633E+02  0.00000000000E+00 0.  1.
         22    1    3    3    0    0  0.29941349736E+02 -0.11759718417E+02  0.25774934454E+03  0.25974891725E+03  0.00000000000E+00 0.  1.
</event>
<event>
 7    1  0.5064652E-006  0.9856964E+02  0.7818608E-02  0.1328174E+00
          2   -1    0    0  502    0  0.00000000000E+00  0.00000000000E+00  0.74358321394E+03  0.74358321394E+03  0.00000000000E+00 0. -1.
          1   -1    0    0  501    0 -0.00000000000E+00 -0.00000000000E+00 -0.23295180213E+04  0.23295180213E+04  0.00000000000E+00 0. -1.
         25    2    1    2    0    0 -0.16921726698E+02 -0.36127662601E+02 -0.87763169258E+02  0.15785703297E+03  0.12499966456E+03 0.  0.
          2    1    1    2  501    0  0.12896403378E+02 -0.64149519859E+02 -0.22026659409E+04  0.22036376121E+04  0.00000000000E+00 0. -1.
          1    1    1    2  502    0  0.40253233206E+01  0.10027718246E+03  0.70449430280E+03  0.71160659021E+03  0.00000000000E+00 0. -1.
         22    1    3    3    0    0 -0.53159840908E+02 -0.53380544574E+02 -0.18132052436E+02  0.77486918573E+02  0.00000000000E+00 0.  1.
         22    1    3    3    0    0  0.36238114210E+02  0.17252881973E+02 -0.69631116821E+02  0.80370114394E+02  0.00000000000E+00 0.  1.
</event>
<event>
 7    1  0.5064652E-006  0.1370755E+03  0.7818608E-02  0.1221178E+00
          2   -1    0    0  502    0  0.00000000000E+00  0.00000000000E+00  0.54807310055E+03  0.54807310055E+03  0.00000000000E+00 0. -1.
          1   -1    0    0  501    0 -0.00000000000E+00 -0.00000000000E+00 -0.65533549245E+03  0.65533549245E+03  0.00000000000E+00 0. -1.
         25    2    1    2    0    0  0.32050148387E+02  0.57124746609E+02 -0.55300248186E+02  0.15157252911E+03  0.12500266174E+03 0.  0.
          2    1    1    2  501    0 -0.11311766129E+03  0.67304895562E+02 -0.53267993325E+03  0.54870161796E+03  0.00000000000E+00 0. -1.
          1    1    1    2  502    0  0.81067512906E+02 -0.12442964217E+03  0.48071778955E+03  0.50313444593E+03  0.00000000000E+00 0. -1.
         22    1    3    3    0    0 -0.47091426449E+02  0.76294999150E+01 -0.21045065564E+02  0.52141216888E+02  0.00000000000E+00 0.  1.
         22    1    3    3    0    0  0.79141574836E+02  0.49495246694E+02 -0.34255182622E+02  0.99431312217E+02  0.00000000000E+00 0.  1.
</event>
<event>
 7    1  0.5064652E-006  0.1166364E+03  0.7818608E-02  0.1278521E+00
          2   -1    0    0  502    0  0.00000000000E+00  0.00000000000E+00  0.83740895611E+03  0.83740895611E+03  0.00000000000E+00 0. -1.
          1   -1    0    0  501    0 -0.00000000000E+00 -0.00000000000E+00 -0.87714847664E+03  0.87714847664E+03  0.00000000000E+00 0. -1.
         25    2    1    2    0    0 -0.79454118650E+02  0.12187158489E+03 -0.10441228684E+03  0.21838672837E+03  0.12500078925E+03 0.  0.
          2    1    1    2  501    0 -0.30079762104E+02 -0.81845552797E+02 -0.70870536136E+03  0.71404956118E+03  0.00000000000E+00 0. -1.
          1    1    1    2  502    0  0.10953388075E+03 -0.40026032092E+02  0.77337812767E+03  0.78212114320E+03  0.00000000000E+00 0. -1.
         22    1    3    3    0    0  0.20139987852E+02  0.82135051545E+02 -0.47277795482E+02  0.96886406418E+02  0.00000000000E+00 0.  1.
         22    1    3    3    0    0 -0.99594106502E+02  0.39736533344E+02 -0.57134491363E+02  0.12150032196E+03  0.00000000000E+00 0.  1.
</event>
<event>
 7    1  0.5064652E-006  0.1180149E+03  0.7818608E-02  0.1404076E+00
          2   -1    0    0  502    0  0.00000000000E+00  0.00000000000E+00  0.83049164324E+03  0.83049164324E+03  0.00000000000E+00 0. -1.
          1   -1    0    0  501    0 -0.00000000000E+00 -0.00000000000E+00 -0.69391351751E+03  0.69391351751E+03  0.00000000000E+00 0. -1.
         25    2    1    2    0    0  0.61689045897E+01  0.11823597448E+03  0.62380372309E+03  0.64712671350E+03  0.12499638931E+03 0.  0.
          2    1    1    2  501    0 -0.34695560366E+02 -0.11282609727E+03 -0.67602822804E+03  0.68625627520E+03  0.00000000000E+00 0. -1.
          1    1    1    2  502    0  0.28526655776E+02 -0.54098772038E+01  0.18880263069E+03  0.19102217205E+03  0.00000000000E+00 0. -1.
         22    1    3    3    0    0 -0.49589437786E+02  0.46481973059E+02  0.39734176130E+03  0.40311308765E+03  0.00000000000E+00 0.  1.
         22    1    3    3    0    0  0.55758342376E+02  0.71754001419E+02  0.22646196178E+03  0.24401362585E+03  0.00000000000E+00 0.  1.
</event>
<event>
 7    1  0.5064652E-006  0.1371837E+03  0.7818608E-02  0.1326209E+00
          2   -1    0    0  502    0  0.00000000000E+00  0.00000000000E+00  0.30267310540E+03  0.30267310540E+03  0.00000000000E+00 0. -1.
          1   -1    0    0  501    0 -0.00000000000E+00 -0.00000000000E+00 -0.63733944257E+03  0.63733944257E+03  0.00000000000E+00 0. -1.
         25    2    1    2    0    0  0.12372180013E+03 -0.12305059017E+03 -0.12350823113E+03  0.24764490447E+03  0.12500073594E+03 0.  0.
          2    1    1    2  501    0 -0.45532450127E+02  0.14673509088E+02 -0.43178289591E+03  0.43442489004E+03  0.00000000000E+00 0. -1.
          1    1    1    2  502    0 -0.78189350004E+02  0.10837708108E+03  0.22062478987E+03  0.25794275346E+03  0.00000000000E+00 0. -1.
         22    1    3    3    0    0  0.68518240486E+02 -0.45850395265E+02 -0.12842526752E+03  0.15261080356E+03  0.00000000000E+00 0. -1.
         22    1    3    3    0    0  0.55203559644E+02 -0.77200194902E+02  0.49170363848E+01  0.95034100917E+02  0.00000000000E+00 0. -1.
</event>
<event>
 7    1  0.5064652E-006  0.1149264E+03  0.7818608E-02  0.1305360E+00
          2   -1    0    0  502    0  0.00000000000E+00  0.00000000000E+00  0.76609882538E+03  0.76609882538E+03  0.00000000000E+00 0. -1.
          1   -1    0    0  501    0 -0.00000000000E+00 -0.00000000000E+00 -0.57567117006E+03  0.57567117006E+03  0.00000000000E+00 0. -1.
         25    2    1    2    0    0 -0.95421208903E+02  0.36577859898E+01  0.11494003015E+03  0.19482027847E+03  0.12500057547E+03 0.  0.
          2    1    1    2  501    0 -0.55882978030E+01 -0.68652137071E+02 -0.52756965277E+03  0.53204706890E+03  0.00000000000E+00 0. -1.
          1    1    1    2  502    0  0.10100950671E+03  0.64994351081E+02  0.60305727795E+03  0.61490264807E+03  0.00000000000E+00 0. -1.
         22    1    3    3    0    0 -0.48514680814E+02  0.62176908909E+02  0.38601696698E+02  0.87805086663E+02  0.00000000000E+00 0. -1.
         22    1    3    3    0    0 -0.46906528089E+02 -0.58519122919E+02  0.76338333447E+02  0.10701519181E+03  0.00000000000E+00 0. -1.
</event>
<event>
 7    1  0.5064652E-006  0.2569981E+02  0.7818608E-02  0.1671429E+00
          2   -1    0    0  502    0  0.00000000000E+00  0.00000000000E+00  0.21518365633E+04  0.21518365633E+04  0.00000000000E+00 0. -1.
          1   -1    0    0  501    0 -0.00000000000E+00 -0.00000000000E+00 -0.38433608567E+03  0.38433608567E+03  0.00000000000E+00 0. -1.
         25    2    1    2    0    0  0.43926789681E+02  0.19511755424E+02  0.13334838818E+04  0.13401924650E+04  0.12500523584E+03 0.  0.
          2    1    1    2  501    0 -0.24751023996E+02 -0.68922599269E+01 -0.38038671111E+03  0.38125341496E+03  0.00000000000E+00 0. -1.
          1    1    1    2  502    0 -0.19175765685E+02 -0.12619495497E+02  0.81440330693E+03  0.81472676892E+03  0.00000000000E+00 0. -1.
         22    1    3    3    0    0  0.35699393798E+02  0.43016655174E+02  0.12797281779E+04  0.12809485113E+04  0.00000000000E+00 0.  1.
         22    1    3    3    0    0  0.82273958832E+01 -0.23504899750E+02  0.53755703883E+02  0.59243953744E+02  0.00000000000E+00 0.  1.
</event>
<event>
 7    1  0.5064652E-006  0.1180320E+03  0.7818608E-02  0.1270349E+00
          2   -1    0    0  502    0  0.00000000000E+00  0.00000000000E+00  0.83545857344E+03  0.83545857344E+03  0.00000000000E+00 0. -1.
          1   -1    0    0  501    0 -0.00000000000E+00 -0.00000000000E+00 -0.49527709723E+03  0.49527709723E+03  0.00000000000E+00 0. -1.
         25    2    1    2    0    0 -0.13016158912E+03  0.15071393255E+02  0.27602543180E+03  0.33012738386E+03  0.12499945758E+03 0.  0.
          2    1    1    2  501    0  0.51166245528E+02  0.77898530955E+02 -0.45646584823E+03  0.46588328625E+03  0.00000000000E+00 0. -1.
          1    1    1    2  502    0  0.78995343593E+02 -0.92969924210E+02  0.52062189265E+03  0.53472500056E+03  0.00000000000E+00 0. -1.
         22    1    3    3    0    0 -0.20446394630E+02 -0.83828376351E+01  0.18315270599E+03  0.18448100372E+03  0.00000000000E+00 0. -1.
         22    1    3    3    0    0 -0.10971519449E+03  0.23454230890E+02  0.92872725809E+02  0.14564638014E+03  0.00000000000E+00 0. -1.
</event>
<event>
 7    1  0.5064652E-006  0.9682820E+02  0.7818608E-02  0.1361614E+00
          2   -1    0    0  502    0  0.00000000000E+00  0.00000000000E+00  0.28503725743E+03  0.28503725743E+03  0.00000000000E+00 0. -1.
          1   -1    0    0  501    0 -0.00000000000E+00 -0.00000000000E+00 -0.50676061838E+03  0.50676061838E+03  0.00000000000E+00 0. -1.
         25    2    1    2    0    0  0.13628376145E+03  0.41197642954E+02 -0.35772773428E+03  0.40480365065E+03  0.12500541704E+03 0.  0.
          2    1    1    2  501    0 -0.41405452584E+02 -0.27962903375E+02 -0.11118280695E+03  0.12189319928E+03  0.00000000000E+00 0. -1.
          1    1    1    2  502    0 -0.94878308863E+02 -0.13234739579E+02  0.24718718028E+03  0.26510102587E+03  0.00000000000E+00 0. -1.
         22    1    3    3    0    0  0.44731159575E+02  0.62913694726E+02 -0.78278806504E+02  0.10993898839E+03  0.00000000000E+00 0.  1.
         22    1    3    3    0    0  0.91552601871E+02 -0.21716051772E+02 -0.27944892778E+03  0.29486466226E+03  0.00000000000E+00 0.  1.
</event>
<event>
 7    1  0.5064652E-006  0.6124904E+02  0.7818608E-02  0.1427362E+00
          2   -1    0    0  502    0  0.00000000000E+00  0.00000000000E+00  0.25803351917E+04  0.25803351917E+04  0.00000000000E+00 0. -1.
          1   -1    0    0  501    0 -0.00000000000E+00 -0.00000000000E+00 -0.14211179027E+03  0.14211179027E+03  0.00000000000E+00 0. -1.
         25    2    1    2    0    0 -0.11407277802E+02 -0.33754459342E+02  0.31004745395E+03  0.33618994638E+03  0.12499906731E+03 0.  0.
          2    1    1    2  501    0 -0.30697127894E+02  0.54000955100E+02 -0.12130871244E+03  0.13628727207E+03  0.00000000000E+00 0. -1.
          1    1    1    2  502    0  0.42104405696E+02 -0.20246495758E+02  0.22494846600E+04  0.22499697636E+04  0.00000000000E+00 0. -1.
         22    1    3    3    0    0 -0.42776247262E+02 -0.36667261023E+02  0.53433629760E+02  0.77649521248E+02  0.00000000000E+00 0.  1.
         22    1    3    3    0    0  0.31368969460E+02  0.29128016809E+01  0.25661382419E+03  0.25854042513E+03  0.00000000000E+00 0.  1.
</event>
<event>
 7    1  0.5064652E-006  0.4506375E+02  0.7818608E-02  0.1486765E+00
          2   -1    0    0  502    0  0.00000000000E+00  0.00000000000E+00  0.27277393355E+03  0.27277393355E+03  0.00000000000E+00 0. -1.
          1   -1    0    0  501    0 -0.00000000000E+00 -0.00000000000E+00 -0.81745894513E+03  0.81745894513E+03  0.00000000000E+00 0. -1.
         25    2    1    2    0    0  0.20966545366E+02 -0.79558793520E+02  0.29952594940E+02  0.15261393186E+03  0.12499862640E+03 0.  0.
          2    1    1    2  501    0 -0.39178572653E+00  0.41162036434E+02 -0.75294400826E+03  0.75406839631E+03  0.00000000000E+00 0. -1.
          1    1    1    2  502    0 -0.20574759639E+02  0.38396757085E+02  0.17830640175E+03  0.18355055051E+03  0.00000000000E+00 0. -1.
         22    1    3    3    0    0 -0.14646725223E+01 -0.10941715921E+03  0.90102045585E+01  0.10979728495E+03  0.00000000000E+00 0. -1.
         22    1    3    3    0    0  0.22431217888E+02  0.29858365691E+02  0.20942390382E+02  0.42816646910E+02  0.00000000000E+00 0. -1.
</event>
<event>
 7    1  0.5064652E-006  0.8071105E+02  0.7818608E-02  0.1330592E+00
          2   -1    0    0  502    0  0.00000000000E+00  0.00000000000E+00  0.94707446159E+03  0.94707446159E+03  0.00000000000E+00 0. -1.
          1   -1    0    0  501    0 -0.00000000000E+00 -0.00000000000E+00 -0.19306260872E+03  0.19306260872E+03  0.00000000000E+00 0. -1.
         25    2    1    2    0    0 -0.39762057726E+01 -0.52339519982E+02 -0.25437191301E+02  0.13796382069E+03  0.12502691531E+03 0.  0.
          2    1    1    2  501    0  0.76868093995E+02  0.14521391874E+02 -0.95460066878E+02  0.12341879543E+03  0.00000000000E+00 0. -1.
          1    1    1    2  502    0 -0.72891888223E+02  0.37818128108E+02  0.87490911104E+03  0.87875445420E+03  0.00000000000E+00 0. -1.
         22    1    3    3    0    0 -0.11996208270E+02 -0.28066040647E+01 -0.69865610021E+02  0.70943565620E+02  0.00000000000E+00 0.  1.
         22    1    3    3    0    0  0.80200024977E+01 -0.49532915918E+02  0.44428418720E+02  0.67020255068E+02  0.00000000000E+00 0.  1.
</event>
<event>
 7    1  0.5064652E-006  0.8877344E+02  0.7818608E-02  0.1404063E+00
          2   -1    0    0  502    0  0.00000000000E+00  0.00000000000E+00  0.14895106814E+03  0.14895106814E+03  0.00000000000E+00 0. -1.
          1   -1    0    0  501    0 -0.00000000000E+00 -0.00000000000E+00 -0.30193016226E+03  0.30193016226E+03  0.00000000000E+00 0. -1.
         25    2    1    2    0    0 -0.71007109625E+01 -0.56913442308E+02  0.46485441006E+02  0.14516853296E+03  0.12499378674E+03 0.  0.
          2    1    1    2  501    0 -0.10829241822E+02  0.91099754089E+02 -0.23560266803E+03  0.25283404608E+03  0.00000000000E+00 0. -1.
          1    1    1    2  502    0  0.17929952785E+02 -0.34186311781E+02  0.36138132901E+02  0.52878651360E+02  0.00000000000E+00 0. -1.
         22    1    3    3    0    0  0.58204219981E+02 -0.36759992764E+02  0.28427343217E+02  0.74479138918E+02  0.00000000000E+00 0.  1.
         22    1    3    3    0    0 -0.65304930944E+02 -0.20153449544E+02  0.18058097788E+02  0.70689394041E+02  0.00000000000E+00 0.  1.
</event>
<event>
 7    1  0.5064652E-006  0.1423730E+03  0.7818608E-02  0.1228762E+00
          2   -1    0    0  502    0  0.00000000000E+00  0.00000000000E+00  0.13592653299E+04  0.13592653299E+04  0.00000000000E+00 0. -1.
          1   -1    0    0  501    0 -0.00000000000E+00 -0.00000000000E+00 -0.50239211700E+03  0.50239211700E+03  0.00000000000E+00 0. -1.
         25    2    1    2    0    0  0.23020631432E+02 -0.45786424493E+02  0.30857921965E+02  0.13860730241E+03  0.12503370263E+03 0.  0.
          2    1    1    2  501    0  0.11649374259E+03 -0.11976387063E+02 -0.43629611639E+03  0.45173944602E+03  0.00000000000E+00 0. -1.
          1    1    1    2  502    0 -0.13951437403E+03  0.57762811557E+02  0.12623114074E+04  0.12713106985E+04  0.00000000000E+00 0. -1.
         22    1    3    3    0    0  0.70208028013E+02 -0.34866018117E+02 -0.46879941618E+01  0.78528871799E+02  0.00000000000E+00 0.  1.
         22    1    3    3    0    0 -0.47187396581E+02 -0.10920406376E+02  0.35545916127E+02  0.60078430612E+02  0.00000000000E+00 0.  1.
</event>
<event>
 7    1  0.5064652E-006  0.1490622E+03  0.7818608E-02  0.1212370E+00
          2   -1    0    0  502    0  0.00000000000E+00  0.00000000000E+00  0.21939669458E+03  0.21939669458E+03  0.00000000000E+00 0. -1.
          1   -1    0    0  501    0 -0.00000000000E+00 -0.00000000000E+00 -0.12218060145E+04  0.12218060145E+04  0.00000000000E+00 0. -1.
         25    2    1    2    0    0 -0.13600296746E+03 -0.10663155924E+03 -0.14404305108E+03  0.25737604597E+03  0.12500772733E+03 0.  0.
          2    1    1    2  501    0 -0.15394543347E+02  0.13194073059E+03 -0.97938964140E+03  0.98835692846E+03  0.00000000000E+00 0. -1.
          1    1    1    2  502    0  0.15139751081E+03 -0.25309171344E+02  0.12102337260E+03  0.19546973461E+03  0.00000000000E+00 0. -1.
         22    1    3    3    0    0 -0.24547412262E+02 -0.81312745465E+02 -0.17248511085E+02  0.86670924527E+02  0.00000000000E+00 0. -1.
         22    1    3    3    0    0 -0.11145555520E+03 -0.25318813780E+02 -0.12679453999E+03  0.17070512144E+03  0.00000000000E+00 0. -1.
</event>
<event>
 7    1  0.5064652E-006  0.3826255E+02  0.7818608E-02  0.1566840E+00
          2   -1    0    0  502    0  0.00000000000E+00  0.00000000000E+00  0.35283944463E+02  0.35283944463E+02  0.00000000000E+00 0. -1.
          1   -1    0    0  501    0 -0.00000000000E+00 -0.00000000000E+00 -0.39872245208E+03  0.39872245208E+03  0.00000000000E+00 0. -1.
         25    2    1    2    0    0  0.27981273492E+02 -0.49633834231E+02 -0.21562454026E+03  0.25566673064E+03  0.12500026251E+03 0.  0.
          2    1    1    2  501    0  0.21099083351E+01  0.28432031381E+02 -0.13705549708E+03  0.13998943317E+03  0.00000000000E+00 0. -1.
          1    1    1    2  502    0 -0.30091181827E+02  0.21201802850E+02 -0.10758470288E+02  0.38350232734E+02  0.00000000000E+00 0. -1.
         22    1    3    3    0    0  0.10748280413E+02  0.19904459462E+02 -0.16828180450E+03  0.16979540266E+03  0.00000000000E+00 0. -1.
         22    1    3    3    0    0  0.17232993078E+02 -0.69538293693E+02 -0.47342735759E+02  0.85871327981E+02  0.00000000000E+00 0. -1.
</event>
<event>
 7    1  0.5064652E-006  0.6560727E+02  0.7818608E-02  0.1498868E+00
          2   -1    0    0  502    0  0.00000000000E+00  0.00000000000E+00  0.21447568443E+04  0.21447568443E+04  0.00000000000E+00 0. -1.
          1   -1    0    0  501    0 -0.00000000000E+00 -0.00000000000E+00 -0.21664636096E+03  0.21664636096E+03  0.00000000000E+00 0. -1.
         25    2    1    2    0    0  0.31672607819E+02  0.30048460329E+02  0.27930521802E+03  0.30909948101E+03  0.12500008118E+03 0.  0.
          2    1    1    2  501    0  0.25752446730E+02  0.35534592863E+01 -0.20031099501E+03  0.20199086689E+03  0.00000000000E+00 0. -1.
          1    1    1    2  502    0 -0.57425054549E+02 -0.33601919615E+02  0.18491162603E+04  0.18503128574E+04  0.00000000000E+00 0. -1.
         22    1    3    3    0    0  0.34451007909E+02  0.21610856101E+02  0.13071020793E+02  0.42717123404E+02  0.00000000000E+00 0. -1.
         22    1    3    3    0    0 -0.27784000898E+01  0.84376042278E+01  0.26623419722E+03  0.26638235761E+03  0.00000000000E+00 0. -1.
</event>
<event>
 7    1  0.5064652E-006  0.9408997E+02  0.7818608E-02  0.1368783E+00
          2   -1    0    0  502    0  0.00000000000E+00  0.00000000000E+00  0.14224941272E+04  0.14224941272E+04  0.00000000000E+00 0. -1.
          1   -1    0    0  501    0 -0.00000000000E+00 -0.00000000000E+00 -0.19070253732E+03  0.19070253732E+03  0.00000000000E+00 0. -1.
         25    2    1    2    0    0  0.12056879122E+02 -0.81955064582E+02  0.13971956117E+02  0.15060528123E+03  0.12499893692E+03 0.  0.
          2    1    1    2  501    0  0.47675330061E+02  0.85379783411E+01 -0.11585032368E+03  0.12556723963E+03  0.00000000000E+00 0. -1.
          1    1    1    2  502    0 -0.59732209183E+02  0.73417086241E+02  0.13336699575E+04  0.13370241437E+04  0.00000000000E+00 0. -1.
         22    1    3    3    0    0  0.32375618281E+02 -0.24753131578E+02 -0.48600247780E+02  0.63426195426E+02  0.00000000000E+00 0. -1.
         22    1    3    3    0    0 -0.20318739159E+02 -0.57201933004E+02  0.62572203897E+02  0.87179085800E+02  0.00000000000E+00 0. -1.
</event>
<event>
 7    1  0.5064652E-006  0.1006221E+03  0.7818608E-02  0.1327218E+00
          2   -1    0    0  502    0  0.00000000000E+00  0.00000000000E+00  0.12103934877E+04  0.12103934877E+04  0.00000000000E+00 0. -1.
          1   -1    0    0  501    0 -0.00000000000E+00 -0.00000000000E+00 -0.29991165536E+03  0.29991165536E+03  0.00000000000E+00 0. -1.
         25    2    1    2    0    0 -0.79083995740E+02  0.86230220750E+01  0.63478493735E+03  0.65184576365E+03  0.12498939157E+03 0.  0.
          2    1    1    2  501    0 -0.21035610591E+02  0.61123193347E+02 -0.28110654470E+03  0.28844311597E+03  0.00000000000E+00 0. -1.
          1    1    1    2  502    0  0.10011960633E+03 -0.69746215422E+02  0.55680343970E+03  0.57001626345E+03  0.00000000000E+00 0. -1.
         22    1    3    3    0    0 -0.34577103704E+02 -0.57207164022E+02  0.23953835297E+03  0.24869028582E+03  0.00000000000E+00 0. -1.
         22    1    3    3    0    0 -0.44506892036E+02  0.65830186097E+02  0.39524658438E+03  0.40315547783E+03  0.00000000000E+00 0. -1.
</event>
<event>
 7    1  0.5064652E-006  0.6520082E+02  0.7818608E-02  0.1492534E+00
          2   -1    0    0  502    0  0.00000000000E+00  0.00000000000E+00  0.12272249610E+04  0.12272249610E+04  0.00000000000E+00 0. -1.
          1   -1    0    0  501    0 -0.00000000000E+00 -0.00000000000E+00 -0.43991556745E+03  0.43991556745E+03  0.00000000000E+00 0. -1.
         25    2    1    2    0    0 -0.42315952329E+02 -0.23987143049E+02  0.60459565451E+03  0.61929429789E+03  0.12499399624E+03 0.  0.
          2    1    1    2  501    0 -0.26065026899E+02  0.82157247514E+01 -0.43013017036E+03  0.43099750256E+03  0.00000000000E+00 0. -1.
          1    1    1    2  502    0  0.68380979228E+02  0.15771418298E+02  0.61284390935E+03  0.61684872796E+03  0.00000000000E+00 0. -1.
         22    1    3    3    0    0  0.36910539825E+01 -0.45041977421E+02  0.51016741185E+03  0.51216519964E+03  0.00000000000E+00 0.  1.
         22    1    3    3    0    0 -0.46007006312E+02  0.21054834371E+02  0.94428242654E+02  0.10712909825E+03  0.00000000000E+00 0.  1.
</event>
<event>
 7    1  0.5064652E-006  0.3782300E+02  0.7818608E-02  0.1626549E+00
          2   -1    0    0  502    0  0.00000000000E+00  0.00000000000E+00  0.10797976062E+04  0.10797976062E+04  0.00000000000E+00 0. -1.
          1   -1    0    0  501    0 -0.00000000000E+00 -0.00000000000E+00 -0.12618780571E+04  0.12618780571E+04  0.00000000000E+00 0. -1.
         25    2    1    2    0    0  0.21620382638E+02 -0.93895330312E+01 -0.74825171684E+02  0.14757644513E+03  0.12499758624E+03 0.  0.
          2    1    1    2  501    0  0.23058234154E+01 -0.19971423971E+02 -0.11502456734E+04  0.11504213505E+04  0.00000000000E+00 0. -1.
          1    1    1    2  502    0 -0.23926206053E+02  0.29360957002E+02  0.10429903942E+04  0.10436778677E+04  0.00000000000E+00 0. -1.
         22    1    3    3    0    0  0.28902621555E+02  0.37881857146E+02  0.11382657015E+02  0.48989402061E+02  0.00000000000E+00 0.  1.
         22    1    3    3    0    0 -0.72822389167E+01 -0.47271390177E+02 -0.86207828699E+02  0.98587043073E+02  0.00000000000E+00 0.  1.
</event>
<event>
 7    1  0.5064652E-006  0.1080961E+03  0.7818608E-02  0.1436292E+00
          2   -1    0    0  502    0  0.00000000000E+00  0.00000000000E+00  0.36572223264E+03  0.36572223264E+03  0.00000000000E+00 0. -1.
          1   -1    0    0  501    0 -0.00000000000E+00 -0.00000000000E+00 -0.16814179462E+04  0.16814179462E+04  0.00000000000E+00 0. -1.
         25    2    1    2    0    0  0.72918939055E+02 -0.41457469040E+02 -0.37110222110E+03  0.40047238092E+03  0.12500150384E+03 0.  0.
          2    1    1    2  501    0  0.21475399656E+02 -0.12290411455E+02 -0.12871058431E+04  0.12873436598E+04  0.00000000000E+00 0. -1.
          1    1    1    2  502    0 -0.94394338711E+02  0.53747880495E+02  0.34251235070E+03  0.35932413810E+03  0.00000000000E+00 0. -1.
         22    1    3    3    0    0  0.44132649601E+02 -0.37382133519E+02 -0.36650181659E+03  0.37103732458E+03  0.00000000000E+00 0. -1.
         22    1    3    3    0    0  0.28786289454E+02 -0.40753355208E+01 -0.46004045098E+01  0.29435056341E+02  0.00000000000E+00 0. -1.
</event>
<event>
 7    1  0.5064652E-006  0.1095064E+03  0.7818608E-02  0.1349879E+00
          2   -1    0    0  502    0  0.00000000000E+00  0.00000000000E+00  0.20030149647E+04  0.20030149647E+04  0.00000000000E+00 0. -1.
          1   -1    0    0  501    0 -0.00000000000E+00 -0.00000000000E+00 -0.46882048480E+03  0.46882048480E+03  0.00000000000E+00 0. -1.
         25    2    1    2    0    0  0.70720398787E+02 -0.12454663171E+03  0.72526314521E+03  0.74976354488E+03  0.12500202064E+03 0.  0.
          2    1    1    2  501    0  0.78633619863E+00  0.48782153978E+02 -0.45311443549E+03  0.45573348409E+03  0.00000000000E+00 0. -1.
          1    1    1    2  502    0 -0.71506734985E+02  0.75764477734E+02  0.12620457702E+04  0.12663384205E+04  0.00000000000E+00 0. -1.
         22    1    3    3    0    0  0.72887903831E+02 -0.13860353320E+03  0.71568128112E+03  0.73261400621E+03  0.00000000000E+00 0.  1.
         22    1    3    3    0    0 -0.21675050443E+01  0.14056901486E+02  0.95818640845E+01  0.17149538677E+02  0.00000000000E+00 0.  1.
</event>
<event>
 7    1  0.5064652E-006  0.3571110E+02  0.7818608E-02  0.1544572E+00
          2   -1    0    0  502    0  0.00000000000E+00  0.00000000000E+00  0.81006041835E+03  0.81006041835E+03  0.00000000000E+00 0. -1.
          1   -1    0    0  501    0 -0.00000000000E+00 -0.00000000000E+00 -0.11778947186E+04  0.11778947186E+04  0.00000000000E+00 0. -1.
         25    2    1    2    0    0  0.22234902014E+02  0.56275168229E+02 -0.76942989878E+02  0.15876531805E+03  0.12499966840E+03 0.  0.
          2    1    1    2  501    0 -0.28293766875E+02 -0.21594070480E+02 -0.10593386461E+04  0.10599364170E+04  0.00000000000E+00 0. -1.
          1    1    1    2  502    0  0.60588648606E+01 -0.34681097749E+02  0.76844733574E+03  0.76925340181E+03  0.00000000000E+00 0. -1.
         22    1    3    3    0    0 -0.31001715915E+02 -0.23166937002E+01  0.17385347424E+02  0.35619148845E+02  0.00000000000E+00 0. -1.
         22    1    3    3    0    0  0.53236617929E+02  0.58591861929E+02 -0.94328337303E+02  0.12314616921E+03  0.00000000000E+00 0. -1.
</event>
<event>
 7    1  0.5064652E-006  0.5934295E+02  0.7818608E-02  0.1406182E+00
          2   -1    0    0  502    0  0.00000000000E+00  0.00000000000E+00  0.10063304823E+04  0.10063304823E+04  0.00000000000E+00 0. -1.
          1   -1    0    0  501    0 -0.00000000000E+00 -0.00000000000E+00 -0.42198813037E+02  0.42198813037E+02  0.00000000000E+00 0. -1.
         25    2    1    2    0    0  0.37297019352E+02  0.76276197156E+02  0.23344665682E+03  0.27808647943E+03  0.12500249021E+03 0.  0.
          2    1    1    2  501    0 -0.53642939391E+02 -0.21885196742E+02  0.26049969302E+02  0.63522654885E+02  0.00000000000E+00 0. -1.
          1    1    1    2  502    0  0.16345920039E+02 -0.54391000413E+02  0.70463504319E+03  0.70692016106E+03  0.00000000000E+00 0. -1.
         22    1    3    3    0    0  0.39090862088E+02  0.91795052977E+02  0.91793894461E+02  0.13557487345E+03  0.00000000000E+00 0.  1.
         22    1    3    3    0    0 -0.17938427355E+01 -0.15518855821E+02  0.14165276236E+03  0.14251160599E+03  0.00000000000E+00 0.  1.
</event>
<event>
 7    1  0.5064652E-006  0.1882969E+03  0.7818608E-02  0.1275413E+00
          2   -1    0    0  502    0  0.00000000000E+00  0.00000000000E+00  0.30939340029E+04  0.30939340029E+04  0.00000000000E+00 0. -1.
          1   -1    0    0  501    0 -0.00000000000E+00 -0.00000000000E+00 -0.10226185899E+04  0.10226185899E+04  0.00000000000E+00 0. -1.
         25    2    1    2    0    0  0.10027036429E+03  0.21027399764E+03 -0.39027353008E+02  0.26724073058E+03  0.12500069505E+03 0.  0.
          2    1    1    2  501    0 -0.56666973379E+02 -0.17570773653E+03 -0.85942083790E+03  0.87902703665E+03  0.00000000000E+00 0. -1.
          1    1    1    2  502    0 -0.43603390909E+02 -0.34566261108E+02  0.29697636039E+04  0.29702848256E+04  0.00000000000E+00 0. -1.
         22    1    3    3    0    0  0.47143624222E+01  0.68872818613E+01 -0.41682041871E+02  0.42509439882E+02  0.00000000000E+00 0.  1.
         22    1    3    3    0    0  0.95556001866E+02  0.20338671578E+03  0.26546888635E+01  0.22473129070E+03  0.00000000000E+00 0.  1.
</event>
<event>
 7    1  0.5064652E-006  0.6668631E+02  0.7818608E-02  0.1440521E+00
          2   -1    0    0  502    0  0.00000000000E+00  0.00000000000E+00  0.78255890430E+02  0.78255890430E+02  0.00000000000E+00 0. -1.
          1   -1    0    0  501    0 -0.00000000000E+00 -0.00000000000E+00 -0.92514918319E+03  0.92514918319E+03  0.00000000000E+00 0. -1.
         25    2    1    2    0    0 -0.46657226753E+02  0.24733715054E+02 -0.21947836229E+03  0.25804102227E+03  0.12500305673E+03 0.  0.
          2    1    1    2  501    0  0.68295290853E+02  0.75423893856E+01 -0.67805822990E+03  0.68153070182E+03  0.00000000000E+00 0. -1.
          1    1    1    2  502    0 -0.21638064100E+02 -0.32276104439E+02  0.50643299427E+02  0.63833349533E+02  0.00000000000E+00 0. -1.
         22    1    3    3    0    0 -0.12903010776E+02  0.68014835231E+01  0.14732719683E+02  0.20731639936E+02  0.00000000000E+00 0. -1.
         22    1    3    3    0    0 -0.33754215977E+02  0.17932231531E+02 -0.23421108197E+03  0.23730938233E+03  0.00000000000E+00 0. -1.
</event>
<event>
 7    1  0.5064652E-006  0.2768685E+02  0.7818608E-02  0.1652795E+00
          2   -1    0    0  502    0  0.00000000000E+00  0.00000000000E+00  0.87620329387E+03  0.87620329387E+03  0.00000000000E+00 0. -1.
          1   -1    0    0  501    0 -0.00000000000E+00 -0.00000000000E+00 -0.10974820841E+04  0.10974820841E+04  0.00000000000E+00 0. -1.
         25    2    1    2    0    0 -0.24433182874E+02 -0.41042971360E+02  0.41602503635E+03  0.43701648125E+03  0.12500027238E+03 0.  0.
          2    1    1    2  501    0  0.18503296690E+02  0.14705425518E+02 -0.10864525271E+04  0.10867095818E+04  0.00000000000E+00 0. -1.
          1    1    1    2  502    0  0.59298861839E+01  0.26337545841E+02  0.44914870054E+03  0.44995931491E+03  0.00000000000E+00 0. -1.
         22    1    3    3    0    0 -0.45621280567E+02 -0.39849907532E+02  0.41069170139E+03  0.41513490574E+03  0.00000000000E+00 0.  1.
         22    1    3    3    0    0  0.21188097693E+02 -0.11930638278E+01  0.53333349542E+01  0.21881575512E+02  0.00000000000E+00 0.  1.
</event>
<event>
 7    1  0.5064652E-006  0.1569350E+03  0.7818608E-02  0.1309220E+00
          2   -1    0    0  502    0  0.00000000000E+00  0.00000000000E+00  0.95168347534E+03  0.95168347534E+03  0.00000000000E+00 0. -1.
          1   -1    0    0  501    0 -0.00000000000E+00 -0.00000000000E+00 -0.10727375748E+04  0.10727375748E+04  0.00000000000E+00 0. -1.
         25    2    1    2    0    0  0.12257014732E+03  0.16715808433E+02  0.24799783698E+03  0.30402194711E+03  0.12499423152E+03 0.  0.
          2    1    1    2  501    0  0.47184651651E+02 -0.12046290016E+02 -0.10334728254E+04  0.10346195365E+04  0.00000000000E+00 0. -1.
          1    1    1    2  502    0 -0.16975479898E+03 -0.46695184167E+01  0.66442088897E+03  0.68577956653E+03  0.00000000000E+00 0. -1.
         22    1    3    3    0    0  0.13579067751E+03 -0.12274874274E+02  0.15878787547E+03  0.20929254653E+03  0.00000000000E+00 0. -1.
         22    1    3    3    0    0 -0.13220530185E+02  0.28990682707E+02  0.89209961512E+02  0.94729400585E+02  0.00000000000E+00 0. -1.
</event>
<event>
 7    1  0.5064652E-006  0.1659962E+03  0.7818608E-02  0.1355650E+00
          2   -1    0    0  502    0  0.00000000000E+00  0.00000000000E+00  0.43489474153E+03  0.43489474153E+03  0.00000000000E+00 0. -1.
          1   -1    0    0  501    0 -0.00000000000E+00 -0.00000000000E+00 -0.17695347628E+04  0.17695347628E+04  0.00000000000E+00 0. -1.
         25    2    1    2    0    0  0.10816690759E+02 -0.15537803608E+03 -0.58246286765E+03  0.61574935287E+03  0.12499975388E+03 0.  0.
          2    1    1    2  501    0 -0.28976864725E+02 -0.99737083007E+01 -0.11536774450E+04  0.11540843906E+04  0.00000000000E+00 0. -1.
          1    1    1    2  502    0  0.18160173966E+02  0.16535174439E+03  0.40150029143E+03  0.43459576080E+03  0.00000000000E+00 0. -1.
         22    1    3    3    0    0  0.33180732451E+02 -0.16005905207E+03 -0.40379290133E+03  0.43562434313E+03  0.00000000000E+00 0.  1.
         22    1    3    3    0    0 -0.22364041692E+02  0.46810159875E+01 -0.17866996631E+03  0.18012500974E+03  0.00000000000E+00 0.  1.
</event>
<event>
 7    1  0.5064652E-006  0.7355320E+02  0.7818608E-02  0.1502810E+00
          2   -1    0    0  502    0  0.00000000000E+00  0.00000000000E+00  0.20592418216E+03  0.20592418216E+03  0.00000000000E+00 0. -1.
          1   -1    0    0  501    0 -0.00000000000E+00 -0.00000000000E+00 -0.39946383776E+03  0.39946383776E+03  0.00000000000E+00 0. -1.
         25    2    1    2    0    0  0.65504262123E+02  0.76219617082E+00 -0.60841768075E+02  0.15368264032E+03  0.12500097557E+03 0.  0.
          2    1    1    2  501    0  0.53809214708E+01  0.21918336341E+02 -0.28304613419E+03  0.28394450490E+03  0.00000000000E+00 0. -1.
          1    1    1    2  502    0 -0.70885183594E+02 -0.22680532512E+02  0.15034824666E+03  0.16776087470E+03  0.00000000000E+00 0. -1.
         22    1    3    3    0    0  0.73140977565E+02 -0.30466206884E+02  0.60533706180E+01  0.79463423391E+02  0.00000000000E+00 0.  1.
         22    1    3    3    0    0 -0.76367154424E+01  0.31228403055E+02 -0.66895138693E+02  0.74219216924E+02  0.00000000000E+00 0.  1.
</event>
<event>
 7    1  0.5064652E-006  0.1173250E+03  0.7818608E-02  0.1274012E+00
          2   -1    0    0  502    0  0.00000000000E+00  0.00000000000E+00  0.91696988290E+03  0.91696988290E+03  0.00000000000E+00 0. -1.
          1   -1    0    0  501    0 -0.00000000000E+00 -0.00000000000E+00 -0.15708003872E+04  0.15708003872E+04  0.00000000000E+00 0. -1.
         25    2    1    2    0    0 -0.13311859267E+03  0.14561748242E+03 -0.24023961406E+03  0.33505878670E+03  0.12499722988E+03 0.  0.
          2    1    1    2  501    0  0.93314902060E+02 -0.64329735237E+02 -0.12782817176E+04  0.12832965890E+04  0.00000000000E+00 0. -1.
          1    1    1    2  502    0  0.39803690607E+02 -0.81287747185E+02  0.86469082738E+03  0.86941489438E+03  0.00000000000E+00 0. -1.
         22    1    3    3    0    0 -0.12786609819E+02 -0.69069125938E+01 -0.85395608394E+02  0.86623396176E+02  0.00000000000E+00 0.  1.
         22    1    3    3    0    0 -0.12033198285E+03  0.15252439502E+03 -0.15484400567E+03  0.24843539052E+03  0.00000000000E+00 0.  1.
</event>
<event>
 7    1  0.5064652E-006  0.1266273E+03  0.7818608E-02  0.1248978E+00
          2   -1    0    0  502    0  0.00000000000E+00  0.00000000000E+00  0.18217434041E+04  0.18217434041E+04  0.00000000000E+00 0. -1.
          1   -1    0    0  501    0 -0.00000000000E+00 -0.00000000000E+00 -0.36119641979E+03  0.36119641979E+03  0.00000000000E+00 0. -1.
         25    2    1    2    0    0  0.92398309414E+02  0.71326712366E+01  0.80088390059E+03  0.81585992360E+03  0.12499628043E+03 0.  0.
          2    1    1    2  501    0 -0.35643160633E+02  0.12150738981E+03 -0.33728190300E+03  0.36026873688E+03  0.00000000000E+00 0. -1.
          1    1    1    2  502    0 -0.56755148781E+02 -0.12864006105E+03  0.99694498671E+03  0.10068111634E+04  0.00000000000E+00 0. -1.
         22    1    3    3    0    0  0.20282331847E+02  0.10565264982E+02  0.62917016545E+03  0.62958565335E+03  0.00000000000E+00 0. -1.
         22    1    3    3    0    0  0.72115977567E+02 -0.34325937453E+01  0.17171373514E+03  0.18627427025E+03  0.00000000000E+00 0. -1.
</event>
<event>
 7    1  0.5064652E-006  0.9495320E+02  0.7818608E-02  0.1322019E+00
          2   -1    0    0  502    0  0.00000000000E+00  0.00000000000E+00  0.99774050201E+03  0.99774050201E+03  0.00000000000E+00 0. -1.
          1   -1    0    0  501    0 -0.00000000000E+00 -0.00000000000E+00 -0.10173417752E+03  0.10173417752E+03  0.00000000000E+00 0. -1.
         25    2    1    2    0    0 -0.11951006962E+03  0.49692603498E+02  0.46261984454E+03  0.49638106910E+03  0.12500013449E+03 0.  0.
          2    1    1    2  501    0  0.30506060570E+02 -0.64923389641E+02 -0.64873657364E+02  0.96717411430E+02  0.00000000000E+00 0. -1.
          1    1    1    2  502    0  0.89004009045E+02  0.15230786143E+02  0.49826013732E+03  0.50637619900E+03  0.00000000000E+00 0. -1.
         22    1    3    3    0    0 -0.53077417363E+02 -0.40953638187E+02  0.15507394880E+03  0.16894479072E+03  0.00000000000E+00 0. -1.
         22    1    3    3    0    0 -0.66432652252E+02  0.90646241685E+02  0.30754589574E+03  0.32743627839E+03  0.00000000000E+00 0. -1.
</event>
<event>
 7    1  0.5064652E-006  0.2077004E+03  0.7818608E-02  0.1270682E+00
          2   -1    0    0  502    0  0.00000000000E+00  0.00000000000E+00  0.18647319801E+04  0.18647319801E+04  0.00000000000E+00 0. -1.
          1   -1    0    0  501    0 -0.00000000000E+00 -0.00000000000E+00 -0.81149041999E+02  0.81149041999E+02  0.00000000000E+00 0. -1.
         25    2    1    2    0    0 -0.19969288382E+03 -0.62301460011E+02  0.25137114102E+03  0.35010809631E+03  0.12501803388E+03 0.  0.
          2    1    1    2  501    0  0.22741825409E+02 -0.47644314873E+02  0.34762223972E+01  0.52907990746E+02  0.00000000000E+00 0. -1.
          1    1    1    2  502    0  0.17695105841E+03  0.10994577488E+03  0.15287355747E+04  0.15428649350E+04  0.00000000000E+00 0. -1.
         22    1    3    3    0    0 -0.12363531811E+03 -0.57393472757E+02  0.69693022576E+02  0.15309088802E+03  0.00000000000E+00 0. -1.
         22    1    3    3    0    0 -0.76057565712E+02 -0.49079872534E+01  0.18167811844E+03  0.19701720829E+03  0.00000000000E+00 0. -1.
</event>
<event>
 7    1  0.5064652E-006  0.1133976E+03  0.7818608E-02  0.1440326E+00
          2   -1    0    0  502    0  0.00000000000E+00  0.00000000000E+00  0.21523077533E+04  0.21523077533E+04  0.00000000000E+00 0. -1.
          1   -1    0    0  501    0 -0.00000000000E+00 -0.00000000000E+00 -0.25943120990E+02  0.25943120990E+02  0.00000000000E+00 0. -1.
         25    2    1    2    0    0 -0.83212409185E+02 -0.45293772436E+02  0.99800705444E+03  0.10102551593E+04  0.12498630044E+03 0.  0.
          2    1    1    2  501    0  0.98709380857E+02  0.62132977628E+02  0.15308834671E+03  0.19245802316E+03  0.00000000000E+00 0. -1.
          1    1    1    2  502    0 -0.15496971672E+02 -0.16839205192E+02  0.97526923113E+03  0.97553769182E+03  0.00000000000E+00 0. -1.
         22    1    3    3    0    0 -0.97735025646E+02  0.44225743033E+01  0.49407034355E+03  0.50366377552E+03  0.00000000000E+00 0. -1.
         22    1    3    3    0    0  0.14522616461E+02 -0.49716346739E+02  0.50393671090E+03  0.50659138377E+03  0.00000000000E+00 0. -1.
</event>
<event>
 7    1  0.5064652E-006  0.6347366E+02  0.7818608E-02  0.1434882E+00
          2   -1    0    0  502    0  0.00000000000E+00  0.00000000000E+00  0.32262859449E+04  0.32262859449E+04  0.00000000000E+00 0. -1.
          1   -1    0    0  501    0 -0.00000000000E+00 -0.00000000000E+00 -0.19780692951E+03  0.19780692951E+03  0.00000000000E+00 0. -1.
         25    2    1    2    0    0  0.58729721198E+02 -0.84584216328E+02  0.52540330885E+03  0.54979717524E+03  0.12499850858E+03 0.  0.
          2    1    1    2  501    0 -0.15503638987E+02  0.39665587231E+02 -0.18280063191E+03  0.18769601130E+03  0.00000000000E+00 0. -1.
          1    1    1    2  502    0 -0.43226082212E+02  0.44918629097E+02  0.26858763384E+04  0.26865996879E+04  0.00000000000E+00 0. -1.
         22    1    3    3    0    0  0.36543522045E+02 -0.20788166127E+02  0.43459243514E+03  0.43662130220E+03  0.00000000000E+00 0.  1.
         22    1    3    3    0    0  0.22186199153E+02 -0.63796050201E+02  0.90810873708E+02  0.11317587304E+03  0.00000000000E+00 0.  1.
</event>
<event>
 7    1  0.5064652E-006  0.9531389E+02  0.7818608E-02  0.1320616E+00
          2   -1    0    0  502    0  0.00000000000E+00  0.00000000000E+00  0.14941170159E+03  0.14941170159E+03  0.00000000000E+00 0. -1.
          1   -1    0    0  501    0 -0.00000000000E+00 -0.00000000000E+00 -0.39856716094E+03  0.39856716094E+03  0.00000000000E+00 0. -1.
         25    2    1    2    0    0 -0.87738326040E+02 -0.58093308810E+02  0.11181910711E+02  0.16378015812E+03  0.12500423465E+03 0.  0.
          2    1    1    2  501    0  0.24599675795E+02  0.93444336180E+02 -0.29023984687E+03  0.30590220124E+03  0.00000000000E+00 0. -1.
          1    1    1    2  502    0  0.63138650244E+02 -0.35351027370E+02  0.29902476809E+02  0.78296503180E+02  0.00000000000E+00 0. -1.
         22    1    3    3    0    0 -0.44216366322E+02 -0.20680017028E+02 -0.56746211282E+02  0.74852405772E+02  0.00000000000E+00 0. -1.
         22    1    3    3    0    0 -0.43521959718E+02 -0.37413291782E+02  0.67928121993E+02  0.88927752345E+02  0.00000000000E+00 0. -1.
</event>
<event>
 7    1  0.5064652E-006  0.6029528E+02  0.7818608E-02  0.1464033E+00
          2   -1    0    0  502    0  0.00000000000E+00  0.00000000000E+00  0.21212333695E+03  0.21212333695E+03  0.00000000000E+00 0. -1.
          1   -1    0    0  501    0 -0.00000000000E+00 -0.00000000000E+00 -0.81691935769E+03  0.81691935769E+03  0.00000000000E+00 0. -1.
         25    2    1    2    0    0  0.37695991821E+02 -0.19236948248E+02 -0.69812967261E+01  0.13215485059E+03  0.12500047221E+03 0.  0.
          2    1    1    2  501    0 -0.60116979201E+02 -0.91347471822E+01 -0.74390629326E+03  0.74638734445E+03  0.00000000000E+00 0. -1.
          1    1    1    2  502    0  0.22420987380E+02  0.28371695431E+02  0.14609156925E+03  0.15050049961E+03  0.00000000000E+00 0. -1.
         22    1    3    3    0    0 -0.10133821119E+02 -0.54235924719E+01  0.52984262028E+02  0.54216618379E+02  0.00000000000E+00 0.  1.
         22    1    3    3    0    0  0.47829812940E+02 -0.13813355776E+02 -0.59965558754E+02  0.77938232212E+02  0.00000000000E+00 0.  1.
</event>
<event>
 7    1  0.5064652E-006  0.3707551E+02  0.7818608E-02  0.1535053E+00
          2   -1    0    0  502    0  0.00000000000E+00  0.00000000000E+00  0.13246461683E+03  0.13246461683E+03  0.00000000000E+00 0. -1.
          1   -1    0    0  501    0 -0.00000000000E+00 -0.00000000000E+00 -0.10588024236E+04  0.10588024236E+04  0.00000000000E+00 0. -1.
         25    2    1    2    0    0  0.21134578123E+02 -0.52136962651E+02 -0.53612050841E+03  0.55336639073E+03  0.12499691832E+03 0.  0.
          2    1    1    2  501    0  0.11307828948E+02  0.34260931590E+02 -0.51063838747E+03  0.51191136068E+03  0.00000000000E+00 0. -1.
          1    1    1    2  502    0 -0.32442407071E+02  0.17876031061E+02  0.12042108907E+03  0.12598928905E+03  0.00000000000E+00 0. -1.
         22    1    3    3    0    0  0.20663147503E+02 -0.44065569345E+02 -0.60361580974E+02  0.77538767878E+02  0.00000000000E+00 0.  1.
         22    1    3    3    0    0  0.47143061994E+00 -0.80713933058E+01 -0.47575892743E+03  0.47582762285E+03  0.00000000000E+00 0.  1.
</event>
<event>
 7    1  0.5064652E-006  0.9277396E+02  0.7818608E-02  0.1343530E+00
          2   -1    0    0  502    0  0.00000000000E+00  0.00000000000E+00  0.12709597486E+04  0.12709597486E+04  0.00000000000E+00 0. -1.
          1   -1    0    0  501    0 -0.00000000000E+00 -0.00000000000E+00 -0.62442187292E+02  0.62442187292E+02  0.00000000000E+00 0. -1.
         25    2    1    2    0    0  0.12499788429E+03 -0.47434268400E+02  0.26490528590E+03  0.32198463101E+03  0.12499924485E+03 0.  0.
          2    1    1    2  501    0 -0.34660266783E+02  0.49964697719E+02 -0.26326527279E+01  0.60866542303E+02  0.00000000000E+00 0. -1.
          1    1    1    2  502    0 -0.90337617510E+02 -0.25304293190E+01  0.94624492817E+03  0.95055076261E+03  0.00000000000E+00 0. -1.
         22    1    3    3    0    0  0.12121863529E+03 -0.64409508052E+02  0.14070141463E+03  0.19656914903E+03  0.00000000000E+00 0. -1.
         22    1    3    3    0    0  0.37792490030E+01  0.16975239653E+02  0.12420387126E+03  0.12541548198E+03  0.00000000000E+00 0. -1.
</event>
<event>
 7    1  0.5064652E-006  0.6667274E+02  0.7818608E-02  0.1391809E+00
          2   -1    0    0  502    0  0.00000000000E+00  0.00000000000E+00  0.10263117254E+04  0.10263117254E+04  0.00000000000E+00 0. -1.
          1   -1    0    0  501    0 -0.00000000000E+00 -0.00000000000E+00 -0.24610967832E+03  0.24610967832E+03  0.00000000000E+00 0. -1.
         25    2    1    2    0    0 -0.96481804789E+02  0.63646549310E+02  0.59422571545E+02  0.18032165980E+03  0.12500094835E+03 0.  0.
          2    1    1    2  501    0  0.55297555413E+02 -0.12318146272E+02 -0.18010999855E+03  0.18880987246E+03  0.00000000000E+00 0. -1.
          1    1    1    2  502    0  0.41184249376E+02 -0.51328403038E+02  0.90088947409E+03  0.90328987146E+03  0.00000000000E+00 0. -1.
         22    1    3    3    0    0 -0.11191497093E+03  0.47852591010E+02  0.83535913340E+02  0.14762479468E+03  0.00000000000E+00 0.  1.
         22    1    3    3    0    0  0.15433166146E+02  0.15793958300E+02 -0.24113341796E+02  0.32696865119E+02  0.00000000000E+00 0.  1.
</event>
<event>
 7    1  0.5064652E-006  0.6094100E+02  0.7818608E-02  0.1431404E+00
          2   -1    0    0  502    0  0.00000000000E+00  0.00000000000E+00  0.66889219998E+03  0.66889219998E+03  0.00000000000E+00 0. -1.
          1   -1    0    0  501    0 -0.00000000000E+00 -0.00000000000E+00 -0.68052320851E+03  0.68052320851E+03  0.00000000000E+00 0. -1.
         25    2    1    2    0    0  0.46052697228E+02 -0.85360732131E+00  0.14420075167E+03  0.19628276742E+03  0.12494594206E+03 0.  0.
          2    1    1    2  501    0 -0.14490213977E+01  0.45514384714E+02 -0.65168705744E+03  0.65327611292E+03  0.00000000000E+00 0. -1.
          1    1    1    2  502    0 -0.44603675830E+02 -0.44660777393E+02  0.49585529723E+03  0.49985652815E+03  0.00000000000E+00 0. -1.
         22    1    3    3    0    0  0.87005417725E+02  0.15404476090E+02  0.10572680379E+03  0.13778750900E+03  0.00000000000E+00 0. -1.
         22    1    3    3    0    0 -0.40952720497E+02 -0.16258083412E+02  0.38473947876E+02  0.58495258419E+02  0.00000000000E+00 0. -1.
</event>
<event>
 7    1  0.5064652E-006  0.8497623E+02  0.7818608E-02  0.1327834E+00
          2   -1    0    0  502    0  0.00000000000E+00  0.00000000000E+00  0.14904509062E+04  0.14904509062E+04  0.00000000000E+00 0. -1.
          1   -1    0    0  501    0 -0.00000000000E+00 -0.00000000000E+00 -0.25482551991E+02  0.25482551991E+02  0.00000000000E+00 0. -1.
         25    2    1    2    0    0  0.11144127918E+03  0.44179641978E+02  0.77714414125E+03  0.79620911421E+03  0.12499975122E+03 0.  0.
          2    1    1    2  501    0 -0.40665128113E+02 -0.72218880776E+02  0.11439413442E+03  0.14126300781E+03  0.00000000000E+00 0. -1.
          1    1    1    2  502    0 -0.70776151069E+02  0.28039238798E+02  0.57343007858E+03  0.57846133621E+03  0.00000000000E+00 0. -1.
         22    1    3    3    0    0  0.64800385578E+02 -0.39748057159E+02  0.29837835460E+03  0.30791011759E+03  0.00000000000E+00 0. -1.
         22    1    3    3    0    0  0.46640893604E+02  0.83927699137E+02  0.47876578665E+03  0.48829899662E+03  0.00000000000E+00 0. -1.
</event>
<event>
 7    1  0.5064652E-006  0.5774642E+02  0.7818608E-02  0.1443447E+00
          2   -1    0    0  502    0  0.00000000000E+00  0.00000000000E+00  0.88110748752E+03  0.88110748752E+03  0.00000000000E+00 0. -1.
          1   -1    0    0  501    0 -0.00000000000E+00 -0.00000000000E+00 -0.87679552771E+02  0.87679552771E+02  0.00000000000E+00 0. -1.
         25    2    1    2    0    0 -0.28035578215E+02 -0.22927554133E+02  0.36813378486E+03  0.39046091959E+03  0.12500231914E+03 0.  0.
          2    1    1    2  501    0  0.18925442765E+02 -0.39617895836E+02 -0.68030751700E+02  0.80968717608E+02  0.00000000000E+00 0. -1.
          1    1    1    2  502    0  0.91101354502E+01  0.62545449969E+02  0.49332490159E+03  0.49735740309E+03  0.00000000000E+00 0. -1.
         22    1    3    3    0    0 -0.19426751949E+01  0.28904948248E+02  0.15061200563E+02  0.32651336612E+02  0.00000000000E+00 0.  1.
         22    1    3    3    0    0 -0.26092903020E+02 -0.51832502382E+02  0.35307258430E+03  0.35780958298E+03  0.00000000000E+00 0.  1.
</event>
<event>
 7    1  0.5064652E-006  0.3122370E+02  0.7818608E-02  0.1658145E+00
          2   -1    0    0  502    0  0.00000000000E+00  0.00000000000E+00  0.13796579756E+04  0.13796579756E+04  0.00000000000E+00 0. -1.
          1   -1    0    0  501    0 -0.00000000000E+00 -0.00000000000E+00 -0.65575750453E+03  0.65575750453E+03  0.00000000000E+00 0. -1.
         25    2    1    2    0    0 -0.48143617603E+01 -0.32927792271E+02  0.79614714623E+02  0.15185978788E+03  0.12496189342E+03 0.  0.
          2    1    1    2  501    0  0.22049310224E+02  0.22129145124E+02 -0.61915934249E+03  0.61994690300E+03  0.00000000000E+00 0. -1.
          1    1    1    2  502    0 -0.17234948464E+02  0.10798647146E+02  0.12634450989E+04  0.12636087892E+04  0.00000000000E+00 0. -1.
         22    1    3    3    0    0  0.18937053263E+02 -0.60547378300E+02 -0.94516168107E+00  0.63446751973E+02  0.00000000000E+00 0.  1.
         22    1    3    3    0    0 -0.23751415023E+02  0.27619586030E+02  0.80559876304E+02  0.88413035907E+02  0.00000000000E+00 0.  1.
</event>
<event>
 7    1  0.5064652E-006  0.1428235E+03  0.7818608E-02  0.1258416E+00
          2   -1    0    0  502    0  0.00000000000E+00  0.00000000000E+00  0.12454719013E+04  0.12454719013E+04  0.00000000000E+00 0. -1.
          1   -1    0    0  501    0 -0.00000000000E+00 -0.00000000000E+00 -0.33540416100E+03  0.33540416100E+03  0.00000000000E+00 0. -1.
         25    2    1    2    0    0  0.82509949501E+02  0.17617110811E+02  0.25298615117E+02  0.15291772724E+03  0.12500222805E+03 0.  0.
          2    1    1    2  501    0 -0.15760716810E+03  0.25376911744E+02 -0.24634061677E+03  0.29354336401E+03  0.00000000000E+00 0. -1.
          1    1    1    2  502    0  0.75097218598E+02 -0.42994022555E+02  0.11311097419E+04  0.11344149710E+04  0.00000000000E+00 0. -1.
         22    1    3    3    0    0  0.44294421346E+02  0.25342514274E+02 -0.47895400324E+02  0.69987200004E+02  0.00000000000E+00 0. -1.
         22    1    3    3    0    0  0.38215528154E+02 -0.77254034631E+01  0.73194015441E+02  0.82930527233E+02  0.00000000000E+00 0. -1.
</event>
<event>
 7    1  0.5064652E-006  0.5395486E+02  0.7818608E-02  0.1503093E+00
          2   -1    0    0  502    0  0.00000000000E+00  0.00000000000E+00  0.73007129702E+03  0.73007129702E+03  0.00000000000E+00 0. -1.
          1   -1    0    0  501    0 -0.00000000000E+00 -0.00000000000E+00 -0.58824900480E+03  0.58824900480E+03  0.00000000000E+00 0. -1.
         25    2    1    2    0    0 -0.43812371377E+02  0.54231320799E+02 -0.42277050300E+03  0.44634129059E+03  0.12500035774E+03 0.  0.
          2    1    1    2  501    0  0.43924336149E+02 -0.23523993661E+02 -0.14931591523E+03  0.15741019067E+03  0.00000000000E+00 0. -1.
          1    1    1    2  502    0 -0.11196477179E+00 -0.30707327138E+02  0.71390871044E+03  0.71456882056E+03  0.00000000000E+00 0. -1.
         22    1    3    3    0    0 -0.61929980241E+02 -0.10864805280E+02 -0.29685903199E+03  0.30344464292E+03  0.00000000000E+00 0.  1.
         22    1    3    3    0    0  0.18117608864E+02  0.65096126079E+02 -0.12591147101E+03  0.14289664766E+03  0.00000000000E+00 0.  1.
</event>
<event>
 7    1  0.5064652E-006  0.1078688E+03  0.7818608E-02  0.1367051E+00
          2   -1    0    0  502    0  0.00000000000E+00  0.00000000000E+00  0.97772463764E+03  0.97772463764E+03  0.00000000000E+00 0. -1.
          1   -1    0    0  501    0 -0.00000000000E+00 -0.00000000000E+00 -0.41609723542E+03  0.41609723542E+03  0.00000000000E+00 0. -1.
         25    2    1    2    0    0 -0.42672694333E+02  0.77346958674E+02 -0.11268564811E+03  0.19007036160E+03  0.12500070484E+03 0.  0.
          2    1    1    2  501    0  0.20030108690E+02 -0.11373681442E+03 -0.25160422187E+03  0.27684283027E+03  0.00000000000E+00 0. -1.
          1    1    1    2  502    0  0.22642585643E+02  0.36389855744E+02  0.92591727221E+03  0.92690868119E+03  0.00000000000E+00 0. -1.
         22    1    3    3    0    0 -0.27492493569E+02  0.90000690355E+02 -0.21186771915E+02  0.96461602574E+02  0.00000000000E+00 0.  1.
         22    1    3    3    0    0 -0.15180200764E+02 -0.12653731680E+02 -0.91498876198E+02  0.93608759025E+02  0.00000000000E+00 0.  1.
</event>
<event>
 7    1  0.5064652E-006  0.5599391E+02  0.7818608E-02  0.1435961E+00
          2   -1    0    0  502    0  0.00000000000E+00  0.00000000000E+00  0.10214218894E+04  0.10214218894E+04  0.00000000000E+00 0. -1.
          1   -1    0    0  501    0 -0.00000000000E+00 -0.00000000000E+00 -0.21857434810E+02  0.21857434810E+02  0.00000000000E+00 0. -1.
         25    2    1    2    0    0 -0.35903816425E+02 -0.80805388972E+02  0.54663899444E+03  0.56766954899E+03  0.12496372149E+03 0.  0.
          2    1    1    2  501    0 -0.29552759142E+01  0.52821318144E+02  0.60897901945E+02  0.80668331875E+02  0.00000000000E+00 0. -1.
          1    1    1    2  502    0  0.38859092339E+02  0.27984070828E+02  0.39202755825E+03  0.39494144338E+03  0.00000000000E+00 0. -1.
         22    1    3    3    0    0 -0.58911092533E+02 -0.73884853706E+02  0.53020759484E+03  0.53856251453E+03  0.00000000000E+00 0.  1.
         22    1    3    3    0    0  0.23007276107E+02 -0.69205352664E+01  0.16431399596E+02  0.29107034458E+02  0.00000000000E+00 0.  1.
</event>
<event>
 7    1  0.5064652E-006  0.1673863E+03  0.7818608E-02  0.1315073E+00
          2   -1    0    0  502    0  0.00000000000E+00  0.00000000000E+00  0.14156907813E+04  0.14156907813E+04  0.00000000000E+00 0. -1.
          1   -1    0    0  501    0 -0.00000000000E+00 -0.00000000000E+00 -0.37016552505E+03  0.37016552505E+03  0.00000000000E+00 0. -1.
         25    2    1    2    0    0  0.14509473508E+03  0.98086947328E+02  0.10784832445E+03  0.24068678175E+03  0.12500133775E+03 0.  0.
          2    1    1    2  501    0 -0.11098955053E+03 -0.12477101773E+03 -0.28038031068E+03  0.32634277349E+03  0.00000000000E+00 0. -1.
          1    1    1    2  502    0 -0.34105184548E+02  0.26684070405E+02  0.12180572425E+04  0.12188267511E+04  0.00000000000E+00 0. -1.
         22    1    3    3    0    0  0.12405443078E+03  0.12435103771E+03  0.10951442193E+03  0.20699297328E+03  0.00000000000E+00 0.  1.
         22    1    3    3    0    0  0.21040304297E+02 -0.26264090384E+02 -0.16660974805E+01  0.33693808473E+02  0.00000000000E+00 0.  1.
</event>
<event>
 7    1  0.5064652E-006  0.5385480E+03  0.7818608E-02  0.1191204E+00
          2   -1    0    0  502    0  0.00000000000E+00  0.00000000000E+00  0.47844780726E+03  0.47844780726E+03  0.00000000000E+00 0. -1.
          1   -1    0    0  501    0 -0.00000000000E+00 -0.00000000000E+00 -0.16326612575E+04  0.16326612575E+04  0.00000000000E+00 0. -1.
         25    2    1    2    0    0  0.38462734150E+03 -0.32373234888E+03 -0.13020396033E+03  0.53415302539E+03  0.12500223080E+03 0.  0.
          2    1    1    2  501    0 -0.42224288576E+03  0.35061941335E+03 -0.12400211091E+04  0.13560513924E+04  0.00000000000E+00 0. -1.
          1    1    1    2  502    0  0.37615544255E+02 -0.26887064471E+02  0.21601161927E+03  0.22090464699E+03  0.00000000000E+00 0. -1.
         22    1    3    3    0    0  0.84775560069E+02 -0.14154936072E+02 -0.88267865223E+01  0.86401215041E+02  0.00000000000E+00 0. -1.
         22    1    3    3    0    0  0.29985178143E+03 -0.30957741281E+03 -0.12137717381E+03  0.44775181035E+03  0.00000000000E+00 0. -1.
</event>
<event>
 7    1  0.5064652E-006  0.6102278E+02  0.7818608E-02  0.1426411E+00
          2   -1    0    0  502    0  0.00000000000E+00  0.00000000000E+00  0.35876124674E+03  0.35876124674E+03  0.00000000000E+00 0. -1.
          1   -1    0    0  501    0 -0.00000000000E+00 -0.00000000000E+00 -0.15009537881E+03  0.15009537881E+03  0.00000000000E+00 0. -1.
         25    2    1    2    0    0 -0.66270080905E+02  0.52537920584E+02  0.42085573589E+02  0.15667900092E+03  0.12500062840E+03 0.  0.
          2    1    1    2  501    0  0.19220517961E+02 -0.56701334861E+02 -0.80668099798E+02  0.10045801118E+03  0.00000000000E+00 0. -1.
          1    1    1    2  502    0  0.47049562945E+02  0.41634142774E+01  0.24724839413E+03  0.25171961345E+03  0.00000000000E+00 0. -1.
         22    1    3    3    0    0 -0.14909003081E+02  0.81311964531E+02 -0.26949909477E+01  0.82711407466E+02  0.00000000000E+00 0. -1.
         22    1    3    3    0    0 -0.51361077824E+02 -0.28774043948E+02  0.44780564537E+02  0.73967593449E+02  0.00000000000E+00 0. -1.
</event>
<event>
 7    1  0.5064652E-006  0.1678926E+03  0.7818608E-02  0.1348532E+00
          2   -1    0    0  502    0  0.00000000000E+00  0.00000000000E+00  0.42125760217E+03  0.42125760217E+03  0.00000000000E+00 0. -1.
          1   -1    0    0  501    0 -0.00000000000E+00 -0.00000000000E+00 -0.72901118110E+03  0.72901118110E+03  0.00000000000E+00 0. -1.
         25    2    1    2    0    0  0.12860038091E+02  0.15694091375E+03 -0.16831288688E+02  0.20175147097E+03  0.12499813108E+03 0.  0.
          2    1    1    2  501    0 -0.29590541056E+02  0.12672822338E+02 -0.59717006562E+03  0.59803702880E+03  0.00000000000E+00 0. -1.
          1    1    1    2  502    0  0.16730502966E+02 -0.16961373608E+03  0.30624777537E+03  0.35048028350E+03  0.00000000000E+00 0. -1.
         22    1    3    3    0    0 -0.30037363633E+02  0.17513574228E+02  0.32663724904E+02  0.47706261862E+02  0.00000000000E+00 0. -1.
         22    1    3    3    0    0  0.42897401724E+02  0.13942733952E+03 -0.49495013592E+02  0.15404520911E+03  0.00000000000E+00 0. -1.
</event>
<event>
 7    1  0.5064652E-006  0.1055061E+03  0.7818608E-02  0.1346097E+00
          2   -1    0    0  502    0  0.00000000000E+00  0.00000000000E+00  0.11593213517E+04  0.11593213517E+04  0.00000000000E+00 0. -1.
          1   -1    0    0  501    0 -0.00000000000E+00 -0.00000000000E+00 -0.71777816899E+02  0.71777816899E+02  0.00000000000E+00 0. -1.
         25    2    1    2    0    0  0.52910815793E+02 -0.31218042917E+02  0.62561662152E+02  0.15268923135E+03  0.12500367662E+03 0.  0.
          2    1    1    2  501    0  0.52135499684E+02  0.41940798342E+01  0.48505096036E+01  0.52528354975E+02  0.00000000000E+00 0. -1.
          1    1    1    2  502    0 -0.10504631548E+03  0.27023963083E+02  0.10201313631E+04  0.10258815823E+04  0.00000000000E+00 0. -1.
         22    1    3    3    0    0  0.89356334020E+02 -0.11544435622E+02  0.18049612308E+02  0.91889155660E+02  0.00000000000E+00 0. -1.
         22    1    3    3    0    0 -0.36445518227E+02 -0.19673607295E+02  0.44512049844E+02  0.60800075692E+02  0.00000000000E+00 0. -1.
</event>
<event>
 7    1  0.5064652E-006  0.3369271E+03  0.7818608E-02  0.1193795E+00
          2   -1    0    0  502    0  0.00000000000E+00  0.00000000000E+00  0.28496377030E+04  0.28496377030E+04  0.00000000000E+00 0. -1.
          1   -1    0    0  501    0 -0.00000000000E+00 -0.00000000000E+00 -0.31276719005E+03  0.31276719005E+03  0.00000000000E+00 0. -1.
         25    2    1    2    0    0  0.26562677057E+03  0.93989313310E+02  0.72536098624E+03  0.78813858181E+03  0.12498916560E+03 0.  0.
          2    1    1    2  501    0 -0.33578631789E+03 -0.78595848774E+02 -0.17481780812E+03  0.38664069207E+03  0.00000000000E+00 0. -1.
          1    1    1    2  502    0  0.70159547319E+02 -0.15393464536E+02  0.19863273349E+04  0.19876256192E+04  0.00000000000E+00 0. -1.
         22    1    3    3    0    0  0.14874101488E+03  0.69013081254E+02  0.25768964113E+03  0.30543517485E+03  0.00000000000E+00 0.  1.
         22    1    3    3    0    0  0.11688575570E+03  0.24976232056E+02  0.46767134511E+03  0.48270340696E+03  0.00000000000E+00 0.  1.
</event>
<event>
 7    1  0.5064652E-006  0.1886718E+03  0.7818608E-02  0.1234590E+00
          2   -1    0    0  502    0  0.00000000000E+00  0.00000000000E+00  0.20935993475E+03  0.20935993475E+03  0.00000000000E+00 0. -1.
          1   -1    0    0  501    0 -0.00000000000E+00 -0.00000000000E+00 -0.15871551216E+04  0.15871551216E+04  0.00000000000E+00 0. -1.
         25    2    1    2    0    0 -0.22994503410E+02  0.15852810797E+03 -0.19581833503E+03  0.28218094554E+03  0.12498542909E+03 0.  0.
          2    1    1    2  501    0  0.76479227861E+02  0.32817346128E+02 -0.12869427857E+04  0.12896308713E+04  0.00000000000E+00 0. -1.
          1    1    1    2  502    0 -0.53484724451E+02 -0.19134545410E+03  0.10496593392E+03  0.22470323949E+03  0.00000000000E+00 0. -1.
         22    1    3    3    0    0 -0.10174884665E+02  0.99745722404E+02 -0.19804175051E+03  0.22197583733E+03  0.00000000000E+00 0. -1.
         22    1    3    3    0    0 -0.12819618745E+02  0.58782385565E+02  0.22234154746E+01  0.60205108204E+02  0.00000000000E+00 0. -1.
</event>
<event>
 7    1  0.5064652E-006  0.1058300E+03  0.7818608E-02  0.1283472E+00
          2   -1    0    0  502    0  0.00000000000E+00  0.00000000000E+00  0.10368349136E+04  0.10368349136E+04  0.00000000000E+00 0. -1.
          1   -1    0    0  501    0 -0.00000000000E+00 -0.00000000000E+00 -0.56146870553E+02  0.56146870553E+02  0.00000000000E+00 0. -1.
         25    2    1    2    0    0  0.40350037514E+02  0.59758495252E+02  0.22912602920E+03  0.27078277128E+03  0.12500147472E+03 0.  0.
          2    1    1    2  501    0 -0.73405387340E+02  0.54936842639E+02  0.38878576326E+02  0.99588911365E+02  0.00000000000E+00 0. -1.
          1    1    1    2  502    0  0.33055349826E+02 -0.11469533789E+03  0.71268343748E+03  0.72261010146E+03  0.00000000000E+00 0. -1.
         22    1    3    3    0    0  0.74064778816E+02  0.39164107717E+02  0.77623870035E+02  0.11421420224E+03  0.00000000000E+00 0. -1.
         22    1    3    3    0    0 -0.33714741301E+02  0.20594387536E+02  0.15150215916E+03  0.15656856904E+03  0.00000000000E+00 0. -1.
</event>
<event>
 7    1  0.5064652E-006  0.2538960E+03  0.7818608E-02  0.1112114E+00
          2   -1    0    0  502    0  0.00000000000E+00  0.00000000000E+00  0.11049317619E+04  0.11049317619E+04  0.00000000000E+00 0. -1.
          1   -1    0    0  501    0 -0.00000000000E+00 -0.00000000000E+00 -0.48193584130E+03  0.48193584130E+03  0.00000000000E+00 0. -1.
         25    2    1    2    0    0  0.13040969658E+03 -0.73354335177E+02 -0.19312288733E+03  0.27442402139E+03  0.12499818581E+03 0.  0.
          2    1    1    2  501    0 -0.15753063541E+03 -0.19400556470E+03 -0.16217097896E+03  0.29791523400E+03  0.00000000000E+00 0. -1.
          1    1    1    2  502    0  0.27120938833E+02  0.26735989988E+03  0.97828978688E+03  0.10145283478E+04  0.00000000000E+00 0. -1.
         22    1    3    3    0    0  0.11064500149E+03 -0.60243554940E+02 -0.60607749481E+02  0.13980308138E+03  0.00000000000E+00 0.  1.
         22    1    3    3    0    0  0.19764695086E+02 -0.13110780236E+02 -0.13251513785E+03  0.13462094001E+03  0.00000000000E+00 0.  1.
</event>
<event>
 7    1  0.5064652E-006  0.4620583E+02  0.7818608E-02  0.1480167E+00
          2   -1    0    0  502    0  0.00000000000E+00  0.00000000000E+00  0.13152360517E+03  0.13152360517E+03  0.00000000000E+00 0. -1.
          1   -1    0    0  501    0 -0.00000000000E+00 -0.00000000000E+00 -0.50425943606E+03  0.50425943606E+03  0.00000000000E+00 0. -1.
         25    2    1    2    0    0 -0.53590780026E+01 -0.84512676464E+02 -0.98335257542E+02  0.18018403276E+03  0.12500140234E+03 0.  0.
          2    1    1    2  501    0 -0.71890568169E+01  0.44376110347E+02 -0.35864004079E+03  0.36144653902E+03  0.00000000000E+00 0. -1.
          1    1    1    2  502    0  0.12548134820E+02  0.40136566118E+02  0.84239467443E+02  0.94152469443E+02  0.00000000000E+00 0. -1.
         22    1    3    3    0    0 -0.29247449081E+02  0.24265541799E+02 -0.37004833191E+02  0.53043260420E+02  0.00000000000E+00 0.  1.
         22    1    3    3    0    0  0.23888371078E+02 -0.10877821826E+03 -0.61330424351E+02  0.12714077234E+03  0.00000000000E+00 0.  1.
</event>
<event>
 7    1  0.5064652E-006  0.5834181E+02  0.7818608E-02  0.1467161E+00
          2   -1    0    0  502    0  0.00000000000E+00  0.00000000000E+00  0.27976402676E+03  0.27976402676E+03  0.00000000000E+00 0. -1.
          1   -1    0    0  501    0 -0.00000000000E+00 -0.00000000000E+00 -0.93588160795E+03  0.93588160795E+03  0.00000000000E+00 0. -1.
         25    2    1    2    0    0 -0.82678839315E+01  0.68978234738E+02 -0.19586414980E+03  0.24251011296E+03  0.12498813918E+03 0.  0.
          2    1    1    2  501    0  0.36324021063E+02 -0.45569628903E+02 -0.71420006996E+03  0.71657362882E+03  0.00000000000E+00 0. -1.
          1    1    1    2  502    0 -0.28056137132E+02 -0.23408605835E+02  0.25394663857E+03  0.25656189292E+03  0.00000000000E+00 0. -1.
         22    1    3    3    0    0 -0.48927113297E+02  0.26977555968E+02 -0.16933609445E+03  0.17831534938E+03  0.00000000000E+00 0.  1.
         22    1    3    3    0    0  0.40659229365E+02  0.42000678770E+02 -0.26528055353E+02  0.64194763576E+02  0.00000000000E+00 0.  1.
</event>
<event>
 7    1  0.5064652E-006  0.5067031E+02  0.7818608E-02  0.1494675E+00
          2   -1    0    0  502    0  0.00000000000E+00  0.00000000000E+00  0.60550346415E+03  0.60550346415E+03  0.00000000000E+00 0. -1.
          1   -1    0    0  501    0 -0.00000000000E+00 -0.00000000000E+00 -0.14174831367E+03  0.14174831367E+03  0.00000000000E+00 0. -1.
         25    2    1    2    0    0 -0.35481730977E+02  0.61853050438E+02  0.16268655223E+02  0.14482577749E+03  0.12500033441E+03 0.  0.
          2    1    1    2  501    0  0.40807441650E+02 -0.27616613933E+02 -0.68995090813E+02  0.84783531511E+02  0.00000000000E+00 0. -1.
          1    1    1    2  502    0 -0.53257106729E+01 -0.34236436505E+02  0.51648158607E+03  0.51764246882E+03  0.00000000000E+00 0. -1.
         22    1    3    3    0    0  0.32720351489E+01  0.85399342445E+02 -0.18795077826E+02  0.87504336204E+02  0.00000000000E+00 0.  1.
         22    1    3    3    0    0 -0.38753766126E+02 -0.23546292007E+02  0.35063733049E+02  0.57321441290E+02  0.00000000000E+00 0.  1.
</event>
<event>
 7    1  0.5064652E-006  0.9311282E+02  0.7818608E-02  0.1329488E+00
          2   -1    0    0  502    0  0.00000000000E+00  0.00000000000E+00  0.38775031999E+03  0.38775031999E+03  0.00000000000E+00 0. -1.
          1   -1    0    0  501    0 -0.00000000000E+00 -0.00000000000E+00 -0.18377044827E+03  0.18377044827E+03  0.00000000000E+00 0. -1.
         25    2    1    2    0    0  0.65309818592E+02 -0.87509847022E+02  0.84664730780E+02  0.18632001423E+03  0.12499474122E+03 0.  0.
          2    1    1    2  501    0 -0.68184218139E+02 -0.62508519256E+01 -0.11442152223E+03  0.13334333693E+03  0.00000000000E+00 0. -1.
          1    1    1    2  502    0  0.28743995465E+01  0.93760698948E+02  0.23373666317E+03  0.25185741710E+03  0.00000000000E+00 0. -1.
         22    1    3    3    0    0 -0.22453314766E+01 -0.36651329939E+02  0.94315660978E+02  0.10121168611E+03  0.00000000000E+00 0.  1.
         22    1    3    3    0    0  0.67555150069E+02 -0.50858517084E+02 -0.96509301973E+01  0.85108328114E+02  0.00000000000E+00 0.  1.
</event>
<event>
 7    1  0.5064652E-006  0.1289225E+03  0.7818608E-02  0.1281184E+00
          2   -1    0    0  502    0  0.00000000000E+00  0.00000000000E+00  0.77109229703E+03  0.77109229703E+03  0.00000000000E+00 0. -1.
          1   -1    0    0  501    0 -0.00000000000E+00 -0.00000000000E+00 -0.83352586177E+03  0.83352586177E+03  0.00000000000E+00 0. -1.
         25    2    1    2    0    0 -0.13000765539E+03 -0.14093401136E+03 -0.19007411327E+03  0.29752020498E+03  0.12500287124E+03 0.  0.
          2    1    1    2  501    0  0.71900027177E+02  0.27316280091E+02 -0.58150087639E+03  0.58656547998E+03  0.00000000000E+00 0. -1.
          1    1    1    2  502    0  0.58107628213E+02  0.11361773127E+03  0.70914142492E+03  0.72053247384E+03  0.00000000000E+00 0. -1.
         22    1    3    3    0    0 -0.14641696373E+03 -0.14658334280E+03 -0.18848782094E+03  0.28009330998E+03  0.00000000000E+00 0. -1.
         22    1    3    3    0    0  0.16409308337E+02  0.56493314436E+01 -0.15862923247E+01  0.17426894996E+02  0.00000000000E+00 0. -1.
</event>
<event>
 7    1  0.5064652E-006  0.8919097E+02  0.7818608E-02  0.1411329E+00
          2   -1    0    0  502    0  0.00000000000E+00  0.00000000000E+00  0.10706691413E+03  0.10706691413E+03  0.00000000000E+00 0. -1.
          1   -1    0    0  501    0 -0.00000000000E+00 -0.00000000000E+00 -0.72156461339E+03  0.72156461339E+03  0.00000000000E+00 0. -1.
         25    2    1    2    0    0  0.52186835434E+02  0.54025680344E+02 -0.10585889730E+02  0.14621718522E+03  0.12500065704E+03 0.  0.
          2    1    1    2  501    0 -0.32064544540E+02 -0.84235157509E+02 -0.63082261254E+03  0.63722905244E+03  0.00000000000E+00 0. -1.
          1    1    1    2  502    0 -0.20122290894E+02  0.30209477164E+02  0.26910803017E+02  0.45185289868E+02  0.00000000000E+00 0. -1.
         22    1    3    3    0    0  0.42090686141E+02  0.24790533756E+02 -0.66384208452E+02  0.82420019143E+02  0.00000000000E+00 0.  1.
         22    1    3    3    0    0  0.10096149294E+02  0.29235146588E+02  0.55798318723E+02  0.63797166072E+02  0.00000000000E+00 0.  1.
</event>
<event>
 7    1  0.5064652E-006  0.9943214E+02  0.7818608E-02  0.1291720E+00
          2   -1    0    0  502    0  0.00000000000E+00  0.00000000000E+00  0.14609165209E+04  0.14609165209E+04  0.00000000000E+00 0. -1.
          1   -1    0    0  501    0 -0.00000000000E+00 -0.00000000000E+00 -0.14721110092E+04  0.14721110092E+04  0.00000000000E+00 0. -1.
         25    2    1    2    0    0  0.30036663232E+02  0.13537506349E+03 -0.79873888810E+02  0.20305691898E+03  0.12499466100E+03 0.  0.
          2    1    1    2  501    0  0.49344869215E+02 -0.75631797853E+02 -0.13273459946E+04  0.13304143995E+04  0.00000000000E+00 0. -1.
          1    1    1    2  502    0 -0.79381532447E+02 -0.59743265638E+02  0.13960253952E+04  0.13995562116E+04  0.00000000000E+00 0. -1.
         22    1    3    3    0    0  0.76231376550E+01  0.12175551631E+03 -0.10918931475E+03  0.16372178974E+03  0.00000000000E+00 0.  1.
         22    1    3    3    0    0  0.22413525577E+02  0.13619547176E+02  0.29315425939E+02  0.39335129237E+02  0.00000000000E+00 0.  1.
</event>
<event>
 7    1  0.5064652E-006  0.8524356E+02  0.7818608E-02  0.1492423E+00
          2   -1    0    0  502    0  0.00000000000E+00  0.00000000000E+00  0.66123445040E+03  0.66123445040E+03  0.00000000000E+00 0. -1.
          1   -1    0    0  501    0 -0.00000000000E+00 -0.00000000000E+00 -0.92871586030E+02  0.92871586030E+02  0.00000000000E+00 0. -1.
         25    2    1    2    0    0 -0.61098486881E+02 -0.41643945209E+02  0.11722566263E+03  0.18662538137E+03  0.12497973323E+03 0.  0.
          2    1    1    2  501    0 -0.19008936061E+02  0.87343518187E+01 -0.52467203809E+02  0.56483944864E+02  0.00000000000E+00 0. -1.
          1    1    1    2  502    0  0.80107422942E+02  0.32909593391E+02  0.50360440555E+03  0.51099671020E+03  0.00000000000E+00 0. -1.
         22    1    3    3    0    0 -0.60358037440E+02  0.17134922044E+02  0.11100969001E+03  0.12751411496E+03  0.00000000000E+00 0. -1.
         22    1    3    3    0    0 -0.74044944106E+00 -0.58778867253E+02  0.62159726219E+01  0.59111266410E+02  0.00000000000E+00 0. -1.
</event>
<event>
 7    1  0.5835746E-006  0.5579312E+02  0.7818608E-02  0.1507744E+00
          2   -1    0    0  502    0  0.00000000000E+00  0.00000000000E+00  0.74261266519E+03  0.74261266519E+03  0.00000000000E+00 0. -1.
          1   -1    0    0  501    0 -0.00000000000E+00 -0.00000000000E+00 -0.24622782138E+04  0.24622782138E+04  0.00000000000E+00 0. -1.
         25    2    1    2    0    0 -0.55341681951E+02  0.62279379865E+02 -0.60521378390E+03  0.62357829167E+03  0.12499895481E+03 0.  0.
          2    1    1    2  501    0  0.35343718205E+02 -0.41598107016E+02 -0.18471967413E+04  0.18480030795E+04  0.00000000000E+00 0. -1.
          1    1    1    2  502    0  0.19997963746E+02 -0.20681272849E+02  0.73274497655E+03  0.73330950782E+03  0.00000000000E+00 0. -1.
         22    1    3    3    0    0  0.30544012813E+02  0.21348165556E+02 -0.33575337534E+03  0.33781505287E+03  0.00000000000E+00 0.  1.
         22    1    3    3    0    0 -0.85885694764E+02  0.40931214310E+02 -0.26946040856E+03  0.28576323880E+03  0.00000000000E+00 0.  1.
</event>
<event>
 7    1  0.5064652E-006  0.1602437E+03  0.7818608E-02  0.1242119E+00
          2   -1    0    0  502    0  0.00000000000E+00  0.00000000000E+00  0.40539238717E+03  0.40539238717E+03  0.00000000000E+00 0. -1.
          1   -1    0    0  501    0 -0.00000000000E+00 -0.00000000000E+00 -0.49940921570E+03  0.49940921570E+03  0.00000000000E+00 0. -1.
         25    2    1    2    0    0  0.86066367758E+02  0.17416336670E+02  0.14273089899E+01  0.15276398563E+03  0.12499619855E+03 0.  0.
          2    1    1    2  501    0 -0.17180651298E+03 -0.47171126917E+02 -0.39805612727E+03  0.43610924500E+03  0.00000000000E+00 0. -1.
          1    1    1    2  502    0  0.85740145218E+02  0.29754790247E+02  0.30261198976E+03  0.31592837224E+03  0.00000000000E+00 0. -1.
         22    1    3    3    0    0  0.67229264626E-02 -0.39628258471E+02 -0.24132908130E+02  0.46398234551E+02  0.00000000000E+00 0. -1.
         22    1    3    3    0    0  0.86059644831E+02  0.57044595140E+02  0.25560217120E+02  0.10636575108E+03  0.00000000000E+00 0. -1.
</event>
<event>
 7    1  0.5064652E-006  0.6750842E+02  0.7818608E-02  0.1433286E+00
          2   -1    0    0  502    0  0.00000000000E+00  0.00000000000E+00  0.73067284233E+03  0.73067284233E+03  0.00000000000E+00 0. -1.
          1   -1    0    0  501    0 -0.00000000000E+00 -0.00000000000E+00 -0.39468852694E+02  0.39468852694E+02  0.00000000000E+00 0. -1.
         25    2    1    2    0    0  0.18687216470E+02 -0.60888903347E+02  0.15771856481E+03  0.21109595209E+03  0.12501873736E+03 0.  0.
          2    1    1    2  501    0 -0.40283860182E+02 -0.44322687727E+01  0.28861709944E+02  0.49753720449E+02  0.00000000000E+00 0. -1.
          1    1    1    2  502    0  0.21596643712E+02  0.65321172120E+02  0.50462371489E+03  0.50929202249E+03  0.00000000000E+00 0. -1.
         22    1    3    3    0    0  0.16021602582E+02  0.37572355252E+02  0.35413012016E+02  0.54059735927E+02  0.00000000000E+00 0. -1.
         22    1    3    3    0    0  0.26656138881E+01 -0.98461258598E+02  0.12230555279E+03  0.15703621616E+03  0.00000000000E+00 0. -1.
</event>
<event>
 7    1  0.5064652E-006  0.4952112E+02  0.7818608E-02  0.1512435E+00
          2   -1    0    0  502    0  0.00000000000E+00  0.00000000000E+00  0.86572147314E+03  0.86572147314E+03  0.00000000000E+00 0. -1.
          1   -1    0    0  501    0 -0.00000000000E+00 -0.00000000000E+00 -0.21541830466E+02  0.21541830466E+02  0.00000000000E+00 0. -1.
         25    2    1    2    0    0 -0.24869437227E+02  0.35811444535E+01  0.49269434907E+03  0.50892308535E+03  0.12499468666E+03 0.  0.
          2    1    1    2  501    0  0.43987776934E+02 -0.28487576500E+02  0.41713387529E+02  0.66981140880E+02  0.00000000000E+00 0. -1.
          1    1    1    2  502    0 -0.19118339707E+02  0.24906432047E+02  0.30977190608E+03  0.31135907738E+03  0.00000000000E+00 0. -1.
         22    1    3    3    0    0 -0.39957137523E+02 -0.45311526660E+02  0.13919490640E+03  0.15173967594E+03  0.00000000000E+00 0. -1.
         22    1    3    3    0    0  0.15087700296E+02  0.48892671113E+02  0.35349944267E+03  0.35718340941E+03  0.00000000000E+00 0. -1.
</event>
<event>
 7    1  0.5064652E-006  0.9581359E+02  0.7818608E-02  0.1342737E+00
          2   -1    0    0  502    0  0.00000000000E+00  0.00000000000E+00  0.25402555389E+03  0.25402555389E+03  0.00000000000E+00 0. -1.
          1   -1    0    0  501    0 -0.00000000000E+00 -0.00000000000E+00 -0.13969928780E+04  0.13969928780E+04  0.00000000000E+00 0. -1.
         25    2    1    2    0    0 -0.12844503543E+03 -0.34769323772E+02 -0.57681726052E+03  0.60502171058E+03  0.12500434089E+03 0.  0.
          2    1    1    2  501    0  0.34055930954E+02  0.48526375928E+02 -0.79544583174E+03  0.79765198353E+03  0.00000000000E+00 0. -1.
          1    1    1    2  502    0  0.94389104480E+02 -0.13757052156E+02  0.22929576811E+03  0.24834473782E+03  0.00000000000E+00 0. -1.
         22    1    3    3    0    0 -0.15356991779E+03 -0.30775726318E+02 -0.47934267236E+03  0.50428192763E+03  0.00000000000E+00 0.  1.
         22    1    3    3    0    0  0.25124882358E+02 -0.39935974546E+01 -0.97474588151E+02  0.10073978295E+03  0.00000000000E+00 0.  1.
</event>
<event>
 7    1  0.5064652E-006  0.7232576E+02  0.7818608E-02  0.1478060E+00
          2   -1    0    0  502    0  0.00000000000E+00  0.00000000000E+00  0.16968144014E+03  0.16968144014E+03  0.00000000000E+00 0. -1.
          1   -1    0    0  501    0 -0.00000000000E+00 -0.00000000000E+00 -0.32077876685E+03  0.32077876685E+03  0.00000000000E+00 0. -1.
         25    2    1    2    0    0  0.69816903596E+02  0.43897634189E+02 -0.47328498508E+02  0.15705523179E+03  0.12499982699E+03 0.  0.
          2    1    1    2  501    0 -0.45189369717E+02 -0.55605214474E+02 -0.21096182616E+03  0.22279791541E+03  0.00000000000E+00 0. -1.
          1    1    1    2  502    0 -0.24627533879E+02  0.11707580285E+02  0.10719299796E+03  0.11060705978E+03  0.00000000000E+00 0. -1.
         22    1    3    3    0    0  0.93641579410E+02  0.27655723682E+02 -0.70195791059E+02  0.12025403748E+03  0.00000000000E+00 0.  1.
         22    1    3    3    0    0 -0.23824675814E+02  0.16241910507E+02  0.22867292551E+02  0.36801194317E+02  0.00000000000E+00 0.  1.
</event>
<event>
 7    1  0.5064652E-006  0.9774125E+02  0.7818608E-02  0.1360680E+00
          2   -1    0    0  502    0  0.00000000000E+00  0.00000000000E+00  0.12181525525E+04  0.12181525525E+04  0.00000000000E+00 0. -1.
          1   -1    0    0  501    0 -0.00000000000E+00 -0.00000000000E+00 -0.72040002501E+03  0.72040002501E+03  0.00000000000E+00 0. -1.
         25    2    1    2    0    0 -0.91549158028E+02 -0.80207294478E+02  0.17174139787E+03  0.24481485097E+03  0.12499898035E+03 0.  0.
          2    1    1    2  501    0  0.42254984314E+02  0.87868552224E+02 -0.67976671190E+03  0.68672348786E+03  0.00000000000E+00 0. -1.
          1    1    1    2  502    0  0.49294173713E+02 -0.76612577455E+01  0.10057778415E+04  0.10070142387E+04  0.00000000000E+00 0. -1.
         22    1    3    3    0    0 -0.28377314485E+02 -0.10292915547E+03  0.11490226400E+03  0.15685092698E+03  0.00000000000E+00 0.  1.
         22    1    3    3    0    0 -0.63171843542E+02  0.22721860991E+02  0.56839133868E+02  0.87963923982E+02  0.00000000000E+00 0.  1.
</event>
<event>
 7    1  0.5064652E-006  0.5466149E+02  0.7818608E-02  0.1459980E+00
          2   -1    0    0  502    0  0.00000000000E+00  0.00000000000E+00  0.41930008158E+02  0.41930008158E+02  0.00000000000E+00 0. -1.
          1   -1    0    0  501    0 -0.00000000000E+00 -0.00000000000E+00 -0.18901184340E+04  0.18901184340E+04  0.00000000000E+00 0. -1.
         25    2    1    2    0    0  0.40816762065E+02 -0.69134351649E+02 -0.45560327009E+03  0.47921265179E+03  0.12499943712E+03 0.  0.
          2    1    1    2  501    0 -0.38068685226E+02  0.15429629393E+02 -0.13981684657E+04  0.13987717315E+04  0.00000000000E+00 0. -1.
          1    1    1    2  502    0 -0.27480768396E+01  0.53704722256E+02  0.55833099147E+01  0.54064058935E+02  0.00000000000E+00 0. -1.
         22    1    3    3    0    0  0.61050135585E+02 -0.40225873401E+02 -0.42857076145E+03  0.43476216201E+03  0.00000000000E+00 0.  1.
         22    1    3    3    0    0 -0.20233373519E+02 -0.28908478248E+02 -0.27032508636E+02  0.44450489781E+02  0.00000000000E+00 0.  1.
</event>
<event>
 7    1  0.5064652E-006  0.2478486E+02  0.7818608E-02  0.1684963E+00
          2   -1    0    0  502    0  0.00000000000E+00  0.00000000000E+00  0.69305003802E+03  0.69305003802E+03  0.00000000000E+00 0. -1.
          1   -1    0    0  501    0 -0.00000000000E+00 -0.00000000000E+00 -0.55642114180E+03  0.55642114180E+03  0.00000000000E+00 0. -1.
         25    2    1    2    0    0 -0.41753751007E+02 -0.62093112612E+01  0.35850366089E+03  0.38201032543E+03  0.12500033037E+03 0.  0.
          2    1    1    2  501    0  0.18318455968E+02  0.12380422862E+02 -0.54398807494E+03  0.54443720150E+03  0.00000000000E+00 0. -1.
          1    1    1    2  502    0  0.23435295039E+02 -0.61711116010E+01  0.32211331027E+03  0.32302365289E+03  0.00000000000E+00 0. -1.
         22    1    3    3    0    0 -0.21033223797E+02 -0.57855773901E+02  0.27399369681E+03  0.28082420297E+03  0.00000000000E+00 0. -1.
         22    1    3    3    0    0 -0.20720527210E+02  0.51646462640E+02  0.84509964075E+02  0.10118612246E+03  0.00000000000E+00 0. -1.
</event>
<event>
 7    1  0.5064652E-006  0.1616288E+03  0.7818608E-02  0.1310126E+00
          2   -1    0    0  502    0  0.00000000000E+00  0.00000000000E+00  0.26487158419E+03  0.26487158419E+03  0.00000000000E+00 0. -1.
          1   -1    0    0  501    0 -0.00000000000E+00 -0.00000000000E+00 -0.77619433598E+03  0.77619433598E+03  0.00000000000E+00 0. -1.
         25    2    1    2    0    0 -0.73120577037E+02  0.10697990672E+03 -0.14404853316E+03  0.23057156909E+03  0.12498779674E+03 0.  0.
          2    1    1    2  501    0  0.62282439763E+01  0.46481258960E+02 -0.55614085464E+03  0.55811463756E+03  0.00000000000E+00 0. -1.
          1    1    1    2  502    0  0.66892333061E+02 -0.15346116568E+03  0.18886663602E+03  0.25237971352E+03  0.00000000000E+00 0. -1.
         22    1    3    3    0    0 -0.83256358150E+02  0.20835266804E+02 -0.10454572023E+03  0.13526099635E+03  0.00000000000E+00 0. -1.
         22    1    3    3    0    0  0.10135781113E+02  0.86144639920E+02 -0.39502812937E+02  0.95310572738E+02  0.00000000000E+00 0. -1.
</event>
<event>
 7    1  0.5064652E-006  0.1515975E+03  0.7818608E-02  0.1256740E+00
          2   -1    0    0  502    0  0.00000000000E+00  0.00000000000E+00  0.48148506410E+03  0.48148506410E+03  0.00000000000E+00 0. -1.
          1   -1    0    0  501    0 -0.00000000000E+00 -0.00000000000E+00 -0.12622256579E+04  0.12622256579E+04  0.00000000000E+00 0. -1.
         25    2    1    2    0    0 -0.19481742767E+02 -0.14672648420E+03 -0.20137109796E+03  0.27943555673E+03  0.12500284718E+03 0.  0.
          2    1    1    2  501    0 -0.77775306459E+02  0.28651976664E+02 -0.10068462760E+04  0.10102521257E+04  0.00000000000E+00 0. -1.
          1    1    1    2  502    0  0.97257049226E+02  0.11807450754E+03  0.42747678010E+03  0.45402303959E+03  0.00000000000E+00 0. -1.
         22    1    3    3    0    0 -0.18817886035E+02 -0.13751498835E+02 -0.12277633721E+03  0.12496897828E+03  0.00000000000E+00 0.  1.
         22    1    3    3    0    0 -0.66385673163E+00 -0.13297498536E+03 -0.78594760750E+02  0.15446657844E+03  0.00000000000E+00 0.  1.
</event>
<event>
 7    1  0.5064652E-006  0.1742165E+03  0.7818608E-02  0.1298225E+00
          2   -1    0    0  502    0  0.00000000000E+00  0.00000000000E+00  0.12185319713E+04  0.12185319713E+04  0.00000000000E+00 0. -1.
          1   -1    0    0  501    0 -0.00000000000E+00 -0.00000000000E+00 -0.46328319081E+03  0.46328319081E+03  0.00000000000E+00 0. -1.
         25    2    1    2    0    0  0.17551368919E+02 -0.14445630667E+03  0.19090830219E+03  0.27064025131E+03  0.12499796276E+03 0.  0.
          2    1    1    2  501    0 -0.32951692114E+02 -0.35611400213E+02 -0.41372115614E+03  0.41655633578E+03  0.00000000000E+00 0. -1.
          1    1    1    2  502    0  0.15400323195E+02  0.18006770689E+03  0.97806163444E+03  0.99461857503E+03  0.00000000000E+00 0. -1.
         22    1    3    3    0    0  0.16347792812E+02 -0.13253899302E+03  0.73132656609E+02  0.15225708674E+03  0.00000000000E+00 0.  1.
         22    1    3    3    0    0  0.12035761074E+01 -0.11917313654E+02  0.11777564558E+03  0.11838316457E+03  0.00000000000E+00 0.  1.
</event>
<event>
 7    1  0.5064652E-006  0.1418616E+03  0.7818608E-02  0.1375421E+00
          2   -1    0    0  502    0  0.00000000000E+00  0.00000000000E+00  0.64473077328E+03  0.64473077328E+03  0.00000000000E+00 0. -1.
          1   -1    0    0  501    0 -0.00000000000E+00 -0.00000000000E+00 -0.15112631741E+04  0.15112631741E+04  0.00000000000E+00 0. -1.
         25    2    1    2    0    0 -0.94368738349E+02  0.89088383935E+02 -0.18978600934E+03  0.26169624821E+03  0.12499599216E+03 0.  0.
          2    1    1    2  501    0  0.82754517922E+02 -0.11719482919E+03 -0.12811356992E+04  0.12891437538E+04  0.00000000000E+00 0. -1.
          1    1    1    2  502    0  0.11614220426E+02  0.28106445251E+02  0.60438930769E+03  0.60515394540E+03  0.00000000000E+00 0. -1.
         22    1    3    3    0    0 -0.72309604808E+02  0.97523902471E+02 -0.71122488120E+02  0.14070536172E+03  0.00000000000E+00 0. -1.
         22    1    3    3    0    0 -0.22059133541E+02 -0.84355185360E+01 -0.11866352122E+03  0.12099088649E+03  0.00000000000E+00 0. -1.
</event>
<event>
 7    1  0.5064652E-006  0.5259610E+02  0.7818608E-02  0.1553102E+00
          2   -1    0    0  502    0  0.00000000000E+00  0.00000000000E+00  0.20647654683E+03  0.20647654683E+03  0.00000000000E+00 0. -1.
          1   -1    0    0  501    0 -0.00000000000E+00 -0.00000000000E+00 -0.12508788711E+04  0.12508788711E+04  0.00000000000E+00 0. -1.
         25    2    1    2    0    0  0.67501232347E+01  0.44520262959E+02  0.35768206908E+02  0.13759173769E+03  0.12499801470E+03 0.  0.
          2    1    1    2  501    0 -0.21386235806E+02  0.73921300071E+01 -0.11937835097E+04  0.11939979408E+04  0.00000000000E+00 0. -1.
          1    1    1    2  502    0  0.14636112571E+02 -0.51912392966E+02  0.11361297850E+03  0.12576573944E+03  0.00000000000E+00 0. -1.
         22    1    3    3    0    0  0.11382602600E+02 -0.36530719822E+02  0.41199717347E+02  0.56226985000E+02  0.00000000000E+00 0.  1.
         22    1    3    3    0    0 -0.46324793650E+01  0.81050982781E+02 -0.54315104393E+01  0.81364752691E+02  0.00000000000E+00 0.  1.
</event>
<event>
 7    1  0.5064652E-006  0.8273582E+02  0.7818608E-02  0.1384818E+00
          2   -1    0    0  502    0  0.00000000000E+00  0.00000000000E+00  0.10994599873E+04  0.10994599873E+04  0.00000000000E+00 0. -1.
          1   -1    0    0  501    0 -0.00000000000E+00 -0.00000000000E+00 -0.39963118183E+03  0.39963118183E+03  0.00000000000E+00 0. -1.
         25    2    1    2    0    0 -0.98141224569E+02  0.83425325564E+02 -0.74760805774E+02  0.19443763949E+03  0.12500133065E+03 0.  0.
          2    1    1    2  501    0  0.29468639600E+02 -0.38266810992E+02 -0.26119001030E+03  0.26561809243E+03  0.00000000000E+00 0. -1.
          1    1    1    2  502    0  0.68672584970E+02 -0.45158514572E+02  0.10357796215E+04  0.10390354372E+04  0.00000000000E+00 0. -1.
         22    1    3    3    0    0 -0.78355949880E+02  0.57684192765E+02  0.15490355878E+02  0.98524474634E+02  0.00000000000E+00 0.  1.
         22    1    3    3    0    0 -0.19785274689E+02  0.25741132799E+02 -0.90251161652E+02  0.95913164852E+02  0.00000000000E+00 0.  1.
</event>
<event>
 7    1  0.5064652E-006  0.7939438E+02  0.7818608E-02  0.1420706E+00
          2   -1    0    0  502    0  0.00000000000E+00  0.00000000000E+00  0.23845537971E+03  0.23845537971E+03  0.00000000000E+00 0. -1.
          1   -1    0    0  501    0 -0.00000000000E+00 -0.00000000000E+00 -0.14670609315E+03  0.14670609315E+03  0.00000000000E+00 0. -1.
         25    2    1    2    0    0  0.32843929930E+02  0.70351046716E+02  0.48071065515E+02  0.15479901113E+03  0.12499565192E+03 0.  0.
          2    1    1    2  501    0 -0.36271229598E+02  0.11072246159E+02 -0.76368854939E+02  0.85266633194E+02  0.00000000000E+00 0. -1.
          1    1    1    2  502    0  0.34272996684E+01 -0.81423292875E+02  0.12004707599E+03  0.14509582854E+03  0.00000000000E+00 0. -1.
         22    1    3    3    0    0  0.26640199829E+01 -0.28468626835E+02 -0.16445885649E+02  0.32985252328E+02  0.00000000000E+00 0.  1.
         22    1    3    3    0    0  0.30179909947E+02  0.98819673551E+02  0.64516951163E+02  0.12181375880E+03  0.00000000000E+00 0.  1.
</event>
<event>
 7    1  0.5064652E-006  0.3139416E+02  0.7818608E-02  0.1608297E+00
          2   -1    0    0  502    0  0.00000000000E+00  0.00000000000E+00  0.22969369284E+03  0.22969369284E+03  0.00000000000E+00 0. -1.
          1   -1    0    0  501    0 -0.00000000000E+00 -0.00000000000E+00 -0.29767668715E+03  0.29767668715E+03  0.00000000000E+00 0. -1.
         25    2    1    2    0    0  0.96326300315E+01  0.12989765833E+02 -0.17481228183E+03  0.21551294530E+03  0.12499989654E+03 0.  0.
          2    1    1    2  501    0 -0.21554575450E+02  0.16205109092E+02 -0.99521799948E+02  0.10311059086E+03  0.00000000000E+00 0. -1.
          1    1    1    2  502    0  0.11921945418E+02 -0.29194874926E+02  0.20635108748E+03  0.20874684382E+03  0.00000000000E+00 0. -1.
         22    1    3    3    0    0 -0.43025903671E+02 -0.18095489941E+00 -0.13164867915E+02  0.44995276181E+02  0.00000000000E+00 0.  1.
         22    1    3    3    0    0  0.52658533702E+02  0.13170720733E+02 -0.16164741392E+03  0.17051766912E+03  0.00000000000E+00 0.  1.
</event>
<event>
 7    1  0.5064652E-006  0.1335629E+03  0.7818608E-02  0.1376929E+00
          2   -1    0    0  502    0  0.00000000000E+00  0.00000000000E+00  0.10818524597E+03  0.10818524597E+03  0.00000000000E+00 0. -1.
          1   -1    0    0  501    0 -0.00000000000E+00 -0.00000000000E+00 -0.10146460060E+04  0.10146460060E+04  0.00000000000E+00 0. -1.
         25    2    1    2    0    0  0.33368994659E+02  0.10242337145E+03 -0.21546144184E+03  0.27139037621E+03  0.12500026621E+03 0.  0.
          2    1    1    2  501    0 -0.39258572883E+02 -0.13377916605E+03 -0.76144693371E+03  0.77410563470E+03  0.00000000000E+00 0. -1.
          1    1    1    2  502    0  0.58895782240E+01  0.31355794604E+02  0.70447615491E+02  0.77335241095E+02  0.00000000000E+00 0. -1.
         22    1    3    3    0    0 -0.36059234293E+02  0.49931308322E+02 -0.15100862005E+03  0.16308588921E+03  0.00000000000E+00 0.  1.
         22    1    3    3    0    0  0.69428228952E+02  0.52492063129E+02 -0.64452821791E+02  0.10830448700E+03  0.00000000000E+00 0.  1.
</event>
<event>
 7    1  0.5064652E-006  0.7786884E+02  0.7818608E-02  0.1434803E+00
          2   -1    0    0  502    0  0.00000000000E+00  0.00000000000E+00  0.79365706149E+03  0.79365706149E+03  0.00000000000E+00 0. -1.
          1   -1    0    0  501    0 -0.00000000000E+00 -0.00000000000E+00 -0.17543178285E+03  0.17543178285E+03  0.00000000000E+00 0. -1.
         25    2    1    2    0    0  0.54555482037E+02 -0.11167086675E+02  0.12164047959E+03  0.18308909442E+03  0.12499682306E+03 0.  0.
          2    1    1    2  501    0  0.24231166075E+02  0.24888101089E+02 -0.14008479237E+03  0.14432711470E+03  0.00000000000E+00 0. -1.
          1    1    1    2  502    0 -0.78786648113E+02 -0.13721014414E+02  0.63666959142E+03  0.64167263522E+03  0.00000000000E+00 0. -1.
         22    1    3    3    0    0  0.37593291993E+02  0.83029960894E+01 -0.16984687836E+02  0.42079388872E+02  0.00000000000E+00 0. -1.
         22    1    3    3    0    0  0.16962190044E+02 -0.19470082765E+02  0.13862516743E+03  0.14100970554E+03  0.00000000000E+00 0. -1.
</event>
<event>
 7    1  0.5064652E-006  0.8873116E+02  0.7818608E-02  0.1328525E+00
          2   -1    0    0  502    0  0.00000000000E+00  0.00000000000E+00  0.59147516392E+03  0.59147516392E+03  0.00000000000E+00 0. -1.
          1   -1    0    0  501    0 -0.00000000000E+00 -0.00000000000E+00 -0.29971386315E+04  0.29971386315E+04  0.00000000000E+00 0. -1.
         25    2    1    2    0    0 -0.37419584413E+02  0.85133755486E+02 -0.79413934523E+03  0.80927804787E+03  0.12500271000E+03 0.  0.
          2    1    1    2  501    0 -0.35040625369E+02 -0.84469734663E+02 -0.21922247744E+04  0.21941313642E+04  0.00000000000E+00 0. -1.
          1    1    1    2  502    0  0.72460209782E+02 -0.66402082285E+00  0.58070065212E+03  0.58520438336E+03  0.00000000000E+00 0. -1.
         22    1    3    3    0    0  0.29501985374E+02 -0.11663407712E+02 -0.91283341248E+02  0.96638763495E+02  0.00000000000E+00 0.  1.
         22    1    3    3    0    0 -0.66921569787E+02  0.96797163198E+02 -0.70285600398E+03  0.71263928438E+03  0.00000000000E+00 0.  1.
</event>
<event>
 7    1  0.7912761E-006  0.1185501E+03  0.7818608E-02  0.1257691E+00
          2   -1    0    0  502    0  0.00000000000E+00  0.00000000000E+00  0.65260373845E+03  0.65260373845E+03  0.00000000000E+00 0. -1.
          1   -1    0    0  501    0 -0.00000000000E+00 -0.00000000000E+00 -0.14898357788E+04  0.14898357788E+04  0.00000000000E+00 0. -1.
         25    2    1    2    0    0 -0.18318409090E+02 -0.70444499972E+02 -0.19994492085E+03  0.24678020633E+03  0.12499802869E+03 0.  0.
          2    1    1    2  501    0  0.12047800043E+03  0.46186588526E+02 -0.12587716750E+04  0.12653672507E+04  0.00000000000E+00 0. -1.
          1    1    1    2  502    0 -0.10215959134E+03  0.24257911447E+02  0.62148455549E+03  0.63029206015E+03  0.00000000000E+00 0. -1.
         22    1    3    3    0    0  0.57742862043E+01 -0.65119010572E+01 -0.17318720347E+03  0.17340575158E+03  0.00000000000E+00 0.  1.
         22    1    3    3    0    0 -0.24092695294E+02 -0.63932598915E+02 -0.26757717379E+02  0.73374454750E+02  0.00000000000E+00 0.  1.
</event>
<event>
 7    1  0.5064652E-006  0.5973018E+03  0.7818608E-02  0.1241824E+00
          2   -1    0    0  502    0  0.00000000000E+00  0.00000000000E+00  0.12507877599E+04  0.12507877599E+04  0.00000000000E+00 0. -1.
          1   -1    0    0  501    0 -0.00000000000E+00 -0.00000000000E+00 -0.87587416275E+03  0.87587416275E+03  0.00000000000E+00 0. -1.
         25    2    1    2    0    0 -0.11756535396E+03  0.58010471805E+03  0.78180403276E+03  0.98852674779E+03  0.12499795638E+03 0.  0.
          2    1    1    2  501    0  0.95421540987E+02 -0.59040173579E+03 -0.65607443915E+03  0.88775737103E+03  0.00000000000E+00 0. -1.
          1    1    1    2  502    0  0.22143812977E+02  0.10297017743E+02  0.24918400354E+03  0.25037780382E+03  0.00000000000E+00 0. -1.
         22    1    3    3    0    0 -0.26367958379E+02  0.34980457282E+03  0.52777212806E+03  0.63372070153E+03  0.00000000000E+00 0.  1.
         22    1    3    3    0    0 -0.91197395585E+02  0.23030014523E+03  0.25403190470E+03  0.35480604626E+03  0.00000000000E+00 0.  1.
</event>
<event>
 7    1  0.5064652E-006  0.7609031E+02  0.7818608E-02  0.1378857E+00
          2   -1    0    0  502    0  0.00000000000E+00  0.00000000000E+00  0.12093120506E+04  0.12093120506E+04  0.00000000000E+00 0. -1.
          1   -1    0    0  501    0 -0.00000000000E+00 -0.00000000000E+00 -0.12025279602E+04  0.12025279602E+04  0.00000000000E+00 0. -1.
         25    2    1    2    0    0  0.96108111922E+02 -0.86837895493E+02  0.10351213545E+03  0.20764654787E+03  0.12499894954E+03 0.  0.
          2    1    1    2  501    0 -0.43838997262E+02  0.33421425755E+02 -0.11484736638E+04  0.11497958975E+04  0.00000000000E+00 0. -1.
          1    1    1    2  502    0 -0.52269114660E+02  0.53416469738E+02  0.10517456187E+04  0.10543975655E+04  0.00000000000E+00 0. -1.
         22    1    3    3    0    0  0.10062867382E+03 -0.51467199156E+02  0.12297158880E+03  0.16702399300E+03  0.00000000000E+00 0.  1.
         22    1    3    3    0    0 -0.45205619030E+01 -0.35370696337E+02 -0.19459453353E+02  0.40622554869E+02  0.00000000000E+00 0.  1.
</event>
<event>
 7    1  0.5064652E-006  0.1116731E+03  0.7818608E-02  0.1270366E+00
          2   -1    0    0  502    0  0.00000000000E+00  0.00000000000E+00  0.11745944855E+03  0.11745944855E+03  0.00000000000E+00 0. -1.
          1   -1    0    0  501    0 -0.00000000000E+00 -0.00000000000E+00 -0.70397664311E+03  0.70397664311E+03  0.00000000000E+00 0. -1.
         25    2    1    2    0    0  0.24413145219E+02  0.23478429346E+02 -0.11854772002E+03  0.17557850571E+03  0.12500804550E+03 0.  0.
          2    1    1    2  501    0  0.94171628484E+02 -0.60021493074E+02 -0.50433519921E+03  0.51655093496E+03  0.00000000000E+00 0. -1.
          1    1    1    2  502    0 -0.11858477370E+03  0.36543063729E+02  0.36365724671E+02  0.12930665100E+03  0.00000000000E+00 0. -1.
         22    1    3    3    0    0  0.56034623589E+02 -0.32032055803E+02 -0.70918069313E+02  0.95892148765E+02  0.00000000000E+00 0.  1.
         22    1    3    3    0    0 -0.31621478370E+02  0.55510485149E+02 -0.47629650710E+02  0.79686356941E+02  0.00000000000E+00 0.  1.
</event>
<event>
 7    1  0.5064652E-006  0.1132329E+03  0.7818608E-02  0.1310725E+00
          2   -1    0    0  502    0  0.00000000000E+00  0.00000000000E+00  0.67474207759E+03  0.67474207759E+03  0.00000000000E+00 0. -1.
          1   -1    0    0  501    0 -0.00000000000E+00 -0.00000000000E+00 -0.79880802926E+03  0.79880802926E+03  0.00000000000E+00 0. -1.
         25    2    1    2    0    0  0.31257653106E+02  0.17280191739E+03 -0.58338091604E+02  0.22332482996E+03  0.12503240866E+03 0.  0.
          2    1    1    2  501    0 -0.24080571423E+02 -0.62069947498E+02 -0.65106642173E+03  0.65446163967E+03  0.00000000000E+00 0. -1.
          1    1    1    2  502    0 -0.71770816826E+01 -0.11073196989E+03  0.58533856166E+03  0.59576363721E+03  0.00000000000E+00 0. -1.
         22    1    3    3    0    0  0.47054991868E+02  0.17449686951E+03 -0.20010166191E+02  0.18183436550E+03  0.00000000000E+00 0.  1.
         22    1    3    3    0    0 -0.15797338762E+02 -0.16949521177E+01 -0.38327925413E+02  0.41490464460E+02  0.00000000000E+00 0.  1.
</event>
<event>
 7    1  0.5064652E-006  0.1265268E+03  0.7818608E-02  0.1437803E+00
          2   -1    0    0  502    0  0.00000000000E+00  0.00000000000E+00  0.92262902954E+03  0.92262902954E+03  0.00000000000E+00 0. -1.
          1   -1    0    0  501    0 -0.00000000000E+00 -0.00000000000E+00 -0.10198370789E+04  0.10198370789E+04  0.00000000000E+00 0. -1.
         25    2    1    2    0    0 -0.65162529717E+02  0.91639179802E+02  0.77551482116E+01  0.16831365473E+03  0.12500179795E+03 0.  0.
          2    1    1    2  501    0 -0.20754771285E+02  0.24678145763E+01 -0.93457629044E+03  0.93480997711E+03  0.00000000000E+00 0. -1.
          1    1    1    2  502    0  0.85917301002E+02 -0.94106994378E+02  0.82961309292E+03  0.83934247655E+03  0.00000000000E+00 0. -1.
         22    1    3    3    0    0  0.30802835591E+02 -0.54772005971E+00 -0.13357196161E+02  0.33578704070E+02  0.00000000000E+00 0. -1.
         22    1    3    3    0    0 -0.95965365309E+02  0.92186899862E+02  0.21112344373E+02  0.13473495066E+03  0.00000000000E+00 0. -1.
</event>
<event>
 7    1  0.5064652E-006  0.6388881E+02  0.7818608E-02  0.1484635E+00
          2   -1    0    0  502    0  0.00000000000E+00  0.00000000000E+00  0.68095669737E+03  0.68095669737E+03  0.00000000000E+00 0. -1.
          1   -1    0    0  501    0 -0.00000000000E+00 -0.00000000000E+00 -0.70286110438E+02  0.70286110438E+02  0.00000000000E+00 0. -1.
         25    2    1    2    0    0 -0.71985009642E+02 -0.49970979708E+02  0.14656505277E+03  0.21162717909E+03  0.12500323120E+03 0.  0.
          2    1    1    2  501    0  0.14300099874E+02  0.25769526472E+02 -0.29713355740E+02  0.41850267147E+02  0.00000000000E+00 0. -1.
          1    1    1    2  502    0  0.57684909769E+02  0.24201453236E+02  0.49381888991E+03  0.49776536157E+03  0.00000000000E+00 0. -1.
         22    1    3    3    0    0 -0.76464124654E+02  0.18794925813E+02  0.51023449732E+02  0.93826456919E+02  0.00000000000E+00 0. -1.
         22    1    3    3    0    0  0.44791150117E+01 -0.68765905521E+02  0.95541603038E+02  0.11780072217E+03  0.00000000000E+00 0. -1.
</event>
<event>
 7    1  0.5239853E-006  0.8087605E+02  0.7818608E-02  0.1363196E+00
          2   -1    0    0  502    0  0.00000000000E+00  0.00000000000E+00  0.10843760817E+04  0.10843760817E+04  0.00000000000E+00 0. -1.
          1   -1    0    0  501    0 -0.00000000000E+00 -0.00000000000E+00 -0.18486818851E+04  0.18486818851E+04  0.00000000000E+00 0. -1.
         25    2    1    2    0    0  0.30582157561E+02  0.13850543993E+02 -0.43200688181E+02  0.13644856712E+03  0.12499922432E+03 0.  0.
          2    1    1    2  501    0  0.49028021807E+02 -0.32877293809E+02 -0.17567467119E+04  0.17577382265E+04  0.00000000000E+00 0. -1.
          1    1    1    2  502    0 -0.79610179368E+02  0.19026749816E+02  0.10356415966E+04  0.10388711732E+04  0.00000000000E+00 0. -1.
         22    1    3    3    0    0 -0.30729822052E+02  0.22327647498E+02 -0.61164164284E+02  0.71999311099E+02  0.00000000000E+00 0.  1.
         22    1    3    3    0    0  0.61311979613E+02 -0.84771035055E+01  0.17963476103E+02  0.64449256020E+02  0.00000000000E+00 0.  1.
</event>
<event>
 7    1  0.5064652E-006  0.8737297E+02  0.7818608E-02  0.1392021E+00
          2   -1    0    0  502    0  0.00000000000E+00  0.00000000000E+00  0.67565407259E+03  0.67565407259E+03  0.00000000000E+00 0. -1.
          1   -1    0    0  501    0 -0.00000000000E+00 -0.00000000000E+00 -0.38717603284E+03  0.38717603284E+03  0.00000000000E+00 0. -1.
         25    2    1    2    0    0 -0.59648465313E+02 -0.18113809408E+02  0.17677772468E+03  0.22530238312E+03  0.12499900156E+03 0.  0.
          2    1    1    2  501    0 -0.11551470115E+02 -0.41582804055E+02 -0.35705438826E+03  0.35965316936E+03  0.00000000000E+00 0. -1.
          1    1    1    2  502    0  0.71199935427E+02  0.59696613462E+02  0.46875470334E+03  0.47787455296E+03  0.00000000000E+00 0. -1.
         22    1    3    3    0    0  0.14986838319E+01  0.26531952785E+01 -0.18951644952E+02  0.19195060427E+02  0.00000000000E+00 0. -1.
         22    1    3    3    0    0 -0.61147149144E+02 -0.20767004686E+02  0.19572936963E+03  0.20610732269E+03  0.00000000000E+00 0. -1.
</event>
<event>
 7    1  0.5064652E-006  0.8010002E+02  0.7818608E-02  0.1428409E+00
          2   -1    0    0  502    0  0.00000000000E+00  0.00000000000E+00  0.11065670271E+03  0.11065670271E+03  0.00000000000E+00 0. -1.
          1   -1    0    0  501    0 -0.00000000000E+00 -0.00000000000E+00 -0.71328669993E+03  0.71328669993E+03  0.00000000000E+00 0. -1.
         25    2    1    2    0    0 -0.10962575180E+03 -0.20494776018E+01 -0.24155443932E+03  0.29324796528E+03  0.12499526460E+03 0.  0.
          2    1    1    2  501    0  0.75913405989E+02 -0.88842699141E+01 -0.43872888281E+03  0.44533673560E+03  0.00000000000E+00 0. -1.
          1    1    1    2  502    0  0.33712345813E+02  0.10933747516E+02  0.77653324914E+02  0.85358701754E+02  0.00000000000E+00 0. -1.
         22    1    3    3    0    0 -0.10001204446E+03 -0.27545286008E+02 -0.24473711329E+03  0.26581460915E+03  0.00000000000E+00 0. -1.
         22    1    3    3    0    0 -0.96137073458E+01  0.25495808406E+02  0.31826739693E+01  0.27433356135E+02  0.00000000000E+00 0. -1.
</event>
<event>
 7    1  0.5064652E-006  0.7362170E+02  0.7818608E-02  0.1415271E+00
          2   -1    0    0  502    0  0.00000000000E+00  0.00000000000E+00  0.22924620255E+03  0.22924620255E+03  0.00000000000E+00 0. -1.
          1   -1    0    0  501    0 -0.00000000000E+00 -0.00000000000E+00 -0.24851460942E+03  0.24851460942E+03  0.00000000000E+00 0. -1.
         25    2    1    2    0    0  0.31638306660E+02 -0.38545981210E+02 -0.12048576258E+03  0.18063904085E+03  0.12500747569E+03 0.  0.
          2    1    1    2  501    0 -0.45922439747E+02  0.78730675458E+02 -0.73616560383E+02  0.11716137458E+03  0.00000000000E+00 0. -1.
          1    1    1    2  502    0  0.14284133087E+02 -0.40184694248E+02  0.17483391609E+03  0.17996039655E+03  0.00000000000E+00 0. -1.
         22    1    3    3    0    0  0.22507202315E+02  0.44945662306E+02 -0.39053599906E+02  0.63654303717E+02  0.00000000000E+00 0.  1.
         22    1    3    3    0    0  0.91311043449E+01 -0.83491643516E+02 -0.81432162674E+02  0.11698473713E+03  0.00000000000E+00 0.  1.
</event>
<event>
 7    1  0.5064652E-006  0.1261958E+03  0.7818608E-02  0.1391847E+00
          2   -1    0    0  502    0  0.00000000000E+00  0.00000000000E+00  0.10084514301E+04  0.10084514301E+04  0.00000000000E+00 0. -1.
          1   -1    0    0  501    0 -0.00000000000E+00 -0.00000000000E+00 -0.68823559726E+02  0.68823559726E+02  0.00000000000E+00 0. -1.
         25    2    1    2    0    0 -0.99420612414E+02 -0.33432654934E+02  0.29186508367E+03  0.33438564909E+03  0.12500533854E+03 0.  0.
          2    1    1    2  501    0  0.12117112617E+03  0.53981418819E+02  0.46026668118E+02  0.14040972037E+03  0.00000000000E+00 0. -1.
          1    1    1    2  502    0 -0.21750513761E+02 -0.20548763885E+02  0.60173611857E+03  0.60247962035E+03  0.00000000000E+00 0. -1.
         22    1    3    3    0    0 -0.99230540523E+02 -0.45045658493E+02  0.11988196590E+03  0.16201079368E+03  0.00000000000E+00 0.  1.
         22    1    3    3    0    0 -0.19007189074E+00  0.11613003559E+02  0.17198311777E+03  0.17237485541E+03  0.00000000000E+00 0.  1.
</event>
<event>
 7    1  0.5064652E-006  0.9115881E+02  0.7818608E-02  0.1447375E+00
          2   -1    0    0  502    0  0.00000000000E+00  0.00000000000E+00  0.56178662070E+03  0.56178662070E+03  0.00000000000E+00 0. -1.
          1   -1    0    0  501    0 -0.00000000000E+00 -0.00000000000E+00 -0.50879202470E+03  0.50879202470E+03  0.00000000000E+00 0. -1.
         25    2    1    2    0    0  0.60194360914E+02 -0.64516862089E+02 -0.39623050029E+02  0.15805503176E+03  0.12500248154E+03 0.  0.
          2    1    1    2  501    0  0.19146654243E+02  0.19058018051E+02 -0.40534027373E+03  0.40623951055E+03  0.00000000000E+00 0. -1.
          1    1    1    2  502    0 -0.79341015157E+02  0.45458844038E+02  0.49795791976E+03  0.50628410309E+03  0.00000000000E+00 0. -1.
         22    1    3    3    0    0 -0.16039696109E+02  0.16508032061E+02  0.21174790279E+02  0.31275529046E+02  0.00000000000E+00 0.  1.
         22    1    3    3    0    0  0.76234057023E+02 -0.81024894150E+02 -0.60797840308E+02  0.12677950271E+03  0.00000000000E+00 0.  1.
</event>
<event>
 7    1  0.5064652E-006  0.2609248E+02  0.7818608E-02  0.1667088E+00
          2   -1    0    0  502    0  0.00000000000E+00  0.00000000000E+00  0.39820908903E+03  0.39820908903E+03  0.00000000000E+00 0. -1.
          1   -1    0    0  501    0 -0.00000000000E+00 -0.00000000000E+00 -0.31719056848E+03  0.31719056848E+03  0.00000000000E+00 0. -1.
         25    2    1    2    0    0  0.21723140055E+02  0.44012539579E+02 -0.22680584114E+03  0.26358854964E+03  0.12501614085E+03 0.  0.
          2    1    1    2  501    0 -0.11800845472E+02 -0.19925577689E+02 -0.69670505204E+02  0.73418443837E+02  0.00000000000E+00 0. -1.
          1    1    1    2  502    0 -0.99222945822E+01 -0.24086961890E+02  0.37749486689E+03  0.37839266403E+03  0.00000000000E+00 0. -1.
         22    1    3    3    0    0 -0.30507135300E+02  0.20783952600E+02 -0.84426291262E+01  0.37867347101E+02  0.00000000000E+00 0.  1.
         22    1    3    3    0    0  0.52230275354E+02  0.23228586979E+02 -0.21836321201E+03  0.22572120254E+03  0.00000000000E+00 0.  1.
</event>
<event>
 7    1  0.5064652E-006  0.5572150E+02  0.7818608E-02  0.1497630E+00
          2   -1    0    0  502    0  0.00000000000E+00  0.00000000000E+00  0.91355705981E+03  0.91355705981E+03  0.00000000000E+00 0. -1.
          1   -1    0    0  501    0 -0.00000000000E+00 -0.00000000000E+00 -0.72470654878E+03  0.72470654878E+03  0.00000000000E+00 0. -1.
         25    2    1    2    0    0 -0.12920668089E+01  0.63837729362E+02  0.18191671967E+01  0.14037379882E+03  0.12499827558E+03 0.  0.
          2    1    1    2  501    0 -0.25945078444E+02 -0.49306810463E+02 -0.65396144280E+03  0.65633061587E+03  0.00000000000E+00 0. -1.
          1    1    1    2  502    0  0.27237145253E+02 -0.14530918899E+02  0.84099278663E+03  0.84155919391E+03  0.00000000000E+00 0. -1.
         22    1    3    3    0    0 -0.18300078550E+02  0.86683539979E+02 -0.33751395815E+02  0.94805515123E+02  0.00000000000E+00 0. -1.
         22    1    3    3    0    0  0.17008011741E+02 -0.22845810618E+02  0.35570563011E+02  0.45568283697E+02  0.00000000000E+00 0. -1.
</event>
<event>
 7    1  0.5064652E-006  0.1566755E+03  0.7818608E-02  0.1305053E+00
          2   -1    0    0  502    0  0.00000000000E+00  0.00000000000E+00  0.18644989969E+04  0.18644989969E+04  0.00000000000E+00 0. -1.
          1   -1    0    0  501    0 -0.00000000000E+00 -0.00000000000E+00 -0.95382759390E+02  0.95382759390E+02  0.00000000000E+00 0. -1.
         25    2    1    2    0    0 -0.62732899329E+02 -0.13057394403E+03  0.39822229259E+03  0.44180643417E+03  0.12500783751E+03 0.  0.
          2    1    1    2  501    0  0.41934219669E+02 -0.28437573865E+02 -0.59824526495E+02  0.78397374682E+02  0.00000000000E+00 0. -1.
          1    1    1    2  502    0  0.20798679659E+02  0.15901151789E+03  0.14307184714E+04  0.14396779475E+04  0.00000000000E+00 0. -1.
         22    1    3    3    0    0  0.32030297839E+02 -0.22480362878E+02  0.40668957152E+02  0.56438203113E+02  0.00000000000E+00 0. -1.
         22    1    3    3    0    0 -0.94763197167E+02 -0.10809358115E+03  0.35755333544E+03  0.38536823105E+03  0.00000000000E+00 0. -1.
</event>
<event>
 7    1  0.5064652E-006  0.1331356E+03  0.7818608E-02  0.1373033E+00
          2   -1    0    0  502    0  0.00000000000E+00  0.00000000000E+00  0.31865359718E+03  0.31865359718E+03  0.00000000000E+00 0. -1.
          1   -1    0    0  501    0 -0.00000000000E+00 -0.00000000000E+00 -0.74738104498E+03  0.74738104498E+03  0.00000000000E+00 0. -1.
         25    2    1    2    0    0 -0.10716055344E+03 -0.90373183881E+02  0.11072796451E+02  0.18814493184E+03  0.12500084791E+03 0.  0.
          2    1    1    2  501    0  0.28816215852E+02 -0.16179490754E+02 -0.63841538703E+03  0.63927017497E+03  0.00000000000E+00 0. -1.
          1    1    1    2  502    0  0.78344337592E+02  0.10655267463E+03  0.19861514277E+03  0.23861953534E+03  0.00000000000E+00 0. -1.
         22    1    3    3    0    0 -0.12329198949E+03 -0.57201370377E+02 -0.23097481512E+02  0.13786371929E+03  0.00000000000E+00 0. -1.
         22    1    3    3    0    0  0.16131436041E+02 -0.33171813504E+02  0.34170277963E+02  0.50281212555E+02  0.00000000000E+00 0. -1.
</event>
<event>
 7    1  0.5064652E-006  0.2532956E+03  0.7818608E-02  0.1189837E+00
          2   -1    0    0  502    0  0.00000000000E+00  0.00000000000E+00  0.44493832032E+03  0.44493832032E+03  0.00000000000E+00 0. -1.
          1   -1    0    0  501    0 -0.00000000000E+00 -0.00000000000E+00 -0.13136744151E+04  0.13136744151E+04  0.00000000000E+00 0. -1.
         25    2    1    2    0    0 -0.17023032209E+03  0.64085095264E+02 -0.29134981311E+02  0.22261919699E+03  0.12500079096E+03 0.  0.
          2    1    1    2  501    0  0.26352691933E+03 -0.28646253984E+02 -0.11654437863E+04  0.11952097155E+04  0.00000000000E+00 0. -1.
          1    1    1    2  502    0 -0.93296597243E+02 -0.35438841280E+02  0.32584267281E+03  0.34078382291E+03  0.00000000000E+00 0. -1.
         22    1    3    3    0    0 -0.68686878262E+02  0.84287382400E+02  0.15582875338E+02  0.10984114020E+03  0.00000000000E+00 0.  1.
         22    1    3    3    0    0 -0.10154344382E+03 -0.20202287136E+02 -0.44717856649E+02  0.11277805679E+03  0.00000000000E+00 0.  1.
</event>
<event>
 7    1  0.5064652E-006  0.1476691E+03  0.7818608E-02  0.1407967E+00
          2   -1    0    0  502    0  0.00000000000E+00  0.00000000000E+00  0.14625167621E+04  0.14625167621E+04  0.00000000000E+00 0. -1.
          1   -1    0    0  501    0 -0.00000000000E+00 -0.00000000000E+00 -0.86042758048E+03  0.86042758048E+03  0.00000000000E+00 0. -1.
         25    2    1    2    0    0  0.12693247536E+03 -0.14014630347E+02 -0.31350257134E+02  0.18142724815E+03  0.12499897834E+03 0.  0.
          2    1    1    2  501    0  0.19254737662E+02 -0.11653396810E+02 -0.74990016118E+03  0.75023782784E+03  0.00000000000E+00 0. -1.
          1    1    1    2  502    0 -0.14618721302E+03  0.25668027157E+02  0.13833395999E+04  0.13912792666E+04  0.00000000000E+00 0. -1.
         22    1    3    3    0    0  0.65769735827E+02 -0.70737845242E+01  0.47469660069E+02  0.81419071509E+02  0.00000000000E+00 0. -1.
         22    1    3    3    0    0  0.61162739530E+02 -0.69408458227E+01 -0.78819917204E+02  0.10000817664E+03  0.00000000000E+00 0. -1.
</event>
<event>
 7    1  0.5064652E-006  0.3716043E+03  0.7818608E-02  0.1229634E+00
          2   -1    0    0  502    0  0.00000000000E+00  0.00000000000E+00  0.32911769692E+04  0.32911769692E+04  0.00000000000E+00 0. -1.
          1   -1    0    0  501    0 -0.00000000000E+00 -0.00000000000E+00 -0.82394918186E+03  0.82394918186E+03  0.00000000000E+00 0. -1.
         25    2    1    2    0    0 -0.38809679723E+03  0.48557400645E+02  0.91845899984E+03  0.10060660354E+04  0.12499995180E+03 0.  0.
          2    1    1    2  501    0  0.37072409357E+03 -0.76268239529E+01 -0.73585658374E+03  0.82400208364E+03  0.00000000000E+00 0. -1.
          1    1    1    2  502    0  0.17372703663E+02 -0.40930576692E+02  0.22846253712E+04  0.22850580320E+04  0.00000000000E+00 0. -1.
         22    1    3    3    0    0 -0.12982168152E+03  0.58972395346E+02  0.43603259648E+03  0.45875465948E+03  0.00000000000E+00 0.  1.
         22    1    3    3    0    0 -0.25827511571E+03 -0.10414994701E+02  0.48242640336E+03  0.54731137588E+03  0.00000000000E+00 0.  1.
</event>
<event>
 7    1  0.5064652E-006  0.5558984E+02  0.7818608E-02  0.1511238E+00
          2   -1    0    0  502    0  0.00000000000E+00  0.00000000000E+00  0.31855498262E+03  0.31855498262E+03  0.00000000000E+00 0. -1.
          1   -1    0    0  501    0 -0.00000000000E+00 -0.00000000000E+00 -0.34501149371E+03  0.34501149371E+03  0.00000000000E+00 0. -1.
         25    2    1    2    0    0 -0.30512320540E+02 -0.67586964949E+02 -0.66707186746E+01  0.14549379915E+03  0.12499979027E+03 0.  0.
          2    1    1    2  501    0  0.37453889338E+02  0.40257153360E+02 -0.26530318656E+03  0.27094134609E+03  0.00000000000E+00 0. -1.
          1    1    1    2  502    0 -0.69415687978E+01  0.27329811589E+02  0.24551739415E+03  0.24713133109E+03  0.00000000000E+00 0. -1.
         22    1    3    3    0    0  0.64082879871E+01 -0.86471889013E+02 -0.36840080588E+02  0.94210643147E+02  0.00000000000E+00 0.  1.
         22    1    3    3    0    0 -0.36920608527E+02  0.18884924065E+02  0.30169361913E+02  0.51283155999E+02  0.00000000000E+00 0.  1.
</event>
<event>
 7    1  0.5064652E-006  0.9416928E+02  0.7818608E-02  0.1438744E+00
          2   -1    0    0  502    0  0.00000000000E+00  0.00000000000E+00  0.12740892444E+03  0.12740892444E+03  0.00000000000E+00 0. -1.
          1   -1    0    0  501    0 -0.00000000000E+00 -0.00000000000E+00 -0.15075600885E+04  0.15075600885E+04  0.00000000000E+00 0. -1.
         25    2    1    2    0    0  0.73017893867E+02  0.81559194463E+02 -0.54015841045E+03  0.56514017437E+03  0.12501517223E+03 0.  0.
          2    1    1    2  501    0 -0.45178690854E+02 -0.79950070831E+02 -0.95097410791E+03  0.95539776106E+03  0.00000000000E+00 0. -1.
          1    1    1    2  502    0 -0.27839203013E+02 -0.16091236323E+01  0.11098135428E+03  0.11443107752E+03  0.00000000000E+00 0. -1.
         22    1    3    3    0    0  0.10259874485E+02 -0.12867727972E+00 -0.33885851029E+03  0.33901382211E+03  0.00000000000E+00 0. -1.
         22    1    3    3    0    0  0.62758019382E+02  0.81687871743E+02 -0.20129990016E+03  0.22612635227E+03  0.00000000000E+00 0. -1.
</event>
<event>
 7    1  0.5064652E-006  0.6866233E+02  0.7818608E-02  0.1507545E+00
          2   -1    0    0  502    0  0.00000000000E+00  0.00000000000E+00  0.19961609315E+04  0.19961609315E+04  0.00000000000E+00 0. -1.
          1   -1    0    0  501    0 -0.00000000000E+00 -0.00000000000E+00 -0.65329733387E+02  0.65329733387E+02  0.00000000000E+00 0. -1.
         25    2    1    2    0    0  0.34490259106E+02  0.34632724108E+02  0.26482057682E+03  0.29689108078E+03  0.12500148955E+03 0.  0.
          2    1    1    2  501    0 -0.41526144630E+02 -0.56958513538E+02 -0.23972892699E+02  0.74453962532E+02  0.00000000000E+00 0. -1.
          1    1    1    2  502    0  0.70358855249E+01  0.22325789430E+02  0.16899835140E+04  0.16901456216E+04  0.00000000000E+00 0. -1.
         22    1    3    3    0    0 -0.12772949262E+02  0.24839216325E+02  0.24181306557E+03  0.24342081584E+03  0.00000000000E+00 0. -1.
         22    1    3    3    0    0  0.47263208367E+02  0.97935077823E+01  0.23007511250E+02  0.53470264950E+02  0.00000000000E+00 0. -1.
</event>
<event>
 7    1  0.5064652E-006  0.6076558E+02  0.7818608E-02  0.1515843E+00
          2   -1    0    0  502    0  0.00000000000E+00  0.00000000000E+00  0.89608995972E+03  0.89608995972E+03  0.00000000000E+00 0. -1.
          1   -1    0    0  501    0 -0.00000000000E+00 -0.00000000000E+00 -0.24476369533E+03  0.24476369533E+03  0.00000000000E+00 0. -1.
         25    2    1    2    0    0 -0.13126925178E+02 -0.72823750202E+02  0.34586960033E+03  0.37513534877E+03  0.12500053882E+03 0.  0.
          2    1    1    2  501    0  0.28835962983E+02  0.53366770542E+02 -0.22583440042E+03  0.23383905014E+03  0.00000000000E+00 0. -1.
          1    1    1    2  502    0 -0.15709037805E+02  0.19456979660E+02  0.53129106447E+03  0.53187925614E+03  0.00000000000E+00 0. -1.
         22    1    3    3    0    0 -0.35777195832E+02 -0.64814608531E+02  0.34304793882E+03  0.35094562193E+03  0.00000000000E+00 0.  1.
         22    1    3    3    0    0  0.22650270653E+02 -0.80091416708E+01  0.28216615096E+01  0.24189726841E+02  0.00000000000E+00 0.  1.
</event>
<event>
 7    1  0.5064652E-006  0.8989530E+02  0.7818608E-02  0.1431412E+00
          2   -1    0    0  502    0  0.00000000000E+00  0.00000000000E+00  0.35991743756E+02  0.35991743756E+02  0.00000000000E+00 0. -1.
          1   -1    0    0  501    0 -0.00000000000E+00 -0.00000000000E+00 -0.17525553018E+04  0.17525553018E+04  0.00000000000E+00 0. -1.
         25    2    1    2    0    0 -0.91698461724E+02  0.73901704427E+02 -0.69376402889E+03  0.71470518392E+03  0.12499960937E+03 0.  0.
          2    1    1    2  501    0  0.23226957549E+02 -0.20331504984E+02 -0.97332161319E+03  0.97381097979E+03  0.00000000000E+00 0. -1.
          1    1    1    2  502    0  0.68471504175E+02 -0.53570199443E+02 -0.49477915937E+02  0.10003088182E+03  0.00000000000E+00 0. -1.
         22    1    3    3    0    0 -0.61027589898E+02  0.10361189574E+03 -0.39479068967E+03  0.41269780751E+03  0.00000000000E+00 0.  1.
         22    1    3    3    0    0 -0.30670871825E+02 -0.29710191313E+02 -0.29897333921E+03  0.30200737641E+03  0.00000000000E+00 0.  1.
</event>
<event>
 7    1  0.5064652E-006  0.4443721E+02  0.7818608E-02  0.1557475E+00
          2   -1    0    0  502    0  0.00000000000E+00  0.00000000000E+00  0.21896622589E+04  0.21896622589E+04  0.00000000000E+00 0. -1.
          1   -1    0    0  501    0 -0.00000000000E+00 -0.00000000000E+00 -0.92332299092E+01  0.92332299092E+01  0.00000000000E+00 0. -1.
         25    2    1    2    0    0  0.32039587946E+02  0.34059257383E+02  0.89479299399E+03  0.90469110372E+03  0.12499969142E+03 0.  0.
          2    1    1    2  501    0 -0.43714365671E+02 -0.10776881150E+02  0.11830191691E+03  0.12657973961E+03  0.00000000000E+00 0. -1.
          1    1    1    2  502    0  0.11674777724E+02 -0.23282376233E+02  0.11673341181E+04  0.11676246454E+04  0.00000000000E+00 0. -1.
         22    1    3    3    0    0  0.18340036019E+02  0.61029094704E+02  0.21549284251E+03  0.22471776186E+03  0.00000000000E+00 0.  1.
         22    1    3    3    0    0  0.13699551927E+02 -0.26969837322E+02  0.67930015148E+03  0.67997334187E+03  0.00000000000E+00 0.  1.
</event>
<event>
 7    1  0.5064652E-006  0.1348816E+03  0.7818608E-02  0.1378308E+00
          2   -1    0    0  502    0  0.00000000000E+00  0.00000000000E+00  0.17971469836E+03  0.17971469836E+03  0.00000000000E+00 0. -1.
          1   -1    0    0  501    0 -0.00000000000E+00 -0.00000000000E+00 -0.58253496032E+03  0.58253496032E+03  0.00000000000E+00 0. -1.
         25    2    1    2    0    0 -0.54147417947E+02 -0.99725053704E+02 -0.19502069298E+03  0.25794475509E+03  0.12500158712E+03 0.  0.
          2    1    1    2  501    0  0.75949250847E+01 -0.30300370305E+02 -0.32297008477E+03  0.32447722722E+03  0.00000000000E+00 0. -1.
          1    1    1    2  502    0  0.46552492863E+02  0.13002542401E+03  0.11517051579E+03  0.17982767637E+03  0.00000000000E+00 0. -1.
         22    1    3    3    0    0 -0.68032685870E+01  0.29619504310E+02 -0.26718460955E+02  0.40465734330E+02  0.00000000000E+00 0.  1.
         22    1    3    3    0    0 -0.47344149360E+02 -0.12934455801E+03 -0.16830223202E+03  0.21747902076E+03  0.00000000000E+00 0.  1.
</event>
<event>
 7    1  0.5064652E-006  0.6134978E+02  0.7818608E-02  0.1433192E+00
          2   -1    0    0  502    0  0.00000000000E+00  0.00000000000E+00  0.10980235203E+04  0.10980235203E+04  0.00000000000E+00 0. -1.
          1   -1    0    0  501    0 -0.00000000000E+00 -0.00000000000E+00 -0.26147536853E+02  0.26147536853E+02  0.00000000000E+00 0. -1.
         25    2    1    2    0    0 -0.35827718957E+02 -0.11673151231E+01  0.30762236619E+03  0.33399063829E+03  0.12503294850E+03 0.  0.
          2    1    1    2  501    0 -0.11918166012E+02 -0.43006205437E+02  0.31688826038E+02  0.54733518824E+02  0.00000000000E+00 0. -1.
          1    1    1    2  502    0  0.47745884968E+02  0.44173520560E+02  0.73256479122E+03  0.73544690004E+03  0.00000000000E+00 0. -1.
         22    1    3    3    0    0  0.22705475059E+02  0.43900995277E+02  0.17863754088E+03  0.18534887913E+03  0.00000000000E+00 0.  1.
         22    1    3    3    0    0 -0.58533194016E+02 -0.45068310400E+02  0.12898482531E+03  0.14864175916E+03  0.00000000000E+00 0.  1.
</event>
<event>
 7    1  0.5064652E-006  0.1907239E+03  0.7818608E-02  0.1172623E+00
          2   -1    0    0  502    0  0.00000000000E+00  0.00000000000E+00  0.40993287017E+03  0.40993287017E+03  0.00000000000E+00 0. -1.
          1   -1    0    0  501    0 -0.00000000000E+00 -0.00000000000E+00 -0.18931715072E+04  0.18931715072E+04  0.00000000000E+00 0. -1.
         25    2    1    2    0    0 -0.38062166853E+02  0.29999867090E+03 -0.42311892962E+03  0.53488562568E+03  0.12500029149E+03 0.  0.
          2    1    1    2  501    0  0.10008028019E+03 -0.15167168680E+03 -0.13896930042E+04  0.14015231033E+04  0.00000000000E+00 0. -1.
          1    1    1    2  502    0 -0.62018113337E+02 -0.14832698409E+03  0.32957329680E+03  0.36669564840E+03  0.00000000000E+00 0. -1.
         22    1    3    3    0    0 -0.31499648026E+02  0.22523144109E+03 -0.21234010561E+03  0.31114265270E+03  0.00000000000E+00 0.  1.
         22    1    3    3    0    0 -0.65625188273E+01  0.74767229810E+02 -0.21077882401E+03  0.22374297298E+03  0.00000000000E+00 0.  1.
</event>
<event>
 7    1  0.5064652E-006  0.8878571E+02  0.7818608E-02  0.1343187E+00
          2   -1    0    0  502    0  0.00000000000E+00  0.00000000000E+00  0.26266597331E+04  0.26266597331E+04  0.00000000000E+00 0. -1.
          1   -1    0    0  501    0 -0.00000000000E+00 -0.00000000000E+00 -0.31113178034E+03  0.31113178034E+03  0.00000000000E+00 0. -1.
         25    2    1    2    0    0 -0.72503420822E+00  0.45627586255E+02 -0.93850141189E+02  0.16283152243E+03  0.12499541349E+03 0.  0.
          2    1    1    2  501    0  0.66155231294E+01 -0.10908385050E+03 -0.16602715584E+03  0.19876636552E+03  0.00000000000E+00 0. -1.
          1    1    1    2  502    0 -0.58904889212E+01  0.63456264245E+02  0.25754052498E+04  0.25761936255E+04  0.00000000000E+00 0. -1.
         22    1    3    3    0    0 -0.29827631205E+02  0.36007863770E+02  0.15505644628E+02  0.49261332218E+02  0.00000000000E+00 0. -1.
         22    1    3    3    0    0  0.29102596996E+02  0.96197224849E+01 -0.10935578582E+03  0.11357019021E+03  0.00000000000E+00 0. -1.
</event>
<event>
 7    1  0.5064652E-006  0.1414685E+03  0.7818608E-02  0.1273664E+00
          2   -1    0    0  502    0  0.00000000000E+00  0.00000000000E+00  0.24558124510E+04  0.24558124510E+04  0.00000000000E+00 0. -1.
          1   -1    0    0  501    0 -0.00000000000E+00 -0.00000000000E+00 -0.17936530957E+03  0.17936530957E+03  0.00000000000E+00 0. -1.
         25    2    1    2    0    0  0.32692184795E+02  0.68191003034E+02  0.37049859534E+03  0.39826285580E+03  0.12500120527E+03 0.  0.
          2    1    1    2  501    0 -0.33019144763E+02 -0.14350477279E+03 -0.13189082194E+03  0.19768427516E+03  0.00000000000E+00 0. -1.
          1    1    1    2  502    0  0.32695996832E+00  0.75313769754E+02  0.20378393681E+04  0.20392306296E+04  0.00000000000E+00 0. -1.
         22    1    3    3    0    0  0.15328788590E+02 -0.36464696395E+02  0.87181227727E+02  0.95735115349E+02  0.00000000000E+00 0. -1.
         22    1    3    3    0    0  0.17363396205E+02  0.10465569943E+03  0.28331736762E+03  0.30252774045E+03  0.00000000000E+00 0. -1.
</event>
<event>
 7    1  0.5064652E-006  0.1240800E+03  0.7818608E-02  0.1380998E+00
          2   -1    0    0  502    0  0.00000000000E+00  0.00000000000E+00  0.33744176314E+03  0.33744176314E+03  0.00000000000E+00 0. -1.
          1   -1    0    0  501    0 -0.00000000000E+00 -0.00000000000E+00 -0.16385477470E+04  0.16385477470E+04  0.00000000000E+00 0. -1.
         25    2    1    2    0    0  0.91889054430E+02  0.55708402840E+01 -0.11820989394E+04  0.11922488711E+04  0.12499934176E+03 0.  0.
          2    1    1    2  501    0  0.31432471312E+02  0.10750154656E+02 -0.43908470964E+03  0.44033958295E+03  0.00000000000E+00 0. -1.
          1    1    1    2  502    0 -0.12332152574E+03 -0.16320994940E+02  0.32007766518E+03  0.34340105611E+03  0.00000000000E+00 0. -1.
         22    1    3    3    0    0  0.31375352382E+02 -0.58789601180E+02 -0.47436019334E+03  0.47901797771E+03  0.00000000000E+00 0. -1.
         22    1    3    3    0    0  0.60513702048E+02  0.64360441464E+02 -0.70773874608E+03  0.71323089337E+03  0.00000000000E+00 0. -1.
</event>
<event>
 7    1  0.5064652E-006  0.8710298E+02  0.7818608E-02  0.1347451E+00
          2   -1    0    0  502    0  0.00000000000E+00  0.00000000000E+00  0.70009304007E+03  0.70009304007E+03  0.00000000000E+00 0. -1.
          1   -1    0    0  501    0 -0.00000000000E+00 -0.00000000000E+00 -0.11164041447E+03  0.11164041447E+03  0.00000000000E+00 0. -1.
         25    2    1    2    0    0 -0.17381710881E+02 -0.85439354938E+02  0.10192803772E+03  0.18334667890E+03  0.12499869018E+03 0.  0.
          2    1    1    2  501    0 -0.44913112873E+02  0.79033896894E+02 -0.39163755003E+02  0.98981535006E+02  0.00000000000E+00 0. -1.
          1    1    1    2  502    0  0.62294823754E+02  0.64054580436E+01  0.52568834289E+03  0.52940524063E+03  0.00000000000E+00 0. -1.
         22    1    3    3    0    0  0.93800407724E+01 -0.10598716574E+03  0.10497503278E+03  0.14946913384E+03  0.00000000000E+00 0.  1.
         22    1    3    3    0    0 -0.26761751654E+02  0.20547810798E+02 -0.30469950614E+01  0.33877545057E+02  0.00000000000E+00 0.  1.
</event>
<event>
 7    1  0.5064652E-006  0.5646710E+02  0.7818608E-02  0.1509964E+00
          2   -1    0    0  502    0  0.00000000000E+00  0.00000000000E+00  0.34795804756E+03  0.34795804756E+03  0.00000000000E+00 0. -1.
          1   -1    0    0  501    0 -0.00000000000E+00 -0.00000000000E+00 -0.19936378043E+03  0.19936378043E+03  0.00000000000E+00 0. -1.
         25    2    1    2    0    0 -0.99833606599E+01  0.61463654559E+02  0.40463776896E+02  0.14538998623E+03  0.12499392999E+03 0.  0.
          2    1    1    2  501    0 -0.23170268295E+02 -0.15720763884E+02 -0.14239181193E+03  0.14511868197E+03  0.00000000000E+00 0. -1.
          1    1    1    2  502    0  0.33153628955E+02 -0.45742890675E+02  0.25052230216E+03  0.25681315979E+03  0.00000000000E+00 0. -1.
         22    1    3    3    0    0 -0.37060175679E+02  0.75007208728E+02 -0.12294942393E+02  0.84561832945E+02  0.00000000000E+00 0.  1.
         22    1    3    3    0    0  0.27076815020E+02 -0.13543554169E+02  0.52758719288E+02  0.60828153285E+02  0.00000000000E+00 0.  1.
</event>
<event>
 7    1  0.5064652E-006  0.2601121E+02  0.7818608E-02  0.1682264E+00
          2   -1    0    0  502    0  0.00000000000E+00  0.00000000000E+00  0.36991524353E+03  0.36991524353E+03  0.00000000000E+00 0. -1.
          1   -1    0    0  501    0 -0.00000000000E+00 -0.00000000000E+00 -0.26904370332E+03  0.26904370332E+03  0.00000000000E+00 0. -1.
         25    2    1    2    0    0  0.16461507953E+02  0.18658454643E+02 -0.15379892571E+03  0.19974429488E+03  0.12499821844E+03 0.  0.
          2    1    1    2  501    0 -0.26780919055E+02  0.63494852872E-01 -0.89990700888E+02  0.93891149228E+02  0.00000000000E+00 0. -1.
          1    1    1    2  502    0  0.10319411102E+02 -0.18721949496E+02  0.34466116681E+03  0.34532350274E+03  0.00000000000E+00 0. -1.
         22    1    3    3    0    0  0.48226028436E+02  0.58260909405E+02 -0.10433671992E+03  0.12886517957E+03  0.00000000000E+00 0.  1.
         22    1    3    3    0    0 -0.31764520483E+02 -0.39602454762E+02 -0.49462205794E+02  0.70879115307E+02  0.00000000000E+00 0.  1.
</event>
<event>
 7    1  0.5064652E-006  0.6338382E+02  0.7818608E-02  0.1429889E+00
          2   -1    0    0  502    0  0.00000000000E+00  0.00000000000E+00  0.10899028803E+04  0.10899028803E+04  0.00000000000E+00 0. -1.
          1   -1    0    0  501    0 -0.00000000000E+00 -0.00000000000E+00 -0.95099508142E+03  0.95099508142E+03  0.00000000000E+00 0. -1.
         25    2    1    2    0    0 -0.34159832221E+02 -0.69693027618E+02  0.72300731152E+02  0.16394814809E+03  0.12501034877E+03 0.  0.
          2    1    1    2  501    0  0.43722795808E+02  0.70506733575E+01 -0.90359542512E+03  0.90468010212E+03  0.00000000000E+00 0. -1.
          1    1    1    2  502    0 -0.95629635868E+01  0.62642354260E+02  0.97020249287E+03  0.97226971154E+03  0.00000000000E+00 0. -1.
         22    1    3    3    0    0  0.44140529932E+02 -0.29290123799E+01  0.20986801081E+02  0.48963367080E+02  0.00000000000E+00 0.  1.
         22    1    3    3    0    0 -0.78300362153E+02 -0.66764015238E+02  0.51313930072E+02  0.11498478101E+03  0.00000000000E+00 0.  1.
</event>
<event>
 7    1  0.5064652E-006  0.7703429E+02  0.7818608E-02  0.1428139E+00
          2   -1    0    0  502    0  0.00000000000E+00  0.00000000000E+00  0.14000166049E+04  0.14000166049E+04  0.00000000000E+00 0. -1.
          1   -1    0    0  501    0 -0.00000000000E+00 -0.00000000000E+00 -0.55153681430E+03  0.55153681430E+03  0.00000000000E+00 0. -1.
         25    2    1    2    0    0 -0.93892406574E+02  0.27845055021E+02 -0.64683933774E+02  0.17146895511E+03  0.12500584057E+03 0.  0.
          2    1    1    2  501    0  0.61247814712E+02 -0.45106074337E+02 -0.42986761819E+03  0.43654555537E+03  0.00000000000E+00 0. -1.
          1    1    1    2  502    0  0.32644591862E+02  0.17261019316E+02  0.13430313425E+04  0.13435389087E+04  0.00000000000E+00 0. -1.
         22    1    3    3    0    0 -0.41232666052E+02  0.58134522366E+02  0.13415924225E+02  0.72524081954E+02  0.00000000000E+00 0.  1.
         22    1    3    3    0    0 -0.52659740522E+02 -0.30289467346E+02 -0.78099858000E+02  0.98944873154E+02  0.00000000000E+00 0.  1.
</event>
<event>
 7    1  0.5064652E-006  0.7903970E+02  0.7818608E-02  0.1354777E+00
          2   -1    0    0  502    0  0.00000000000E+00  0.00000000000E+00  0.68796542275E+03  0.68796542275E+03  0.00000000000E+00 0. -1.
          1   -1    0    0  501    0 -0.00000000000E+00 -0.00000000000E+00 -0.10301654688E+04  0.10301654688E+04  0.00000000000E+00 0. -1.
         25    2    1    2    0    0 -0.16752682804E+02 -0.24226381802E+02  0.84306313183E+02  0.15362423506E+03  0.12500112479E+03 0.  0.
          2    1    1    2  501    0  0.26013289101E+02 -0.59390663043E+02 -0.99133201394E+03  0.99345010137E+03  0.00000000000E+00 0. -1.
          1    1    1    2  502    0 -0.92606062974E+01  0.83617044845E+02  0.56482565466E+03  0.57105655515E+03  0.00000000000E+00 0. -1.
         22    1    3    3    0    0 -0.17888679884E+02 -0.46956137505E+02 -0.14445924280E+02  0.52283538955E+02  0.00000000000E+00 0.  1.
         22    1    3    3    0    0  0.11359970808E+01  0.22729755703E+02  0.98752237463E+02  0.10134069611E+03  0.00000000000E+00 0.  1.
</event>
<event>
 7    1  0.5064652E-006  0.3415849E+02  0.7818608E-02  0.1632980E+00
          2   -1    0    0  502    0  0.00000000000E+00  0.00000000000E+00  0.91781950352E+03  0.91781950352E+03  0.00000000000E+00 0. -1.
          1   -1    0    0  501    0 -0.00000000000E+00 -0.00000000000E+00 -0.12266563481E+02  0.12266563481E+02  0.00000000000E+00 0. -1.
         25    2    1    2    0    0  0.14787929460E+02 -0.45780035101E+01  0.63668093835E+03  0.64902011734E+03  0.12499941790E+03 0.  0.
          2    1    1    2  501    0 -0.35884405713E+02  0.71737822416E+00  0.52278975276E+02  0.63413693007E+02  0.00000000000E+00 0. -1.
          1    1    1    2  502    0  0.21096476253E+02  0.38606252860E+01  0.21659302641E+03  0.21765225666E+03  0.00000000000E+00 0. -1.
         22    1    3    3    0    0 -0.24670801786E+02  0.28731187021E+02  0.52055486739E+03  0.52193055049E+03  0.00000000000E+00 0. -1.
         22    1    3    3    0    0  0.39458731246E+02 -0.33309190531E+02  0.11612607096E+03  0.12708956685E+03  0.00000000000E+00 0. -1.
</event>
<event>
 7    1  0.5064652E-006  0.1001124E+03  0.7818608E-02  0.1286730E+00
          2   -1    0    0  502    0  0.00000000000E+00  0.00000000000E+00  0.46617325424E+03  0.46617325424E+03  0.00000000000E+00 0. -1.
          1   -1    0    0  501    0 -0.00000000000E+00 -0.00000000000E+00 -0.18465753320E+03  0.18465753320E+03  0.00000000000E+00 0. -1.
         25    2    1    2    0    0 -0.79106889923E+02  0.62818304591E+01  0.13189268633E+03  0.19828711640E+03  0.12499895358E+03 0.  0.
          2    1    1    2  501    0  0.16264098263E+02  0.92570443859E+02 -0.12359607787E+03  0.15527330239E+03  0.00000000000E+00 0. -1.
          1    1    1    2  502    0  0.62842791660E+02 -0.98852274318E+02  0.27321911258E+03  0.29727036865E+03  0.00000000000E+00 0. -1.
         22    1    3    3    0    0 -0.99763655953E+01  0.52826477281E+02  0.90429942660E+02  0.10520332268E+03  0.00000000000E+00 0. -1.
         22    1    3    3    0    0 -0.69130524328E+02 -0.46544646822E+02  0.41462743669E+02  0.93083793725E+02  0.00000000000E+00 0. -1.
</event>
<event>
 7    1  0.5064652E-006  0.8721333E+02  0.7818608E-02  0.1370265E+00
          2   -1    0    0  502    0  0.00000000000E+00  0.00000000000E+00  0.95140862185E+02  0.95140862185E+02  0.00000000000E+00 0. -1.
          1   -1    0    0  501    0 -0.00000000000E+00 -0.00000000000E+00 -0.17539244541E+04  0.17539244541E+04  0.00000000000E+00 0. -1.
         25    2    1    2    0    0 -0.27553800901E+02  0.27659088356E+02 -0.80744037359E+03  0.81799074597E+03  0.12499866586E+03 0.  0.
          2    1    1    2  501    0 -0.48470280047E+02  0.17741944746E+02 -0.91849415057E+03  0.91994328590E+03  0.00000000000E+00 0. -1.
          1    1    1    2  502    0  0.76024080948E+02 -0.45401033101E+02  0.67150932199E+02  0.11113128446E+03  0.00000000000E+00 0. -1.
         22    1    3    3    0    0  0.14015433482E+02  0.48554317341E+01 -0.70450035173E+03  0.70465647885E+03  0.00000000000E+00 0. -1.
         22    1    3    3    0    0 -0.41569234383E+02  0.22803656622E+02 -0.10294002186E+03  0.11333426712E+03  0.00000000000E+00 0. -1.
</event>
<event>
 7    1  0.5064652E-006  0.7633842E+02  0.7818608E-02  0.1410372E+00
          2   -1    0    0  502    0  0.00000000000E+00  0.00000000000E+00  0.22393862685E+03  0.22393862685E+03  0.00000000000E+00 0. -1.
          1   -1    0    0  501    0 -0.00000000000E+00 -0.00000000000E+00 -0.46255239786E+03  0.46255239786E+03  0.00000000000E+00 0. -1.
         25    2    1    2    0    0 -0.18720014597E+02  0.35151137361E+02 -0.34230099441E+03  0.36658120213E+03  0.12500306227E+03 0.  0.
          2    1    1    2  501    0  0.10144455463E+02  0.41504674205E+02 -0.96413749945E+02  0.10545690654E+03  0.00000000000E+00 0. -1.
          1    1    1    2  502    0  0.85755591341E+01 -0.76655811567E+02  0.20010097335E+03  0.21445291604E+03  0.00000000000E+00 0. -1.
         22    1    3    3    0    0 -0.60924718789E+02 -0.71107267940E+01 -0.10247609979E+03  0.11943087886E+03  0.00000000000E+00 0.  1.
         22    1    3    3    0    0  0.42204704192E+02  0.42261864155E+02 -0.23982489462E+03  0.24715032328E+03  0.00000000000E+00 0.  1.
</event>
<event>
 7    1  0.5064652E-006  0.1170889E+03  0.7818608E-02  0.1354900E+00
          2   -1    0    0  502    0  0.00000000000E+00  0.00000000000E+00  0.89081359106E+03  0.89081359106E+03  0.00000000000E+00 0. -1.
          1   -1    0    0  501    0 -0.00000000000E+00 -0.00000000000E+00 -0.42707827405E+03  0.42707827405E+03  0.00000000000E+00 0. -1.
         25    2    1    2    0    0 -0.11735832068E+03 -0.54994922453E+02  0.70672999785E+02  0.19343915209E+03  0.12500646276E+03 0.  0.
          2    1    1    2  501    0  0.11614824609E+03  0.11289120946E+02 -0.35573166231E+03  0.37438332614E+03  0.00000000000E+00 0. -1.
          1    1    1    2  502    0  0.12100745875E+01  0.43705801507E+02  0.74879397953E+03  0.75006938689E+03  0.00000000000E+00 0. -1.
         22    1    3    3    0    0 -0.36974394637E+02  0.16185451808E+02  0.75876382976E+02  0.85943587327E+02  0.00000000000E+00 0.  1.
         22    1    3    3    0    0 -0.80383926046E+02 -0.71180374262E+02 -0.52033831911E+01  0.10749556476E+03  0.00000000000E+00 0.  1.
</event>
<event>
 7    1  0.5064652E-006  0.8225037E+02  0.7818608E-02  0.1420691E+00
          2   -1    0    0  502    0  0.00000000000E+00  0.00000000000E+00  0.17014821184E+03  0.17014821184E+03  0.00000000000E+00 0. -1.
          1   -1    0    0  501    0 -0.00000000000E+00 -0.00000000000E+00 -0.65236998301E+03  0.65236998301E+03  0.00000000000E+00 0. -1.
         25    2    1    2    0    0  0.10983502436E+03  0.42863383967E+02  0.37001450118E+02  0.17577075100E+03  0.12500098934E+03 0.  0.
          2    1    1    2  501    0 -0.75738049979E+02 -0.29530997413E+02 -0.57462233163E+03  0.58034399801E+03  0.00000000000E+00 0. -1.
          1    1    1    2  502    0 -0.34096974379E+02 -0.13332386554E+02  0.55399110340E+02  0.66403445840E+02  0.00000000000E+00 0. -1.
         22    1    3    3    0    0  0.85518020840E+02  0.76989068262E+01  0.78390252788E+02  0.11626537226E+03  0.00000000000E+00 0. -1.
         22    1    3    3    0    0  0.24317003517E+02  0.35164477140E+02 -0.41388802670E+02  0.59505378741E+02  0.00000000000E+00 0. -1.
</event>
<event>
 7    1  0.5064652E-006  0.8796252E+02  0.7818608E-02  0.1333005E+00
          2   -1    0    0  502    0  0.00000000000E+00  0.00000000000E+00  0.44309973598E+03  0.44309973598E+03  0.00000000000E+00 0. -1.
          1   -1    0    0  501    0 -0.00000000000E+00 -0.00000000000E+00 -0.27258315064E+03  0.27258315064E+03  0.00000000000E+00 0. -1.
         25    2    1    2    0    0 -0.72505647589E+02 -0.12920653070E+03 -0.47829017035E+02  0.19965993097E+03  0.12500030662E+03 0.  0.
          2    1    1    2  501    0  0.28980348291E+02  0.74033032702E+02 -0.13450380687E+03  0.15624347852E+03  0.00000000000E+00 0. -1.
          1    1    1    2  502    0  0.43525299298E+02  0.55173498001E+02  0.35284940925E+03  0.35977947714E+03  0.00000000000E+00 0. -1.
         22    1    3    3    0    0 -0.20188803781E+02 -0.13358583651E+03 -0.56514054313E+02  0.14644658360E+03  0.00000000000E+00 0. -1.
         22    1    3    3    0    0 -0.52316843808E+02  0.43793058044E+01  0.86850372784E+01  0.53213347366E+02  0.00000000000E+00 0. -1.
</event>
<event>
 7    1  0.5064652E-006  0.9758451E+02  0.7818608E-02  0.1389829E+00
          2   -1    0    0  502    0  0.00000000000E+00  0.00000000000E+00  0.30853117747E+04  0.30853117747E+04  0.00000000000E+00 0. -1.
          1   -1    0    0  501    0 -0.00000000000E+00 -0.00000000000E+00 -0.89036092654E+02  0.89036092654E+02  0.00000000000E+00 0. -1.
         25    2    1    2    0    0 -0.11089626510E+03  0.75183668990E+02  0.36638911194E+03  0.40965423694E+03  0.12500018723E+03 0.  0.
          2    1    1    2  501    0  0.36786200408E+02 -0.13906681944E+02 -0.60734134872E+02  0.72355065350E+02  0.00000000000E+00 0. -1.
          1    1    1    2  502    0  0.74110064688E+02 -0.61276987046E+02  0.26906207049E+04  0.26923385650E+04  0.00000000000E+00 0. -1.
         22    1    3    3    0    0 -0.11158209544E+03  0.23008657810E+02  0.15775125889E+03  0.19459039554E+03  0.00000000000E+00 0. -1.
         22    1    3    3    0    0  0.68583033961E+00  0.52175011180E+02  0.20863785305E+03  0.21506384140E+03  0.00000000000E+00 0. -1.
</event>
<event>
 7    1  0.5064652E-006  0.9111414E+02  0.7818608E-02  0.1310765E+00
          2   -1    0    0  502    0  0.00000000000E+00  0.00000000000E+00  0.51150832961E+03  0.51150832961E+03  0.00000000000E+00 0. -1.
          1   -1    0    0  501    0 -0.00000000000E+00 -0.00000000000E+00 -0.60116107739E+03  0.60116107739E+03  0.00000000000E+00 0. -1.
         25    2    1    2    0    0 -0.57566420824E+02  0.61918714892E+02 -0.51859246947E+02  0.15956991162E+03  0.12500142056E+03 0.  0.
          2    1    1    2  501    0  0.93674976535E+02  0.12492763277E+02 -0.48713092896E+03  0.49621327301E+03  0.00000000000E+00 0. -1.
          1    1    1    2  502    0 -0.36108555711E+02 -0.74411478168E+02  0.44933742812E+03  0.45688622237E+03  0.00000000000E+00 0. -1.
         22    1    3    3    0    0  0.33883656183E+02  0.24664364609E+02 -0.43602443934E+02  0.60478146094E+02  0.00000000000E+00 0.  1.
         22    1    3    3    0    0 -0.91450077007E+02  0.37254350283E+02 -0.82568030132E+01  0.99091765529E+02  0.00000000000E+00 0.  1.
</event>
<event>
 7    1  0.6824571E-006  0.8883154E+02  0.7818608E-02  0.1355124E+00
          2   -1    0    0  502    0  0.00000000000E+00  0.00000000000E+00  0.18811898077E+04  0.18811898077E+04  0.00000000000E+00 0. -1.
          1   -1    0    0  501    0 -0.00000000000E+00 -0.00000000000E+00 -0.47482189244E+03  0.47482189244E+03  0.00000000000E+00 0. -1.
         25    2    1    2    0    0  0.36314817312E+02  0.21593712572E+02 -0.20720117645E+03  0.24564675943E+03  0.12499979407E+03 0.  0.
          2    1    1    2  501    0  0.52755833785E+02 -0.22924278161E+02 -0.24398614318E+03  0.25067496603E+03  0.00000000000E+00 0. -1.
          1    1    1    2  502    0 -0.89070651097E+02  0.13305655890E+01  0.18575552349E+04  0.18596899747E+04  0.00000000000E+00 0. -1.
         22    1    3    3    0    0 -0.43317592204E+02 -0.33142340751E+01 -0.41284292690E+02  0.59931550662E+02  0.00000000000E+00 0.  1.
         22    1    3    3    0    0  0.79632409516E+02  0.24907946647E+02 -0.16591688376E+03  0.18571520877E+03  0.00000000000E+00 0.  1.
</event>
<event>
 7    1  0.5064652E-006  0.1066622E+03  0.7818608E-02  0.1393337E+00
          2   -1    0    0  502    0  0.00000000000E+00  0.00000000000E+00  0.98065936681E+03  0.98065936681E+03  0.00000000000E+00 0. -1.
          1   -1    0    0  501    0 -0.00000000000E+00 -0.00000000000E+00 -0.53262678725E+03  0.53262678725E+03  0.00000000000E+00 0. -1.
         25    2    1    2    0    0  0.77196869283E+02 -0.20047984872E+02 -0.15125201031E+03  0.21181028056E+03  0.12500058400E+03 0.  0.
          2    1    1    2  501    0  0.29932040661E+02  0.18106346194E+02 -0.34719394538E+03  0.34895186278E+03  0.00000000000E+00 0. -1.
          1    1    1    2  502    0 -0.10712890994E+03  0.19416386780E+01  0.94647853525E+03  0.95252401072E+03  0.00000000000E+00 0. -1.
         22    1    3    3    0    0  0.49203337394E+02  0.58564617713E+00  0.70715589674E+01  0.49712355993E+02  0.00000000000E+00 0.  1.
         22    1    3    3    0    0  0.27993531889E+02 -0.20633631049E+02 -0.15832356928E+03  0.16209792456E+03  0.00000000000E+00 0.  1.
</event>
<event>
 7    1  0.5064652E-006  0.1247538E+03  0.7818608E-02  0.1325370E+00
          2   -1    0    0  502    0  0.00000000000E+00  0.00000000000E+00  0.15342355119E+04  0.15342355119E+04  0.00000000000E+00 0. -1.
          1   -1    0    0  501    0 -0.00000000000E+00 -0.00000000000E+00 -0.82883962804E+03  0.82883962804E+03  0.00000000000E+00 0. -1.
         25    2    1    2    0    0  0.61193983280E+02  0.55496345366E+02  0.12168189258E+03  0.19300728185E+03  0.12498311857E+03 0.  0.
          2    1    1    2  501    0 -0.64680768320E+02 -0.10837829511E+03 -0.78764108347E+03  0.79768912053E+03  0.00000000000E+00 0. -1.
          1    1    1    2  502    0  0.34867850401E+01  0.52881949747E+02  0.13713550747E+04  0.13723787375E+04  0.00000000000E+00 0. -1.
         22    1    3    3    0    0  0.68671831258E+02 -0.10485665655E+02  0.21319772932E+02  0.72665688674E+02  0.00000000000E+00 0.  1.
         22    1    3    3    0    0 -0.74778479785E+01  0.65982011020E+02  0.10036211964E+03  0.12034159318E+03  0.00000000000E+00 0.  1.
</event>
<event>
 7    1  0.5064652E-006  0.3592346E+02  0.7818608E-02  0.1573830E+00
          2   -1    0    0  502    0  0.00000000000E+00  0.00000000000E+00  0.29189452573E+04  0.29189452573E+04  0.00000000000E+00 0. -1.
          1   -1    0    0  501    0 -0.00000000000E+00 -0.00000000000E+00 -0.10007251435E+03  0.10007251435E+03  0.00000000000E+00 0. -1.
         25    2    1    2    0    0 -0.55517981849E+02  0.10429289938E+02  0.11090864079E+04  0.11175342940E+04  0.12497688498E+03 0.  0.
          2    1    1    2  501    0  0.27101329979E+02  0.10510335173E+02 -0.93468004592E+02  0.97883691770E+02  0.00000000000E+00 0. -1.
          1    1    1    2  502    0  0.28416651870E+02 -0.20939625110E+02  0.18032543397E+04  0.18035997858E+04  0.00000000000E+00 0. -1.
         22    1    3    3    0    0 -0.18693102929E+02  0.42070310031E+02  0.95208239949E+03  0.95319475371E+03  0.00000000000E+00 0.  1.
         22    1    3    3    0    0 -0.36824878920E+02 -0.31641020093E+02  0.15700400838E+03  0.16433954031E+03  0.00000000000E+00 0.  1.
</event>
<event>
 7    1  0.5064652E-006  0.1683495E+03  0.7818608E-02  0.1283200E+00
          2   -1    0    0  502    0  0.00000000000E+00  0.00000000000E+00  0.93015106908E+03  0.93015106908E+03  0.00000000000E+00 0. -1.
          1   -1    0    0  501    0 -0.00000000000E+00 -0.00000000000E+00 -0.53198626750E+03  0.53198626750E+03  0.00000000000E+00 0. -1.
         25    2    1    2    0    0  0.16439024304E+03  0.51619027208E+02  0.20489135361E+03  0.29545052296E+03  0.12498747439E+03 0.  0.
          2    1    1    2  501    0 -0.28985332449E+02  0.49990365611E+02 -0.47438950687E+03  0.47789600373E+03  0.00000000000E+00 0. -1.
          1    1    1    2  502    0 -0.13540491060E+03 -0.10160939282E+03  0.66766295484E+03  0.68879080989E+03  0.00000000000E+00 0. -1.
         22    1    3    3    0    0  0.31137728975E+02  0.46824477851E+00  0.13114569215E+03  0.13479232170E+03  0.00000000000E+00 0. -1.
         22    1    3    3    0    0  0.13325251407E+03  0.51150782429E+02  0.73745661459E+02  0.16065820126E+03  0.00000000000E+00 0. -1.
</event>
<event>
 7    1  0.5064652E-006  0.3083406E+02  0.7818608E-02  0.1599100E+00
          2   -1    0    0  502    0  0.00000000000E+00  0.00000000000E+00  0.40135462550E+03  0.40135462550E+03  0.00000000000E+00 0. -1.
          1   -1    0    0  501    0 -0.00000000000E+00 -0.00000000000E+00 -0.52215143198E+02  0.52215143198E+02  0.00000000000E+00 0. -1.
         25    2    1    2    0    0 -0.32439830705E+02 -0.96621784165E+01  0.20751490996E+03  0.24460842870E+03  0.12500058092E+03 0.  0.
          2    1    1    2  501    0  0.68640357329E+01  0.28187463856E+02 -0.25654576602E+02  0.38727321180E+02  0.00000000000E+00 0. -1.
          1    1    1    2  502    0  0.25575794973E+02 -0.18525285440E+02  0.16727914895E+03  0.17023401882E+03  0.00000000000E+00 0. -1.
         22    1    3    3    0    0  0.21464788334E+02 -0.43148506393E+02  0.31680222505E+02  0.57672933341E+02  0.00000000000E+00 0. -1.
         22    1    3    3    0    0 -0.53904619039E+02  0.33486327977E+02  0.17583468745E+03  0.18693549536E+03  0.00000000000E+00 0. -1.
</event>
<event>
 7    1  0.5064652E-006  0.2418625E+03  0.7818608E-02  0.1178933E+00
          2   -1    0    0  502    0  0.00000000000E+00  0.00000000000E+00  0.12561345668E+03  0.12561345668E+03  0.00000000000E+00 0. -1.
          1   -1    0    0  501    0 -0.00000000000E+00 -0.00000000000E+00 -0.14159724736E+04  0.14159724736E+04  0.00000000000E+00 0. -1.
         25    2    1    2    0    0 -0.45875903654E+02  0.32750740925E+03 -0.59409163187E+03  0.69132319059E+03  0.12496873662E+03 0.  0.
          2    1    1    2  501    0  0.22817833725E+02 -0.21174496344E+03 -0.70049127662E+03  0.73215067554E+03  0.00000000000E+00 0. -1.
          1    1    1    2  502    0  0.23058069930E+02 -0.11576244581E+03  0.42238915261E+01  0.11811206420E+03  0.00000000000E+00 0. -1.
         22    1    3    3    0    0 -0.63076143621E+02  0.10543884495E+03 -0.14517975298E+03  0.19019229899E+03  0.00000000000E+00 0. -1.
         22    1    3    3    0    0  0.17200239967E+02  0.22206856430E+03 -0.44891187889E+03  0.50113089160E+03  0.00000000000E+00 0. -1.
</event>
<event>
 7    1  0.5064652E-006  0.6858402E+02  0.7818608E-02  0.1485139E+00
          2   -1    0    0  502    0  0.00000000000E+00  0.00000000000E+00  0.34458783408E+04  0.34458783408E+04  0.00000000000E+00 0. -1.
          1   -1    0    0  501    0 -0.00000000000E+00 -0.00000000000E+00 -0.64956173851E+03  0.64956173851E+03  0.00000000000E+00 0. -1.
         25    2    1    2    0    0 -0.93280821958E+02  0.64507314273E+01  0.85568318123E+03  0.86980596564E+03  0.12500315008E+03 0.  0.
          2    1    1    2  501    0  0.27047683158E+02  0.41018697920E+01 -0.64177355072E+03  0.64235635975E+03  0.00000000000E+00 0. -1.
          1    1    1    2  502    0  0.66233138800E+02 -0.10552601219E+02  0.25824069718E+04  0.25832777540E+04  0.00000000000E+00 0. -1.
         22    1    3    3    0    0 -0.41146234291E+02 -0.55985062810E+02  0.28454787680E+03  0.29290755205E+03  0.00000000000E+00 0.  1.
         22    1    3    3    0    0 -0.52134587667E+02  0.62435794237E+02  0.57113530443E+03  0.57689841359E+03  0.00000000000E+00 0.  1.
</event>
<event>
 7    1  0.5064652E-006  0.3397362E+02  0.7818608E-02  0.1590656E+00
          2   -1    0    0  502    0  0.00000000000E+00  0.00000000000E+00  0.10893637573E+03  0.10893637573E+03  0.00000000000E+00 0. -1.
          1   -1    0    0  501    0 -0.00000000000E+00 -0.00000000000E+00 -0.32150505260E+03  0.32150505260E+03  0.00000000000E+00 0. -1.
         25    2    1    2    0    0 -0.33219468095E+02  0.21342205827E+02 -0.95855761541E+02  0.16239590262E+03  0.12500031742E+03 0.  0.
          2    1    1    2  501    0  0.33599246485E+02  0.63668594620E+01 -0.18824879129E+03  0.19132969891E+03  0.00000000000E+00 0. -1.
          1    1    1    2  502    0 -0.37977838941E+00 -0.27709065289E+02  0.71535875963E+02  0.76715826794E+02  0.00000000000E+00 0. -1.
         22    1    3    3    0    0  0.30457296293E+02  0.12353298451E+02  0.13501001180E+02  0.35532068797E+02  0.00000000000E+00 0.  1.
         22    1    3    3    0    0 -0.63676764388E+02  0.89889073757E+01 -0.10935676272E+03  0.12686383382E+03  0.00000000000E+00 0.  1.
</event>
<event>
 7    1  0.5064652E-006  0.6516037E+02  0.7818608E-02  0.1507199E+00
          2   -1    0    0  502    0  0.00000000000E+00  0.00000000000E+00  0.38814119287E+04  0.38814119287E+04  0.00000000000E+00 0. -1.
          1   -1    0    0  501    0 -0.00000000000E+00 -0.00000000000E+00 -0.11219881579E+03  0.11219881579E+03  0.00000000000E+00 0. -1.
         25    2    1    2    0    0  0.32254536744E+02  0.79521620076E+02  0.22288060606E+04  0.22339572455E+04  0.12499790307E+03 0.  0.
          2    1    1    2  501    0 -0.13242389069E+02 -0.63715313989E+02 -0.99863756707E+02  0.11919635904E+03  0.00000000000E+00 0. -1.
          1    1    1    2  502    0 -0.19012147674E+02 -0.15806306086E+02  0.16402708090E+04  0.16404571399E+04  0.00000000000E+00 0. -1.
         22    1    3    3    0    0  0.71719720285E+02  0.11541812680E+02  0.99253901020E+03  0.99519375926E+03  0.00000000000E+00 0.  1.
         22    1    3    3    0    0 -0.39465183541E+02  0.67979807396E+02  0.12362670504E+04  0.12387634863E+04  0.00000000000E+00 0.  1.
</event>
<event>
 7    1  0.5064652E-006  0.1060658E+03  0.7818608E-02  0.1326719E+00
          2   -1    0    0  502    0  0.00000000000E+00  0.00000000000E+00  0.14571348623E+04  0.14571348623E+04  0.00000000000E+00 0. -1.
          1   -1    0    0  501    0 -0.00000000000E+00 -0.00000000000E+00 -0.18777962760E+03  0.18777962760E+03  0.00000000000E+00 0. -1.
         25    2    1    2    0    0  0.57809490964E+02 -0.94940849495E+02  0.35126532915E+03  0.38906163773E+03  0.12500369730E+03 0.  0.
          2    1    1    2  501    0 -0.95910504730E+02  0.46544298088E+02 -0.15108210440E+03  0.18490808222E+03  0.00000000000E+00 0. -1.
          1    1    1    2  502    0  0.38101013766E+02  0.48396551407E+02  0.10691720099E+04  0.10709447699E+04  0.00000000000E+00 0. -1.
         22    1    3    3    0    0  0.50916913694E+02 -0.33548230207E+02  0.42865551459E+02  0.74535034393E+02  0.00000000000E+00 0. -1.
         22    1    3    3    0    0  0.68925772693E+01 -0.61392619288E+02  0.30839977769E+03  0.31452660334E+03  0.00000000000E+00 0. -1.
</event>
<event>
 7    1  0.5064652E-006  0.1332536E+03  0.7818608E-02  0.1376133E+00
          2   -1    0    0  502    0  0.00000000000E+00  0.00000000000E+00  0.16862785774E+04  0.16862785774E+04  0.00000000000E+00 0. -1.
          1   -1    0    0  501    0 -0.00000000000E+00 -0.00000000000E+00 -0.21199561594E+04  0.21199561594E+04  0.00000000000E+00 0. -1.
         25    2    1    2    0    0 -0.10575245286E+03 -0.64614690042E+02  0.23194847908E+02  0.17754410853E+03  0.12500108019E+03 0.  0.
          2    1    1    2  501    0  0.94188569995E+02  0.94653136908E+02 -0.20404356513E+04  0.20448003203E+04  0.00000000000E+00 0. -1.
          1    1    1    2  502    0  0.11563882869E+02 -0.30038446866E+02  0.15835632213E+04  0.15838903079E+04  0.00000000000E+00 0. -1.
         22    1    3    3    0    0 -0.13312344420E+03 -0.64289808769E+02  0.25719274606E+02  0.15005502989E+03  0.00000000000E+00 0. -1.
         22    1    3    3    0    0  0.27370991338E+02 -0.32488127258E+00 -0.25244266978E+01  0.27489078646E+02  0.00000000000E+00 0. -1.
</event>
<event>
 7    1  0.5064652E-006  0.9556832E+02  0.7818608E-02  0.1328924E+00
          2   -1    0    0  502    0  0.00000000000E+00  0.00000000000E+00  0.26493260522E+03  0.26493260522E+03  0.00000000000E+00 0. -1.
          1   -1    0    0  501    0 -0.00000000000E+00 -0.00000000000E+00 -0.24361598425E+04  0.24361598425E+04  0.00000000000E+00 0. -1.
         25    2    1    2    0    0 -0.57024361523E+02 -0.94644390908E+02 -0.44028285264E+03  0.47083491804E+03  0.12500876444E+03 0.  0.
          2    1    1    2  501    0 -0.10013691880E+02  0.95482977982E+02 -0.19749127418E+04  0.19772449547E+04  0.00000000000E+00 0. -1.
          1    1    1    2  502    0  0.67038053403E+02 -0.83858707420E+00  0.24396835713E+03  0.25301257501E+03  0.00000000000E+00 0. -1.
         22    1    3    3    0    0 -0.94482708489E+02 -0.51063465336E+02 -0.31972530349E+03  0.33728138013E+03  0.00000000000E+00 0. -1.
         22    1    3    3    0    0  0.37458346966E+02 -0.43580925571E+02 -0.12055754915E+03  0.13355353791E+03  0.00000000000E+00 0. -1.
</event>
<event>
 7    1  0.5064652E-006  0.2098375E+03  0.7818608E-02  0.1273597E+00
          2   -1    0    0  502    0  0.00000000000E+00  0.00000000000E+00  0.32514635300E+04  0.32514635300E+04  0.00000000000E+00 0. -1.
          1   -1    0    0  501    0 -0.00000000000E+00 -0.00000000000E+00 -0.23030432348E+03  0.23030432348E+03  0.00000000000E+00 0. -1.
         25    2    1    2    0    0 -0.12110289129E+03 -0.16848961411E+03  0.30091481697E+03  0.38630190478E+03  0.12499909690E+03 0.  0.
          2    1    1    2  501    0  0.16082575653E+03  0.13680970943E+03 -0.12790503975E+03  0.24686336251E+03  0.00000000000E+00 0. -1.
          1    1    1    2  502    0 -0.39722865237E+02  0.31679904680E+02  0.28481494293E+04  0.28486025862E+04  0.00000000000E+00 0. -1.
         22    1    3    3    0    0 -0.33544007420E+02  0.13928599823E+02  0.72931026088E+02  0.81474786855E+02  0.00000000000E+00 0. -1.
         22    1    3    3    0    0 -0.87558883874E+02 -0.18241821393E+03  0.22798379088E+03  0.30482711793E+03  0.00000000000E+00 0. -1.
</event>
<event>
 7    1  0.5064652E-006  0.1530531E+03  0.7818608E-02  0.1322412E+00
          2   -1    0    0  502    0  0.00000000000E+00  0.00000000000E+00  0.21385396977E+04  0.21385396977E+04  0.00000000000E+00 0. -1.
          1   -1    0    0  501    0 -0.00000000000E+00 -0.00000000000E+00 -0.25078373999E+03  0.25078373999E+03  0.00000000000E+00 0. -1.
         25    2    1    2    0    0  0.18622338732E+03 -0.16947495241E+02  0.66960929615E+03  0.70637661607E+03  0.12499978664E+03 0.  0.
          2    1    1    2  501    0 -0.39847204041E+02  0.19465858140E+02 -0.22655087807E+03  0.23085064361E+03  0.00000000000E+00 0. -1.
          1    1    1    2  502    0 -0.14637618328E+03 -0.25183628984E+01  0.14446975396E+04  0.14520961780E+04  0.00000000000E+00 0. -1.
         22    1    3    3    0    0  0.17920115886E+03 -0.46992837569E+02  0.48446408655E+03  0.51867796683E+03  0.00000000000E+00 0.  1.
         22    1    3    3    0    0  0.70222284613E+01  0.30045342328E+02  0.18514520961E+03  0.18769864924E+03  0.00000000000E+00 0.  1.
</event>
<event>
 7    1  0.5064652E-006  0.7155752E+02  0.7818608E-02  0.1457794E+00
          2   -1    0    0  502    0  0.00000000000E+00  0.00000000000E+00  0.23606891543E+03  0.23606891543E+03  0.00000000000E+00 0. -1.
          1   -1    0    0  501    0 -0.00000000000E+00 -0.00000000000E+00 -0.92413130531E+03  0.92413130531E+03  0.00000000000E+00 0. -1.
         25    2    1    2    0    0 -0.77870393190E+02  0.52753438186E+01 -0.55399653864E+03  0.57326134514E+03  0.12499911049E+03 0.  0.
          2    1    1    2  501    0  0.10725721076E+02 -0.30022562463E+02 -0.35411459677E+03  0.35554682251E+03  0.00000000000E+00 0. -1.
          1    1    1    2  502    0  0.67144672114E+02  0.24747218645E+02  0.22004874553E+03  0.23139205309E+03  0.00000000000E+00 0. -1.
         22    1    3    3    0    0  0.14703504520E+02 -0.52636082075E+01 -0.49757017274E+01  0.16390735926E+02  0.00000000000E+00 0. -1.
         22    1    3    3    0    0 -0.92573897710E+02  0.10538952026E+02 -0.54902083691E+03  0.55687060922E+03  0.00000000000E+00 0. -1.
</event>
<event>
 7    1  0.5064652E-006  0.7198271E+02  0.7818608E-02  0.1494014E+00
          2   -1    0    0  502    0  0.00000000000E+00  0.00000000000E+00  0.13369118748E+04  0.13369118748E+04  0.00000000000E+00 0. -1.
          1   -1    0    0  501    0 -0.00000000000E+00 -0.00000000000E+00 -0.12852223335E+03  0.12852223335E+03  0.00000000000E+00 0. -1.
         25    2    1    2    0    0  0.48829466778E+02 -0.49783354479E+02  0.22111786260E+03  0.26340741805E+03  0.12501063761E+03 0.  0.
          2    1    1    2  501    0  0.16290411751E+02  0.18301641479E+02 -0.10476762432E+03  0.10759452915E+03  0.00000000000E+00 0. -1.
          1    1    1    2  502    0 -0.65119878529E+02  0.31481713000E+02  0.10920394032E+04  0.10944321610E+04  0.00000000000E+00 0. -1.
         22    1    3    3    0    0  0.41847287264E+02  0.28461790473E+02  0.14675694934E+03  0.15523811113E+03  0.00000000000E+00 0. -1.
         22    1    3    3    0    0  0.69821795139E+01 -0.78245144952E+02  0.74360913260E+02  0.10816930692E+03  0.00000000000E+00 0. -1.
</event>
<event>
 7    1  0.5064652E-006  0.7557957E+02  0.7818608E-02  0.1363010E+00
          2   -1    0    0  502    0  0.00000000000E+00  0.00000000000E+00  0.23876045072E+04  0.23876045072E+04  0.00000000000E+00 0. -1.
          1   -1    0    0  501    0 -0.00000000000E+00 -0.00000000000E+00 -0.15147534268E+04  0.15147534268E+04  0.00000000000E+00 0. -1.
         25    2    1    2    0    0  0.21647823272E+02  0.13387249256E+03  0.17528272934E+03  0.25443951441E+03  0.12499983509E+03 0.  0.
          2    1    1    2  501    0  0.22377031420E+01 -0.75288442798E+02 -0.14737525102E+04  0.14756760547E+04  0.00000000000E+00 0. -1.
          1    1    1    2  502    0 -0.23885526414E+02 -0.58584049758E+02  0.21713208613E+04  0.21722423650E+04  0.00000000000E+00 0. -1.
         22    1    3    3    0    0  0.58083360155E+02  0.12262608741E+03  0.16742951237E+03  0.21550748398E+03  0.00000000000E+00 0. -1.
         22    1    3    3    0    0 -0.36435536883E+02  0.11246405142E+02  0.78532169774E+01  0.38932030431E+02  0.00000000000E+00 0. -1.
</event>
<event>
 7    1  0.5064652E-006  0.7170491E+02  0.7818608E-02  0.1363353E+00
          2   -1    0    0  502    0  0.00000000000E+00  0.00000000000E+00  0.73523475289E+03  0.73523475289E+03  0.00000000000E+00 0. -1.
          1   -1    0    0  501    0 -0.00000000000E+00 -0.00000000000E+00 -0.25834483872E+03  0.25834483872E+03  0.00000000000E+00 0. -1.
         25    2    1    2    0    0 -0.33544232353E+02  0.24557125597E+02  0.20316228705E+03  0.24213268896E+03  0.12500022498E+03 0.  0.
          2    1    1    2  501    0 -0.26886425795E+02 -0.66473405614E+02 -0.23075117521E+03  0.24163546595E+03  0.00000000000E+00 0. -1.
          1    1    1    2  502    0  0.60430658147E+02  0.41916280017E+02  0.50447880233E+03  0.50981143669E+03  0.00000000000E+00 0. -1.
         22    1    3    3    0    0  0.43919909935E+02  0.14153919968E+02  0.11716356314E+03  0.12592296243E+03  0.00000000000E+00 0. -1.
         22    1    3    3    0    0 -0.77464142288E+02  0.10403205629E+02  0.85998723901E+02  0.11620972653E+03  0.00000000000E+00 0. -1.
</event>
<event>
 7    1  0.5064652E-006  0.7787621E+02  0.7818608E-02  0.1407221E+00
          2   -1    0    0  502    0  0.00000000000E+00  0.00000000000E+00  0.33511191204E+03  0.33511191204E+03  0.00000000000E+00 0. -1.
          1   -1    0    0  501    0 -0.00000000000E+00 -0.00000000000E+00 -0.12949836812E+03  0.12949836812E+03  0.00000000000E+00 0. -1.
         25    2    1    2    0    0 -0.31384055427E+02 -0.89301743403E+02  0.23785234122E+03  0.28488438845E+03  0.12500247298E+03 0.  0.
          2    1    1    2  501    0  0.37522924203E+02  0.20850587630E+02 -0.83567299598E+02  0.93947913268E+02  0.00000000000E+00 0. -1.
          1    1    1    2  502    0 -0.61388687762E+01  0.68451155772E+02  0.51328502301E+02  0.85777978438E+02  0.00000000000E+00 0. -1.
         22    1    3    3    0    0  0.25909895601E+02 -0.18804264901E+02  0.16600341147E+03  0.16906228345E+03  0.00000000000E+00 0.  1.
         22    1    3    3    0    0 -0.57293951028E+02 -0.70497478501E+02  0.71848929754E+02  0.11582210500E+03  0.00000000000E+00 0.  1.
</event>
<event>
 7    1  0.5064652E-006  0.5191689E+02  0.7818608E-02  0.1458221E+00
          2   -1    0    0  502    0  0.00000000000E+00  0.00000000000E+00  0.10540423159E+04  0.10540423159E+04  0.00000000000E+00 0. -1.
          1   -1    0    0  501    0 -0.00000000000E+00 -0.00000000000E+00 -0.20894977026E+02  0.20894977026E+02  0.00000000000E+00 0. -1.
         25    2    1    2    0    0 -0.15992571480E+02  0.57314705744E+01  0.28011025735E+03  0.30720588495E+03  0.12500034952E+03 0.  0.
          2    1    1    2  501    0  0.16871764306E+02 -0.57640914410E+02  0.13794887453E+03  0.15045605149E+03  0.00000000000E+00 0. -1.
          1    1    1    2  502    0 -0.87919282520E+00  0.51909443835E+02  0.61508820695E+03  0.61727535644E+03  0.00000000000E+00 0. -1.
         22    1    3    3    0    0  0.29266214134E+02  0.28993853880E+01  0.68344506194E+01  0.30193168775E+02  0.00000000000E+00 0. -1.
         22    1    3    3    0    0 -0.45258785615E+02  0.28320851863E+01  0.27327580673E+03  0.27701271618E+03  0.00000000000E+00 0. -1.
</event>
<event>
 7    1  0.5064652E-006  0.9373629E+02  0.7818608E-02  0.1432427E+00
          2   -1    0    0  502    0  0.00000000000E+00  0.00000000000E+00  0.12602356927E+04  0.12602356927E+04  0.00000000000E+00 0. -1.
          1   -1    0    0  501    0 -0.00000000000E+00 -0.00000000000E+00 -0.27034243153E+03  0.27034243153E+03  0.00000000000E+00 0. -1.
         25    2    1    2    0    0  0.50363816935E+01 -0.10453379006E+03  0.20052448332E+03  0.25843294901E+03  0.12499936926E+03 0.  0.
          2    1    1    2  501    0  0.21063814630E+02  0.91050007723E+02 -0.23212372754E+03  0.25023032006E+03  0.00000000000E+00 0. -1.
          1    1    1    2  502    0 -0.26100196323E+02  0.13483782336E+02  0.10214925054E+04  0.10219148552E+04  0.00000000000E+00 0. -1.
         22    1    3    3    0    0 -0.67480882885E+01  0.27893599520E+02  0.23802458689E+02  0.37284670166E+02  0.00000000000E+00 0. -1.
         22    1    3    3    0    0  0.11784469982E+02 -0.13242738958E+03  0.17672202463E+03  0.22114827884E+03  0.00000000000E+00 0. -1.
</event>
<event>
 7    1  0.5064652E-006  0.2047627E+03  0.7818608E-02  0.1254520E+00
          2   -1    0    0  502    0  0.00000000000E+00  0.00000000000E+00  0.53271358423E+03  0.53271358423E+03  0.00000000000E+00 0. -1.
          1   -1    0    0  501    0 -0.00000000000E+00 -0.00000000000E+00 -0.32741333194E+04  0.32741333194E+04  0.00000000000E+00 0. -1.
         25    2    1    2    0    0  0.33662743627E+02 -0.17050354210E+03  0.82595673762E+02  0.22945958535E+03  0.12500007123E+03 0.  0.
          2    1    1    2  501    0 -0.95301300766E+02  0.18214063813E+03 -0.31947634781E+04  0.32013702115E+04  0.00000000000E+00 0. -1.
          1    1    1    2  502    0  0.61638557139E+02 -0.11637096032E+02  0.37074806922E+03  0.37601710674E+03  0.00000000000E+00 0. -1.
         22    1    3    3    0    0  0.25744977561E+02 -0.18803877216E+03  0.88389911562E+02  0.20936609126E+03  0.00000000000E+00 0. -1.
         22    1    3    3    0    0  0.79177660663E+01  0.17535230063E+02 -0.57942377999E+01  0.20093494084E+02  0.00000000000E+00 0. -1.
</event>
<event>
 7    1  0.5064652E-006  0.3494060E+02  0.7818608E-02  0.1610738E+00
          2   -1    0    0  502    0  0.00000000000E+00  0.00000000000E+00  0.28286350927E+02  0.28286350927E+02  0.00000000000E+00 0. -1.
          1   -1    0    0  501    0 -0.00000000000E+00 -0.00000000000E+00 -0.13845625274E+04  0.13845625274E+04  0.00000000000E+00 0. -1.
         25    2    1    2    0    0 -0.12486796819E+02  0.14162180443E+02 -0.24164441592E+03  0.27272017638E+03  0.12501113314E+03 0.  0.
          2    1    1    2  501    0 -0.23337224882E+02 -0.50656721808E+01 -0.11001859512E+04  0.11004450983E+04  0.00000000000E+00 0. -1.
          1    1    1    2  502    0  0.35824021701E+02 -0.90965082623E+01 -0.14445809370E+02  0.39683603689E+02  0.00000000000E+00 0. -1.
         22    1    3    3    0    0  0.38550018018E+01 -0.94388929107E+01  0.12967131043E+02  0.16495460762E+02  0.00000000000E+00 0. -1.
         22    1    3    3    0    0 -0.16341798621E+02  0.23601073354E+02 -0.25461154697E+03  0.25622471562E+03  0.00000000000E+00 0. -1.
</event>
<event>
 7    1  0.5064652E-006  0.5687012E+02  0.7818608E-02  0.1456962E+00
          2   -1    0    0  502    0  0.00000000000E+00  0.00000000000E+00  0.11574561208E+04  0.11574561208E+04  0.00000000000E+00 0. -1.
          1   -1    0    0  501    0 -0.00000000000E+00 -0.00000000000E+00 -0.38142833219E+02  0.38142833219E+02  0.00000000000E+00 0. -1.
         25    2    1    2    0    0 -0.34775933970E+02  0.14774827557E+02  0.85624213268E+03  0.86614124761E+03  0.12498963925E+03 0.  0.
          2    1    1    2  501    0 -0.32949655647E+02  0.23305276810E+02 -0.13205065407E+02  0.42463978698E+02  0.00000000000E+00 0. -1.
          1    1    1    2  502    0  0.67725589618E+02 -0.38080104368E+02  0.27627622027E+03  0.28699372767E+03  0.00000000000E+00 0. -1.
         22    1    3    3    0    0 -0.56787009643E+00 -0.53799031335E+02  0.33352076891E+03  0.33783244596E+03  0.00000000000E+00 0.  1.
         22    1    3    3    0    0 -0.34208063874E+02  0.68573858893E+02  0.52272136377E+03  0.52830880165E+03  0.00000000000E+00 0.  1.
</event>
<event>
 7    1  0.5064652E-006  0.6540460E+03  0.7818608E-02  0.1177026E+00
          2   -1    0    0  502    0  0.00000000000E+00  0.00000000000E+00  0.16086582930E+04  0.16086582930E+04  0.00000000000E+00 0. -1.
          1   -1    0    0  501    0 -0.00000000000E+00 -0.00000000000E+00 -0.13166042110E+04  0.13166042110E+04  0.00000000000E+00 0. -1.
         25    2    1    2    0    0 -0.50255450622E+03 -0.45480373211E+03 -0.11692273811E+02  0.68932509807E+03  0.12499966037E+03 0.  0.
          2    1    1    2  501    0  0.49981364085E+03  0.41028979508E+03 -0.85741294513E+03  0.10739219478E+04  0.00000000000E+00 0. -1.
          1    1    1    2  502    0  0.27408653728E+01  0.44513937030E+02  0.11611593009E+04  0.11620154582E+04  0.00000000000E+00 0. -1.
         22    1    3    3    0    0 -0.19825166980E+03 -0.22347624532E+03  0.47596825082E+02  0.30250754463E+03  0.00000000000E+00 0.  1.
         22    1    3    3    0    0 -0.30430283642E+03 -0.23132748680E+03 -0.59289098893E+02  0.38681755344E+03  0.00000000000E+00 0.  1.
</event>
<event>
 7    1  0.5064652E-006  0.8162637E+02  0.7818608E-02  0.1366922E+00
          2   -1    0    0  502    0  0.00000000000E+00  0.00000000000E+00  0.13358498869E+04  0.13358498869E+04  0.00000000000E+00 0. -1.
          1   -1    0    0  501    0 -0.00000000000E+00 -0.00000000000E+00 -0.36755101312E+03  0.36755101312E+03  0.00000000000E+00 0. -1.
         25    2    1    2    0    0 -0.40640726088E+02  0.12724167914E+03  0.76453435411E+03  0.78611621699E+03  0.12499525777E+03 0.  0.
          2    1    1    2  501    0  0.79053756827E+01 -0.80947161965E+02 -0.35065996033E+03  0.35996853442E+03  0.00000000000E+00 0. -1.
          1    1    1    2  502    0  0.32735350405E+02 -0.46294517178E+02  0.55442447995E+03  0.55731614857E+03  0.00000000000E+00 0. -1.
         22    1    3    3    0    0  0.13965401918E+02  0.11015773963E+02  0.38568265168E+03  0.38609258933E+03  0.00000000000E+00 0. -1.
         22    1    3    3    0    0 -0.54606128005E+02  0.11622590518E+03  0.37885170243E+03  0.40002362766E+03  0.00000000000E+00 0. -1.
</event>
<event>
 7    1  0.5064652E-006  0.7843386E+02  0.7818608E-02  0.1353914E+00
          2   -1    0    0  502    0  0.00000000000E+00  0.00000000000E+00  0.13728146236E+04  0.13728146236E+04  0.00000000000E+00 0. -1.
          1   -1    0    0  501    0 -0.00000000000E+00 -0.00000000000E+00 -0.43565762449E+03  0.43565762449E+03  0.00000000000E+00 0. -1.
         25    2    1    2    0    0  0.34462833470E+02  0.82735156566E+02  0.10671149276E+03  0.18721098998E+03  0.12501127572E+03 0.  0.
          2    1    1    2  501    0 -0.73118708005E+02 -0.29464816812E+02 -0.39058355035E+03  0.39845957222E+03  0.00000000000E+00 0. -1.
          1    1    1    2  502    0  0.38655874536E+02 -0.53270339755E+02  0.12210290567E+04  0.12228016859E+04  0.00000000000E+00 0. -1.
         22    1    3    3    0    0  0.34989152236E+02 -0.96211397799E+01  0.84874863954E+02  0.92306823345E+02  0.00000000000E+00 0. -1.
         22    1    3    3    0    0 -0.52631876624E+00  0.92356296346E+02  0.21836628810E+02  0.94904166632E+02  0.00000000000E+00 0. -1.
</event>
<event>
 7    1  0.5064652E-006  0.6326678E+02  0.7818608E-02  0.1406538E+00
          2   -1    0    0  502    0  0.00000000000E+00  0.00000000000E+00  0.18866467146E+04  0.18866467146E+04  0.00000000000E+00 0. -1.
          1   -1    0    0  501    0 -0.00000000000E+00 -0.00000000000E+00 -0.13928988321E+03  0.13928988321E+03  0.00000000000E+00 0. -1.
         25    2    1    2    0    0  0.64582812359E+02  0.67308191448E+02  0.25719567109E+03  0.30079274394E+03  0.12500131717E+03 0.  0.
          2    1    1    2  501    0 -0.52828331810E+02 -0.55888232785E+01 -0.11083868143E+03  0.12291167922E+03  0.00000000000E+00 0. -1.
          1    1    1    2  502    0 -0.11754480549E+02 -0.61719368170E+02  0.16009998417E+04  0.16022321746E+04  0.00000000000E+00 0. -1.
         22    1    3    3    0    0  0.73590491466E+02  0.45551557488E+02  0.26271765672E+03  0.27660634840E+03  0.00000000000E+00 0. -1.
         22    1    3    3    0    0 -0.90076791065E+01  0.21756633960E+02 -0.55219856279E+01  0.24186395545E+02  0.00000000000E+00 0. -1.
</event>
<event>
 7    1  0.5064652E-006  0.2328045E+03  0.7818608E-02  0.1226628E+00
          2   -1    0    0  502    0  0.00000000000E+00  0.00000000000E+00  0.36919783147E+03  0.36919783147E+03  0.00000000000E+00 0. -1.
          1   -1    0    0  501    0 -0.00000000000E+00 -0.00000000000E+00 -0.54902461361E+03  0.54902461361E+03  0.00000000000E+00 0. -1.
         25    2    1    2    0    0 -0.17733887618E+03 -0.15375371032E+03 -0.12356508098E+03  0.29322818167E+03  0.12500062739E+03 0.  0.
          2    1    1    2  501    0  0.21687412269E+03  0.92125674766E+02 -0.29369105805E+03  0.37653148955E+03  0.00000000000E+00 0. -1.
          1    1    1    2  502    0 -0.39535246508E+02  0.61628035554E+02  0.23742935689E+03  0.24846277386E+03  0.00000000000E+00 0. -1.
         22    1    3    3    0    0 -0.13641761562E+03 -0.14426307443E+03 -0.44166268274E+02  0.20340172013E+03  0.00000000000E+00 0. -1.
         22    1    3    3    0    0 -0.40921260555E+02 -0.94906358875E+01 -0.79398812703E+02  0.89826461545E+02  0.00000000000E+00 0. -1.
</event>
<event>
 7    1  0.5064652E-006  0.9099576E+02  0.7818608E-02  0.1305067E+00
          2   -1    0    0  502    0  0.00000000000E+00  0.00000000000E+00  0.12347818642E+04  0.12347818642E+04  0.00000000000E+00 0. -1.
          1   -1    0    0  501    0 -0.00000000000E+00 -0.00000000000E+00 -0.13982058619E+03  0.13982058619E+03  0.00000000000E+00 0. -1.
         25    2    1    2    0    0 -0.54915248662E+02 -0.18506409851E+02  0.12022345596E+03  0.18285717142E+03  0.12499957615E+03 0.  0.
          2    1    1    2  501    0  0.19850917259E+02  0.98375260369E+02 -0.83112284287E+02  0.13030503662E+03  0.00000000000E+00 0. -1.
          1    1    1    2  502    0  0.35064331403E+02 -0.79868850519E+02  0.10578501063E+04  0.10614402424E+04  0.00000000000E+00 0. -1.
         22    1    3    3    0    0  0.44851679598E+01  0.46910206817E+02  0.26568701168E+02  0.54097875346E+02  0.00000000000E+00 0.  1.
         22    1    3    3    0    0 -0.59400416622E+02 -0.65416616668E+02  0.93654754794E+02  0.12875929608E+03  0.00000000000E+00 0.  1.
</event>
<event>
 7    1  0.5064652E-006  0.1863856E+03  0.7818608E-02  0.1233681E+00
          2   -1    0    0  502    0  0.00000000000E+00  0.00000000000E+00  0.20829398237E+04  0.20829398237E+04  0.00000000000E+00 0. -1.
          1   -1    0    0  501    0 -0.00000000000E+00 -0.00000000000E+00 -0.53111199651E+03  0.53111199651E+03  0.00000000000E+00 0. -1.
         25    2    1    2    0    0  0.10976861259E+03 -0.16246820290E+03  0.10311566314E+04  0.10570495195E+04  0.12499849152E+03 0.  0.
          2    1    1    2  501    0 -0.27632654929E+02  0.18447508588E+03 -0.49955189057E+03  0.53324170158E+03  0.00000000000E+00 0. -1.
          1    1    1    2  502    0 -0.82135957657E+02 -0.22006882978E+02  0.10202230863E+04  0.10237605991E+04  0.00000000000E+00 0. -1.
         22    1    3    3    0    0  0.63949019705E+01  0.15262485491E+02  0.20596546368E+03  0.20662916169E+03  0.00000000000E+00 0. -1.
         22    1    3    3    0    0  0.10337371062E+03 -0.17773068839E+03  0.82519116775E+03  0.85042035781E+03  0.00000000000E+00 0. -1.
</event>
<event>
 7    1  0.5064652E-006  0.8592086E+02  0.7818608E-02  0.1419190E+00
          2   -1    0    0  502    0  0.00000000000E+00  0.00000000000E+00  0.45374771536E+02  0.45374771536E+02  0.00000000000E+00 0. -1.
          1   -1    0    0  501    0 -0.00000000000E+00 -0.00000000000E+00 -0.70078434365E+03  0.70078434365E+03  0.00000000000E+00 0. -1.
         25    2    1    2    0    0  0.90369291025E+02  0.73577161828E+02 -0.25386031116E+03  0.30602173367E+03  0.12499614551E+03 0.  0.
          2    1    1    2  501    0 -0.62284582604E+02 -0.51938680717E+02 -0.39603983669E+03  0.40425802161E+03  0.00000000000E+00 0. -1.
          1    1    1    2  502    0 -0.28084708422E+02 -0.21638481111E+02 -0.55094242575E+01  0.35879359910E+02  0.00000000000E+00 0. -1.
         22    1    3    3    0    0  0.76771342714E+02 -0.17370372078E+02 -0.12487905916E+03  0.14761554222E+03  0.00000000000E+00 0. -1.
         22    1    3    3    0    0  0.13597948312E+02  0.90947533906E+02 -0.12898125201E+03  0.15840619146E+03  0.00000000000E+00 0. -1.
</event>
<event>
 7    1  0.5064652E-006  0.5043861E+02  0.7818608E-02  0.1452716E+00
          2   -1    0    0  502    0  0.00000000000E+00  0.00000000000E+00  0.30937481188E+04  0.30937481188E+04  0.00000000000E+00 0. -1.
          1   -1    0    0  501    0 -0.00000000000E+00 -0.00000000000E+00 -0.26475423035E+02  0.26475423035E+02  0.00000000000E+00 0. -1.
         25    2    1    2    0    0 -0.49808690363E+02 -0.45224302071E+02  0.10458174603E+04  0.10554076068E+04  0.12499965234E+03 0.  0.
          2    1    1    2  501    0  0.50454664685E+02 -0.17119173095E+01  0.83572694468E+01  0.51170770973E+02  0.00000000000E+00 0. -1.
          1    1    1    2  502    0 -0.64597432202E+00  0.46936219381E+02  0.20130979660E+04  0.20136451641E+04  0.00000000000E+00 0. -1.
         22    1    3    3    0    0 -0.42295370052E+02  0.95006580031E+00  0.92320298570E+03  0.92417182048E+03  0.00000000000E+00 0.  1.
         22    1    3    3    0    0 -0.75133203110E+01 -0.46174367872E+02  0.12261447460E+03  0.13123578632E+03  0.00000000000E+00 0.  1.
</event>
<event>
 7    1  0.5064652E-006  0.3308622E+02  0.7818608E-02  0.1581742E+00
          2   -1    0    0  502    0  0.00000000000E+00  0.00000000000E+00  0.62978911695E+03  0.62978911695E+03  0.00000000000E+00 0. -1.
          1   -1    0    0  501    0 -0.00000000000E+00 -0.00000000000E+00 -0.16040189566E+02  0.16040189566E+02  0.00000000000E+00 0. -1.
         25    2    1    2    0    0 -0.75813318326E+01 -0.34600559402E+01  0.36471117677E+03  0.38562764879E+03  0.12499996989E+03 0.  0.
          2    1    1    2  501    0 -0.17199802845E+02 -0.24642767374E+02  0.55926981199E+02  0.63489577316E+02  0.00000000000E+00 0. -1.
          1    1    1    2  502    0  0.24781134678E+02  0.28102823314E+02  0.19311076941E+03  0.19671208040E+03  0.00000000000E+00 0. -1.
         22    1    3    3    0    0 -0.17900019318E+02  0.12736879516E+01 -0.26073680692E+01  0.18133707310E+02  0.00000000000E+00 0.  1.
         22    1    3    3    0    0  0.10318687485E+02 -0.47337438919E+01  0.36731854484E+03  0.36749394148E+03  0.00000000000E+00 0.  1.
</event>
<event>
 7    1  0.5064652E-006  0.3710974E+02  0.7818608E-02  0.1573128E+00
          2   -1    0    0  502    0  0.00000000000E+00  0.00000000000E+00  0.26879577714E+04  0.26879577714E+04  0.00000000000E+00 0. -1.
          1   -1    0    0  501    0 -0.00000000000E+00 -0.00000000000E+00 -0.10770679339E+04  0.10770679339E+04  0.00000000000E+00 0. -1.
         25    2    1    2    0    0 -0.43809316478E+00  0.10659707887E+02  0.72317499650E+03  0.73397505098E+03  0.12499391423E+03 0.  0.
          2    1    1    2  501    0  0.19286792675E+02 -0.31718479220E+02 -0.10712444751E+04  0.10718874790E+04  0.00000000000E+00 0. -1.
          1    1    1    2  502    0 -0.18848699510E+02  0.21058771334E+02  0.19589593161E+04  0.19591631753E+04  0.00000000000E+00 0. -1.
         22    1    3    3    0    0 -0.25341600602E+02 -0.26731193363E+02  0.68627639609E+02  0.77887780415E+02  0.00000000000E+00 0.  1.
         22    1    3    3    0    0  0.24903507437E+02  0.37390901250E+02  0.65454735689E+03  0.65608727056E+03  0.00000000000E+00 0.  1.
</event>
<event>
 7    1  0.5064652E-006  0.1161131E+03  0.7818608E-02  0.1336976E+00
          2   -1    0    0  502    0  0.00000000000E+00  0.00000000000E+00  0.17904822516E+04  0.17904822516E+04  0.00000000000E+00 0. -1.
          1   -1    0    0  501    0 -0.00000000000E+00 -0.00000000000E+00 -0.37977457204E+03  0.37977457204E+03  0.00000000000E+00 0. -1.
         25    2    1    2    0    0 -0.12117918475E+03  0.49809628631E+00  0.16302519773E+02  0.17485892371E+03  0.12500091254E+03 0.  0.
          2    1    1    2  501    0  0.15527791358E+02 -0.49023370942E+02 -0.29628525661E+03  0.30071474272E+03  0.00000000000E+00 0. -1.
          1    1    1    2  502    0  0.10565139339E+03  0.48525274656E+02  0.16906904164E+04  0.16946831572E+04  0.00000000000E+00 0. -1.
         22    1    3    3    0    0 -0.12393438138E+03  0.12449992094E+02 -0.29030070417E+02  0.12789635718E+03  0.00000000000E+00 0.  1.
         22    1    3    3    0    0  0.27551966369E+01 -0.11951895807E+02  0.45332590190E+02  0.46962566532E+02  0.00000000000E+00 0.  1.
</event>
<event>
 7    1  0.5064652E-006  0.1703629E+03  0.7818608E-02  0.1265188E+00
          2   -1    0    0  502    0  0.00000000000E+00  0.00000000000E+00  0.11590368595E+04  0.11590368595E+04  0.00000000000E+00 0. -1.
          1   -1    0    0  501    0 -0.00000000000E+00 -0.00000000000E+00 -0.58158960042E+03  0.58158960042E+03  0.00000000000E+00 0. -1.
         25    2    1    2    0    0 -0.13174222360E+03  0.88779091101E+02 -0.17124839904E+02  0.20287042899E+03  0.12500164127E+03 0.  0.
          2    1    1    2  501    0 -0.37123913846E+02 -0.56837810553E+02 -0.46217037954E+03  0.46712972653E+03  0.00000000000E+00 0. -1.
          1    1    1    2  502    0  0.16886613744E+03 -0.31941280548E+02  0.10567424785E+04  0.10706263044E+04  0.00000000000E+00 0. -1.
         22    1    3    3    0    0 -0.21529079726E+02 -0.24309882416E+02 -0.30295674823E+02  0.44410579481E+02  0.00000000000E+00 0.  1.
         22    1    3    3    0    0 -0.11021314387E+03  0.11308897352E+03  0.13170834919E+02  0.15845984951E+03  0.00000000000E+00 0.  1.
</event>
<event>
 7    1  0.5064652E-006  0.9673854E+02  0.7818608E-02  0.1468501E+00
          2   -1    0    0  502    0  0.00000000000E+00  0.00000000000E+00  0.39634109431E+03  0.39634109431E+03  0.00000000000E+00 0. -1.
          1   -1    0    0  501    0 -0.00000000000E+00 -0.00000000000E+00 -0.19289236761E+04  0.19289236761E+04  0.00000000000E+00 0. -1.
         25    2    1    2    0    0  0.72983985301E+02  0.44457466628E+02  0.40613728603E+02  0.15677043796E+03  0.12499746725E+03 0.  0.
          2    1    1    2  501    0 -0.70793123282E+02 -0.66172489046E+02 -0.18691884281E+04  0.18716986522E+04  0.00000000000E+00 0. -1.
          1    1    1    2  502    0 -0.21908620188E+01  0.21715022418E+02  0.29599211774E+03  0.29679568030E+03  0.00000000000E+00 0. -1.
         22    1    3    3    0    0  0.10939079047E+02 -0.36648894601E+02 -0.14290944293E+02  0.40829352366E+02  0.00000000000E+00 0. -1.
         22    1    3    3    0    0  0.62044906254E+02  0.81106361229E+02  0.54904672896E+02  0.11594108560E+03  0.00000000000E+00 0. -1.
</event>
<event>
 7    1  0.5064652E-006  0.1500488E+03  0.7818608E-02  0.1259168E+00
          2   -1    0    0  502    0  0.00000000000E+00  0.00000000000E+00  0.12746025148E+04  0.12746025148E+04  0.00000000000E+00 0. -1.
          1   -1    0    0  501    0 -0.00000000000E+00 -0.00000000000E+00 -0.15662710731E+03  0.15662710731E+03  0.00000000000E+00 0. -1.
         25    2    1    2    0    0 -0.21743779068E+03 -0.41123178499E+02  0.37314925579E+03  0.45148138071E+03  0.12499904562E+03 0.  0.
          2    1    1    2  501    0  0.79827051549E+02  0.17671581386E+02 -0.96751987711E+02  0.12667118881E+03  0.00000000000E+00 0. -1.
          1    1    1    2  502    0  0.13761073913E+03  0.23451597113E+02  0.84157813940E+03  0.85307705258E+03  0.00000000000E+00 0. -1.
         22    1    3    3    0    0 -0.79976539226E+02  0.36659841955E+02  0.19167390026E+03  0.21090062798E+03  0.00000000000E+00 0. -1.
         22    1    3    3    0    0 -0.13746125145E+03 -0.77783020454E+02  0.18147535553E+03  0.24058075273E+03  0.00000000000E+00 0. -1.
</event>
<event>
 7    1  0.5064652E-006  0.8712322E+02  0.7818608E-02  0.1372001E+00
          2   -1    0    0  502    0  0.00000000000E+00  0.00000000000E+00  0.25427355870E+02  0.25427355870E+02  0.00000000000E+00 0. -1.
          1   -1    0    0  501    0 -0.00000000000E+00 -0.00000000000E+00 -0.25979102956E+04  0.25979102956E+04  0.00000000000E+00 0. -1.
         25    2    1    2    0    0 -0.64468025674E+02 -0.10383106792E+02 -0.57898997637E+03  0.59591161908E+03  0.12496931535E+03 0.  0.
          2    1    1    2  501    0 -0.70892856373E+01 -0.50436808826E+02 -0.18774593228E+04  0.18781500575E+04  0.00000000000E+00 0. -1.
          1    1    1    2  502    0  0.71557311312E+02  0.60819915618E+02 -0.11603364050E+03  0.14927597484E+03  0.00000000000E+00 0. -1.
         22    1    3    3    0    0 -0.80051744530E+02 -0.49945963170E+02 -0.45933301402E+03  0.46892397978E+03  0.00000000000E+00 0.  1.
         22    1    3    3    0    0  0.15583718855E+02  0.39562856378E+02 -0.11965696234E+03  0.12698763930E+03  0.00000000000E+00 0.  1.
</event>
<event>
 7    1  0.5064652E-006  0.4800176E+02  0.7818608E-02  0.1533231E+00
          2   -1    0    0  502    0  0.00000000000E+00  0.00000000000E+00  0.17396473589E+04  0.17396473589E+04  0.00000000000E+00 0. -1.
          1   -1    0    0  501    0 -0.00000000000E+00 -0.00000000000E+00 -0.18244004245E+03  0.18244004245E+03  0.00000000000E+00 0. -1.
         25    2    1    2    0    0 -0.39158707405E+02 -0.62299573185E+02  0.17893999473E+03  0.23034662248E+03  0.12500161434E+03 0.  0.
          2    1    1    2  501    0  0.67267683194E+01  0.27387705092E+02 -0.15509501879E+03  0.15763819543E+03  0.00000000000E+00 0. -1.
          1    1    1    2  502    0  0.32431939086E+02  0.34911868093E+02  0.15333623405E+04  0.15341025835E+04  0.00000000000E+00 0. -1.
         22    1    3    3    0    0 -0.71342333377E+01 -0.12212164820E+02  0.16957455518E+03  0.17016334512E+03  0.00000000000E+00 0.  1.
         22    1    3    3    0    0 -0.32024474067E+02 -0.50087408365E+02  0.93654395453E+01  0.60183277361E+02  0.00000000000E+00 0.  1.
</event>
<event>
 7    1  0.5064652E-006  0.1118757E+03  0.7818608E-02  0.1259281E+00
          2   -1    0    0  502    0  0.00000000000E+00  0.00000000000E+00  0.19331796017E+04  0.19331796017E+04  0.00000000000E+00 0. -1.
          1   -1    0    0  501    0 -0.00000000000E+00 -0.00000000000E+00 -0.31173407895E+03  0.31173407895E+03  0.00000000000E+00 0. -1.
         25    2    1    2    0    0 -0.76581969633E+02  0.22436750790E+02  0.73143533814E+02  0.16536121872E+03  0.12500460096E+03 0.  0.
          2    1    1    2  501    0  0.15133691119E+01 -0.10952386942E+03 -0.25242131450E+03  0.27516229443E+03  0.00000000000E+00 0. -1.
          1    1    1    2  502    0  0.75068600521E+02  0.87087118630E+02  0.18007233034E+04  0.18043901675E+04  0.00000000000E+00 0. -1.
         22    1    3    3    0    0 -0.82017629500E+02  0.25485997731E+02  0.10342990083E+03  0.13444021725E+03  0.00000000000E+00 0.  1.
         22    1    3    3    0    0  0.54356598670E+01 -0.30492469413E+01 -0.30286367014E+02  0.30921001472E+02  0.00000000000E+00 0.  1.
</event>
<event>
 7    1  0.5064652E-006  0.1375922E+03  0.7818608E-02  0.1247197E+00
          2   -1    0    0  502    0  0.00000000000E+00  0.00000000000E+00  0.27867137741E+03  0.27867137741E+03  0.00000000000E+00 0. -1.
          1   -1    0    0  501    0 -0.00000000000E+00 -0.00000000000E+00 -0.22040252034E+04  0.22040252034E+04  0.00000000000E+00 0. -1.
         25    2    1    2    0    0 -0.23063367673E+03 -0.60791956068E+01 -0.26781218167E+03  0.37493684874E+03  0.12500170572E+03 0.  0.
          2    1    1    2  501    0  0.99775098512E+02 -0.11401947001E+02 -0.18618236201E+04  0.18645300392E+04  0.00000000000E+00 0. -1.
          1    1    1    2  502    0  0.13085857822E+03  0.17481142608E+02  0.20428197581E+03  0.24322969284E+03  0.00000000000E+00 0. -1.
         22    1    3    3    0    0 -0.22780707698E+03  0.24425190826E+01 -0.27925245761E+03  0.36039418045E+03  0.00000000000E+00 0.  1.
         22    1    3    3    0    0 -0.28265997501E+01 -0.85217146894E+01  0.11440275942E+02  0.14542668291E+02  0.00000000000E+00 0.  1.
</event>
<event>
 7    1  0.5064652E-006  0.1124168E+03  0.7818608E-02  0.1307488E+00
          2   -1    0    0  502    0  0.00000000000E+00  0.00000000000E+00  0.47157797491E+03  0.47157797491E+03  0.00000000000E+00 0. -1.
          1   -1    0    0  501    0 -0.00000000000E+00 -0.00000000000E+00 -0.88588701259E+03  0.88588701259E+03  0.00000000000E+00 0. -1.
         25    2    1    2    0    0 -0.15930853062E+03  0.51617222240E+01  0.49218717897E+02  0.20845691751E+03  0.12500381179E+03 0.  0.
          2    1    1    2  501    0  0.10223923331E+03 -0.44055612484E+02 -0.79888945293E+03  0.80660902290E+03  0.00000000000E+00 0. -1.
          1    1    1    2  502    0  0.57069297316E+02  0.38893890260E+02  0.33536169735E+03  0.34239904709E+03  0.00000000000E+00 0. -1.
         22    1    3    3    0    0 -0.41508056697E+02 -0.56060077036E+02  0.19145657616E+02  0.72333997633E+02  0.00000000000E+00 0. -1.
         22    1    3    3    0    0 -0.11780047393E+03  0.61221799260E+02  0.30073060280E+02  0.13612291988E+03  0.00000000000E+00 0. -1.
</event>
<event>
 7    1  0.5064652E-006  0.4052326E+02  0.7818608E-02  0.1576798E+00
          2   -1    0    0  502    0  0.00000000000E+00  0.00000000000E+00  0.29213384745E+03  0.29213384745E+03  0.00000000000E+00 0. -1.
          1   -1    0    0  501    0 -0.00000000000E+00 -0.00000000000E+00 -0.18006474566E+04  0.18006474566E+04  0.00000000000E+00 0. -1.
         25    2    1    2    0    0  0.25157603621E+02 -0.30467373441E+02 -0.51081870517E+03  0.52737009294E+03  0.12498919758E+03 0.  0.
          2    1    1    2  501    0 -0.20698590976E+01  0.40807852947E+02 -0.12806629397E+04  0.12813146102E+04  0.00000000000E+00 0. -1.
          1    1    1    2  502    0 -0.23087744523E+02 -0.10340479507E+02  0.28296803567E+03  0.28409660096E+03  0.00000000000E+00 0. -1.
         22    1    3    3    0    0  0.29144338164E+02 -0.65115471160E+02 -0.46140684120E+03  0.46688937677E+03  0.00000000000E+00 0.  1.
         22    1    3    3    0    0 -0.39867345432E+01  0.34648097719E+02 -0.49411863969E+02  0.60480716173E+02  0.00000000000E+00 0.  1.
</event>
<event>
 7    1  0.5064652E-006  0.1939702E+03  0.7818608E-02  0.1283189E+00
          2   -1    0    0  502    0  0.00000000000E+00  0.00000000000E+00  0.10114730728E+04  0.10114730728E+04  0.00000000000E+00 0. -1.
          1   -1    0    0  501    0 -0.00000000000E+00 -0.00000000000E+00 -0.27825608558E+03  0.27825608558E+03  0.00000000000E+00 0. -1.
         25    2    1    2    0    0 -0.74875059485E+02  0.20545913391E+03  0.40110190866E+03  0.47363213606E+03  0.12499971576E+03 0.  0.
          2    1    1    2  501    0  0.27073487443E+02 -0.19026419678E+03 -0.20247519695E+03  0.27915881443E+03  0.00000000000E+00 0. -1.
          1    1    1    2  502    0  0.47801572042E+02 -0.15194937138E+02  0.53459027554E+03  0.53693820791E+03  0.00000000000E+00 0. -1.
         22    1    3    3    0    0 -0.24290349489E+02  0.12975589166E+03  0.33797298179E+03  0.36283928800E+03  0.00000000000E+00 0.  1.
         22    1    3    3    0    0 -0.50584709996E+02  0.75703242256E+02  0.63128926865E+02  0.11079284806E+03  0.00000000000E+00 0.  1.
</event>
<event>
 7    1  0.5064652E-006  0.9320582E+02  0.7818608E-02  0.1303679E+00
          2   -1    0    0  502    0  0.00000000000E+00  0.00000000000E+00  0.22978582136E+04  0.22978582136E+04  0.00000000000E+00 0. -1.
          1   -1    0    0  501    0 -0.00000000000E+00 -0.00000000000E+00 -0.16850983242E+03  0.16850983242E+03  0.00000000000E+00 0. -1.
         25    2    1    2    0    0 -0.82447170053E+02 -0.73173840168E+02 -0.45053428924E+02  0.17264522269E+03  0.12499845890E+03 0.  0.
          2    1    1    2  501    0 -0.48302854708E+00  0.96863807849E+02 -0.18928771364E+02  0.98697157877E+02  0.00000000000E+00 0. -1.
          1    1    1    2  502    0  0.82930198600E+02 -0.23689967681E+02  0.21933305814E+04  0.21950256654E+04  0.00000000000E+00 0. -1.
         22    1    3    3    0    0 -0.95503085689E+02 -0.79919085067E+02 -0.70616410989E+02  0.14315927157E+03  0.00000000000E+00 0.  1.
         22    1    3    3    0    0  0.13055915637E+02  0.67452448989E+01  0.25562982065E+02  0.29485951128E+02  0.00000000000E+00 0.  1.
</event>
<event>
 7    1  0.5064652E-006  0.5237877E+02  0.7818608E-02  0.1447027E+00
          2   -1    0    0  502    0  0.00000000000E+00  0.00000000000E+00  0.14161198903E+04  0.14161198903E+04  0.00000000000E+00 0. -1.
          1   -1    0    0  501    0 -0.00000000000E+00 -0.00000000000E+00 -0.17744567248E+03  0.17744567248E+03  0.00000000000E+00 0. -1.
         25    2    1    2    0    0  0.44542850827E+01 -0.75859422664E+01  0.25471207763E+03  0.28386686530E+03  0.12499907019E+03 0.  0.
          2    1    1    2  501    0  0.43721565132E+02 -0.17616576913E+02 -0.15879775066E+03  0.16564614289E+03  0.00000000000E+00 0. -1.
          1    1    1    2  502    0 -0.48175850214E+02  0.25202519179E+02  0.11427598909E+04  0.11440525546E+04  0.00000000000E+00 0. -1.
         22    1    3    3    0    0 -0.19302794335E+02 -0.57896156290E+02  0.80710879687E+02  0.10118699957E+03  0.00000000000E+00 0. -1.
         22    1    3    3    0    0  0.23757079418E+02  0.50310214023E+02  0.17400119795E+03  0.18267986573E+03  0.00000000000E+00 0. -1.
</event>
<event>
 7    1  0.5064652E-006  0.1389689E+03  0.7818608E-02  0.1364964E+00
          2   -1    0    0  502    0  0.00000000000E+00  0.00000000000E+00  0.20967632635E+03  0.20967632635E+03  0.00000000000E+00 0. -1.
          1   -1    0    0  501    0 -0.00000000000E+00 -0.00000000000E+00 -0.28058423397E+03  0.28058423397E+03  0.00000000000E+00 0. -1.
         25    2    1    2    0    0  0.12300602082E+03 -0.37346220250E+02 -0.11925551138E+03  0.21533851300E+03  0.12499430732E+03 0.  0.
          2    1    1    2  501    0  0.18218391142E+02  0.28530313824E+02 -0.78122585147E+02  0.85141217355E+02  0.00000000000E+00 0. -1.
          1    1    1    2  502    0 -0.14122441196E+03  0.88159064256E+01  0.12647018891E+03  0.18978082997E+03  0.00000000000E+00 0. -1.
         22    1    3    3    0    0  0.12772480052E+02 -0.32980254486E+01  0.26408267211E+02  0.29519651008E+02  0.00000000000E+00 0.  1.
         22    1    3    3    0    0  0.11023354077E+03 -0.34048194801E+02 -0.14566377859E+03  0.18581886200E+03  0.00000000000E+00 0.  1.
</event>
<event>
 7    1  0.5064652E-006  0.1235537E+03  0.7818608E-02  0.1316943E+00
          2   -1    0    0  502    0  0.00000000000E+00  0.00000000000E+00  0.88047810184E+03  0.88047810184E+03  0.00000000000E+00 0. -1.
          1   -1    0    0  501    0 -0.00000000000E+00 -0.00000000000E+00 -0.28462150832E+03  0.28462150832E+03  0.00000000000E+00 0. -1.
         25    2    1    2    0    0 -0.55008907283E+02  0.83824292255E+02 -0.18867426650E+00  0.16024068738E+03  0.12499820175E+03 0.  0.
          2    1    1    2  501    0 -0.53748604537E+02 -0.20952154674E+02 -0.19528089213E+03  0.20362350578E+03  0.00000000000E+00 0. -1.
          1    1    1    2  502    0  0.10875751182E+03 -0.62872137581E+02  0.79132615993E+03  0.80123541699E+03  0.00000000000E+00 0. -1.
         22    1    3    3    0    0  0.13633863920E+02  0.41592545433E+02  0.49094315425E+02  0.65772896303E+02  0.00000000000E+00 0.  1.
         22    1    3    3    0    0 -0.68642771203E+02  0.42231746822E+02 -0.49282989692E+02  0.94467791077E+02  0.00000000000E+00 0.  1.
</event>
<event>
 7    1  0.5064652E-006  0.1810838E+03  0.7818608E-02  0.1185014E+00
          2   -1    0    0  502    0  0.00000000000E+00  0.00000000000E+00  0.39482944894E+03  0.39482944894E+03  0.00000000000E+00 0. -1.
          1   -1    0    0  501    0 -0.00000000000E+00 -0.00000000000E+00 -0.10890150610E+04  0.10890150610E+04  0.00000000000E+00 0. -1.
         25    2    1    2    0    0  0.57457239396E+02 -0.21349487691E+02 -0.38043912513E+02  0.14432427971E+03  0.12500009380E+03 0.  0.
          2    1    1    2  501    0 -0.16859264934E+03  0.11798641248E+03 -0.97065794411E+03  0.99223037617E+03  0.00000000000E+00 0. -1.
          1    1    1    2  502    0  0.11113540994E+03 -0.96636924790E+02  0.31451624461E+03  0.34728985401E+03  0.00000000000E+00 0. -1.
         22    1    3    3    0    0  0.64952075898E+01 -0.56902570887E+02  0.18626633597E+02  0.60224926520E+02  0.00000000000E+00 0. -1.
         22    1    3    3    0    0  0.50962031807E+02  0.35553083196E+02 -0.56670546110E+02  0.84099353190E+02  0.00000000000E+00 0. -1.
</event>
<event>
 7    1  0.5064652E-006  0.2470042E+03  0.7818608E-02  0.1260292E+00
          2   -1    0    0  502    0  0.00000000000E+00  0.00000000000E+00  0.67780880937E+03  0.67780880937E+03  0.00000000000E+00 0. -1.
          1   -1    0    0  501    0 -0.00000000000E+00 -0.00000000000E+00 -0.83575889923E+03  0.83575889923E+03  0.00000000000E+00 0. -1.
         25    2    1    2    0    0  0.15142331808E+03  0.23954298261E+03 -0.23157453704E+03  0.38673214993E+03  0.12500051122E+03 0.  0.
          2    1    1    2  501    0 -0.13056929950E+03 -0.19506884245E+03 -0.49934420850E+03  0.55176519810E+03  0.00000000000E+00 0. -1.
          1    1    1    2  502    0 -0.20854018585E+02 -0.44474140163E+02  0.57296865567E+03  0.57507036058E+03  0.00000000000E+00 0. -1.
         22    1    3    3    0    0  0.13964556723E+03  0.24703849745E+03 -0.18657342356E+03  0.33961529124E+03  0.00000000000E+00 0. -1.
         22    1    3    3    0    0  0.11777750856E+02 -0.74955148365E+01 -0.45001113480E+02  0.47116858685E+02  0.00000000000E+00 0. -1.
</event>
<event>
 7    1  0.5064652E-006  0.1229908E+03  0.7818608E-02  0.1264818E+00
          2   -1    0    0  502    0  0.00000000000E+00  0.00000000000E+00  0.94327110984E+03  0.94327110984E+03  0.00000000000E+00 0. -1.
          1   -1    0    0  501    0 -0.00000000000E+00 -0.00000000000E+00 -0.29102922865E+03  0.29102922865E+03  0.00000000000E+00 0. -1.
         25    2    1    2    0    0  0.67004829165E+01  0.42226606149E+02  0.89300745084E+02  0.15945788736E+03  0.12499684808E+03 0.  0.
          2    1    1    2  501    0 -0.56625100216E+02 -0.12231627122E+03 -0.23523043347E+03  0.27111073201E+03  0.00000000000E+00 0. -1.
          1    1    1    2  502    0  0.49924617300E+02  0.80089665073E+02  0.79817156957E+03  0.80373171913E+03  0.00000000000E+00 0. -1.
         22    1    3    3    0    0  0.13464191394E+02 -0.25502189541E+02  0.86669476777E+02  0.91341361530E+02  0.00000000000E+00 0.  1.
         22    1    3    3    0    0 -0.67637084777E+01  0.67728795689E+02  0.26312683066E+01  0.68116525828E+02  0.00000000000E+00 0.  1.
</event>
<event>
 7    1  0.5064652E-006  0.2038013E+03  0.7818608E-02  0.1186375E+00
          2   -1    0    0  502    0  0.00000000000E+00  0.00000000000E+00  0.10168531185E+04  0.10168531185E+04  0.00000000000E+00 0. -1.
          1   -1    0    0  501    0 -0.00000000000E+00 -0.00000000000E+00 -0.13136139580E+04  0.13136139580E+04  0.00000000000E+00 0. -1.
         25    2    1    2    0    0  0.14193575491E+03 -0.93009132389E+02 -0.17815558244E+03  0.27597592663E+03  0.12500737296E+03 0.  0.
          2    1    1    2  501    0  0.64436437535E+02  0.11162656937E+03 -0.10715523668E+04  0.10792761557E+04  0.00000000000E+00 0. -1.
          1    1    1    2  502    0 -0.20637219245E+03 -0.18617436985E+02  0.95294710976E+03  0.97521499413E+03  0.00000000000E+00 0. -1.
         22    1    3    3    0    0  0.16201415854E+03 -0.84557460049E+02 -0.17659644335E+03  0.25413550602E+03  0.00000000000E+00 0.  1.
         22    1    3    3    0    0 -0.20078403629E+02 -0.84516723400E+01 -0.15591390921E+01  0.21840420608E+02  0.00000000000E+00 0.  1.
</event>
<event>
 7    1  0.5064652E-006  0.2180864E+03  0.7818608E-02  0.1333327E+00
          2   -1    0    0  502    0  0.00000000000E+00  0.00000000000E+00  0.14827908889E+04  0.14827908889E+04  0.00000000000E+00 0. -1.
          1   -1    0    0  501    0 -0.00000000000E+00 -0.00000000000E+00 -0.38434051632E+03  0.38434051632E+03  0.00000000000E+00 0. -1.
         25    2    1    2    0    0 -0.16709449645E+02 -0.21489689083E+03  0.29865328491E+03  0.38894803987E+03  0.12500765470E+03 0.  0.
          2    1    1    2  501    0  0.28003972580E+02 -0.38319965074E+01 -0.32805077584E+03  0.32926618139E+03  0.00000000000E+00 0. -1.
          1    1    1    2  502    0 -0.11294522935E+02  0.21872888733E+03  0.11278478635E+04  0.11489171840E+04  0.00000000000E+00 0. -1.
         22    1    3    3    0    0  0.80207442376E+01 -0.22032237308E+03  0.24482381281E+03  0.32946165139E+03  0.00000000000E+00 0.  1.
         22    1    3    3    0    0 -0.24730193883E+02  0.54254822559E+01  0.53829472105E+02  0.59486388479E+02  0.00000000000E+00 0.  1.
</event>
<event>
 7    1  0.5064652E-006  0.4447995E+02  0.7818608E-02  0.1554514E+00
          2   -1    0    0  502    0  0.00000000000E+00  0.00000000000E+00  0.12524805880E+04  0.12524805880E+04  0.00000000000E+00 0. -1.
          1   -1    0    0  501    0 -0.00000000000E+00 -0.00000000000E+00 -0.19525287646E+04  0.19525287646E+04  0.00000000000E+00 0. -1.
         25    2    1    2    0    0 -0.45679184605E+02 -0.40711693785E+01  0.84211228558E+02  0.15754485360E+03  0.12500275019E+03 0.  0.
          2    1    1    2  501    0  0.34489067621E+02  0.28110545394E+02 -0.19154482305E+04  0.19159649324E+04  0.00000000000E+00 0. -1.
          1    1    1    2  502    0  0.11190116984E+02 -0.24039376016E+02  0.11311888254E+04  0.11314995665E+04  0.00000000000E+00 0. -1.
         22    1    3    3    0    0 -0.82800215050E+02  0.82821735097E+01  0.84257695195E+02  0.11842224964E+03  0.00000000000E+00 0.  1.
         22    1    3    3    0    0  0.37121030445E+02 -0.12353342888E+02 -0.46466637148E-01  0.39122603964E+02  0.00000000000E+00 0.  1.
</event>
<event>
 7    1  0.5064652E-006  0.7384977E+02  0.7818608E-02  0.1419865E+00
          2   -1    0    0  502    0  0.00000000000E+00  0.00000000000E+00  0.48625556688E+03  0.48625556688E+03  0.00000000000E+00 0. -1.
          1   -1    0    0  501    0 -0.00000000000E+00 -0.00000000000E+00 -0.17586351348E+03  0.17586351348E+03  0.00000000000E+00 0. -1.
         25    2    1    2    0    0  0.47320169589E+02  0.98431514021E+02  0.19705737229E+03  0.25765414152E+03  0.12500434900E+03 0.  0.
          2    1    1    2  501    0 -0.44162865431E+02 -0.57517800257E+02 -0.13474237833E+03  0.15301687667E+03  0.00000000000E+00 0. -1.
          1    1    1    2  502    0 -0.31573041580E+01 -0.40913713764E+02  0.24807705944E+03  0.25144806216E+03  0.00000000000E+00 0. -1.
         22    1    3    3    0    0 -0.22748514315E+02 -0.41493573024E+01  0.92302026672E+02  0.95154485954E+02  0.00000000000E+00 0.  1.
         22    1    3    3    0    0  0.70068683903E+02  0.10258087132E+03  0.10475534561E+03  0.16249965557E+03  0.00000000000E+00 0.  1.
</event>
<event>
 7    1  0.5064652E-006  0.1253194E+03  0.7818608E-02  0.1336163E+00
          2   -1    0    0  502    0  0.00000000000E+00  0.00000000000E+00  0.34994259900E+04  0.34994259900E+04  0.00000000000E+00 0. -1.
          1   -1    0    0  501    0 -0.00000000000E+00 -0.00000000000E+00 -0.55582953071E+02  0.55582953071E+02  0.00000000000E+00 0. -1.
         25    2    1    2    0    0 -0.10942971321E+03 -0.93624600599E+02  0.43943181954E+03  0.47902641735E+03  0.12500222608E+03 0.  0.
          2    1    1    2  501    0 -0.63174870455E+01  0.47566879824E+02 -0.17818767059E+02  0.51186200858E+02  0.00000000000E+00 0. -1.
          1    1    1    2  502    0  0.11574720026E+03  0.46057720775E+02  0.30222299844E+04  0.30247963248E+04  0.00000000000E+00 0. -1.
         22    1    3    3    0    0 -0.17697955492E+02 -0.91593162794E+02  0.27933386554E+03  0.29449946271E+03  0.00000000000E+00 0.  1.
         22    1    3    3    0    0 -0.91731757720E+02 -0.20314378054E+01  0.16009795401E+03  0.18452695465E+03  0.00000000000E+00 0.  1.
</event>
<event>
 7    1  0.5064652E-006  0.7431381E+02  0.7818608E-02  0.1509215E+00
          2   -1    0    0  502    0  0.00000000000E+00  0.00000000000E+00  0.95292983164E+02  0.95292983164E+02  0.00000000000E+00 0. -1.
          1   -1    0    0  501    0 -0.00000000000E+00 -0.00000000000E+00 -0.49349419367E+03  0.49349419367E+03  0.00000000000E+00 0. -1.
         25    2    1    2    0    0 -0.18099999079E+02  0.85388600976E+02 -0.12216372080E+03  0.19536623756E+03  0.12500067581E+03 0.  0.
          2    1    1    2  501    0  0.17185473502E+02 -0.12725665213E+02 -0.31172810637E+03  0.31246071010E+03  0.00000000000E+00 0. -1.
          1    1    1    2  502    0  0.91452557705E+00 -0.72662935763E+02  0.35690616666E+02  0.80960229179E+02  0.00000000000E+00 0. -1.
         22    1    3    3    0    0  0.39285895269E+02 -0.10179569112E+02 -0.26473973901E+02  0.48454891275E+02  0.00000000000E+00 0.  1.
         22    1    3    3    0    0 -0.57385894348E+02  0.95568170088E+02 -0.95689746902E+02  0.14691134628E+03  0.00000000000E+00 0.  1.
</event>
<event>
 7    1  0.5064652E-006  0.2411362E+03  0.7818608E-02  0.1328947E+00
          2   -1    0    0  502    0  0.00000000000E+00  0.00000000000E+00  0.17613651678E+04  0.17613651678E+04  0.00000000000E+00 0. -1.
          1   -1    0    0  501    0 -0.00000000000E+00 -0.00000000000E+00 -0.20046831155E+04  0.20046831155E+04  0.00000000000E+00 0. -1.
         25    2    1    2    0    0 -0.20053965497E+03 -0.93651621812E+02 -0.17548188780E+03  0.30887553435E+03  0.12499369299E+03 0.  0.
          2    1    1    2  501    0  0.22674254242E+03  0.89277503439E+02 -0.17539762245E+04  0.17708233252E+04  0.00000000000E+00 0. -1.
          1    1    1    2  502    0 -0.26202887449E+02  0.43741183736E+01  0.16861401646E+04  0.16863494238E+04  0.00000000000E+00 0. -1.
         22    1    3    3    0    0 -0.64298522461E+02 -0.17324067069E+02  0.89710632636E+01  0.67193029895E+02  0.00000000000E+00 0. -1.
         22    1    3    3    0    0 -0.13624113251E+03 -0.76327554743E+02 -0.18445295107E+03  0.24168250445E+03  0.00000000000E+00 0. -1.
</event>
<event>
 7    1  0.5064652E-006  0.7031074E+02  0.7818608E-02  0.1500356E+00
          2   -1    0    0  502    0  0.00000000000E+00  0.00000000000E+00  0.20750712995E+04  0.20750712995E+04  0.00000000000E+00 0. -1.
          1   -1    0    0  501    0 -0.00000000000E+00 -0.00000000000E+00 -0.32714907247E+02  0.32714907247E+02  0.00000000000E+00 0. -1.
         25    2    1    2    0    0 -0.46587170376E+02  0.77590731985E+02  0.64569236467E+03  0.66387804860E+03  0.12499898993E+03 0.  0.
          2    1    1    2  501    0  0.42802377564E+02 -0.53880315038E+02  0.26820771785E+02  0.73854489862E+02  0.00000000000E+00 0. -1.
          1    1    1    2  502    0  0.37847928116E+01 -0.23710416947E+02  0.13698432558E+04  0.13700536683E+04  0.00000000000E+00 0. -1.
         22    1    3    3    0    0 -0.80729426113E+02  0.82465068501E+02  0.55450954044E+03  0.56639081755E+03  0.00000000000E+00 0.  1.
         22    1    3    3    0    0  0.34142255737E+02 -0.48743365165E+01  0.91182824225E+02  0.97487231046E+02  0.00000000000E+00 0.  1.
</event>
<event>
 7    1  0.5064652E-006  0.7043645E+02  0.7818608E-02  0.1406766E+00
          2   -1    0    0  502    0  0.00000000000E+00  0.00000000000E+00  0.14368284797E+03  0.14368284797E+03  0.00000000000E+00 0. -1.
          1   -1    0    0  501    0 -0.00000000000E+00 -0.00000000000E+00 -0.39757331336E+03  0.39757331336E+03  0.00000000000E+00 0. -1.
         25    2    1    2    0    0 -0.94296699855E+02  0.18057408669E+02 -0.14818592190E+03  0.21633861969E+03  0.12500157323E+03 0.  0.
          2    1    1    2  501    0  0.27905496373E+02 -0.38600156314E+02 -0.20122798343E+03  0.20678827363E+03  0.00000000000E+00 0. -1.
          1    1    1    2  502    0  0.66391203482E+02  0.20542747645E+02  0.95523439937E+02  0.11812926800E+03  0.00000000000E+00 0. -1.
         22    1    3    3    0    0  0.25771702634E+02  0.23424688573E+02 -0.18171947753E+02  0.39282519987E+02  0.00000000000E+00 0.  1.
         22    1    3    3    0    0 -0.12006840249E+03 -0.53672799045E+01 -0.13001397414E+03  0.17705609970E+03  0.00000000000E+00 0.  1.
</event>
<event>
 7    1  0.5064652E-006  0.1587524E+03  0.7818608E-02  0.1355193E+00
          2   -1    0    0  502    0  0.00000000000E+00  0.00000000000E+00  0.14143391091E+03  0.14143391091E+03  0.00000000000E+00 0. -1.
          1   -1    0    0  501    0 -0.00000000000E+00 -0.00000000000E+00 -0.53653833022E+03  0.53653833022E+03  0.00000000000E+00 0. -1.
         25    2    1    2    0    0  0.14698816946E+03 -0.70837238486E+02 -0.24826711181E+03  0.32231197515E+03  0.12500005681E+03 0.  0.
          2    1    1    2  501    0 -0.12533663332E+03  0.94627671969E+02 -0.22313387629E+03  0.27285966119E+03  0.00000000000E+00 0. -1.
          1    1    1    2  502    0 -0.21651536137E+02 -0.23790433483E+02  0.76296568800E+02  0.82800604787E+02  0.00000000000E+00 0. -1.
         22    1    3    3    0    0  0.33264435216E+02  0.13074568539E+02  0.10119522521E+01  0.35755993065E+02  0.00000000000E+00 0.  1.
         22    1    3    3    0    0  0.11372373424E+03 -0.83911807025E+02 -0.24927906407E+03  0.28655598209E+03  0.00000000000E+00 0.  1.
</event>
<event>
 7    1  0.5064652E-006  0.8179956E+02  0.7818608E-02  0.1423115E+00
          2   -1    0    0  502    0  0.00000000000E+00  0.00000000000E+00  0.65012274991E+03  0.65012274991E+03  0.00000000000E+00 0. -1.
          1   -1    0    0  501    0 -0.00000000000E+00 -0.00000000000E+00 -0.29262158319E+03  0.29262158319E+03  0.00000000000E+00 0. -1.
         25    2    1    2    0    0  0.84204221299E+02 -0.20920125099E+02 -0.86321171949E+02  0.17493925446E+03  0.12499758200E+03 0.  0.
          2    1    1    2  501    0 -0.80725322937E+02 -0.15046611750E+02 -0.15100136955E+03  0.17188482159E+03  0.00000000000E+00 0. -1.
          1    1    1    2  502    0 -0.34788983619E+01  0.35966736849E+02  0.59482370822E+03  0.59592025705E+03  0.00000000000E+00 0. -1.
         22    1    3    3    0    0 -0.47089357475E+00  0.36496038549E+01 -0.86692688232E+02  0.86770752803E+02  0.00000000000E+00 0. -1.
         22    1    3    3    0    0  0.84675114874E+02 -0.24569728954E+02  0.37151628396E+00  0.88168501655E+02  0.00000000000E+00 0. -1.
</event>
<event>
 7    1  0.5064652E-006  0.9420181E+02  0.7818608E-02  0.1364539E+00
          2   -1    0    0  502    0  0.00000000000E+00  0.00000000000E+00  0.76721245856E+03  0.76721245856E+03  0.00000000000E+00 0. -1.
          1   -1    0    0  501    0 -0.00000000000E+00 -0.00000000000E+00 -0.10038921017E+03  0.10038921017E+03  0.00000000000E+00 0. -1.
         25    2    1    2    0    0  0.47034094858E+02 -0.45473212007E+02  0.23947573572E+03  0.27793648963E+03  0.12498017916E+03 0.  0.
          2    1    1    2  501    0  0.49441302669E+02  0.81901468893E+01 -0.67530449114E+02  0.84094485391E+02  0.00000000000E+00 0. -1.
          1    1    1    2  502    0 -0.96475397527E+02  0.37283065118E+02  0.49487796179E+03  0.50557069371E+03  0.00000000000E+00 0. -1.
         22    1    3    3    0    0  0.11242825607E+02 -0.24556428039E+02 -0.70797011961E+01  0.27920269603E+02  0.00000000000E+00 0. -1.
         22    1    3    3    0    0  0.35791269251E+02 -0.20916783968E+02  0.24655543691E+03  0.25001622003E+03  0.00000000000E+00 0. -1.
</event>
<event>
 7    1  0.7052977E-006  0.1479502E+03  0.7818608E-02  0.1252953E+00
          2   -1    0    0  502    0  0.00000000000E+00  0.00000000000E+00  0.11242414914E+04  0.11242414914E+04  0.00000000000E+00 0. -1.
          1   -1    0    0  501    0 -0.00000000000E+00 -0.00000000000E+00 -0.19971389272E+04  0.19971389272E+04  0.00000000000E+00 0. -1.
         25    2    1    2    0    0 -0.21948473626E+03  0.33397903858E+02 -0.73932670501E+03  0.78199609727E+03  0.12499979988E+03 0.  0.
          2    1    1    2  501    0  0.13131651619E+03 -0.32253734791E+02 -0.12310070615E+04  0.12384113680E+04  0.00000000000E+00 0. -1.
          1    1    1    2  502    0  0.88168220068E+02 -0.11441690672E+01  0.10974363307E+04  0.11009729534E+04  0.00000000000E+00 0. -1.
         22    1    3    3    0    0  0.16518395445E+02  0.80240060947E+00 -0.47517527616E+02  0.50313185802E+02  0.00000000000E+00 0.  1.
         22    1    3    3    0    0 -0.23600313171E+03  0.32595503248E+02 -0.69180917739E+03  0.73168291147E+03  0.00000000000E+00 0.  1.
</event>
<event>
 7    1  0.5064652E-006  0.9065068E+02  0.7818608E-02  0.1408764E+00
          2   -1    0    0  502    0  0.00000000000E+00  0.00000000000E+00  0.82152385492E+03  0.82152385492E+03  0.00000000000E+00 0. -1.
          1   -1    0    0  501    0 -0.00000000000E+00 -0.00000000000E+00 -0.19386279140E+03  0.19386279140E+03  0.00000000000E+00 0. -1.
         25    2    1    2    0    0 -0.82442152107E+02 -0.83206041664E+02 -0.83111904125E+02  0.19040857168E+03  0.12501152646E+03 0.  0.
          2    1    1    2  501    0  0.35951920749E+02  0.59130699484E+01 -0.48335626677E+02  0.60529644043E+02  0.00000000000E+00 0. -1.
          1    1    1    2  502    0  0.46490231358E+02  0.77292971715E+02  0.75910859432E+03  0.76444843060E+03  0.00000000000E+00 0. -1.
         22    1    3    3    0    0 -0.77046176288E+02 -0.11508837025E+03 -0.72821253270E+02  0.15647485797E+03  0.00000000000E+00 0. -1.
         22    1    3    3    0    0 -0.53959758192E+01  0.31882328586E+02 -0.10290650855E+02  0.33933713710E+02  0.00000000000E+00 0. -1.
</event>
<event>
 7    1  0.5064652E-006  0.8839208E+02  0.7818608E-02  0.1318298E+00
          2   -1    0    0  502    0  0.00000000000E+00  0.00000000000E+00  0.77972085568E+03  0.77972085568E+03  0.00000000000E+00 0. -1.
          1   -1    0    0  501    0 -0.00000000000E+00 -0.00000000000E+00 -0.80452587363E+03  0.80452587363E+03  0.00000000000E+00 0. -1.
         25    2    1    2    0    0  0.19392061355E+02 -0.20086095109E+02  0.39179877569E+03  0.41220255286E+03  0.12500064276E+03 0.  0.
          2    1    1    2  501    0  0.27469491436E+02  0.84507386371E+02 -0.78759729266E+03  0.79259420054E+03  0.00000000000E+00 0. -1.
          1    1    1    2  502    0 -0.46861552792E+02 -0.64421291263E+02  0.37099349903E+03  0.37944997591E+03  0.00000000000E+00 0. -1.
         22    1    3    3    0    0 -0.83284224352E+01  0.15080849568E+02 -0.61836052191E+00  0.17238822863E+02  0.00000000000E+00 0. -1.
         22    1    3    3    0    0  0.27720483791E+02 -0.35166944677E+02  0.39241713621E+03  0.39496373000E+03  0.00000000000E+00 0. -1.
</event>
<event>
 7    1  0.5064652E-006  0.2556661E+03  0.7818608E-02  0.1239677E+00
          2   -1    0    0  502    0  0.00000000000E+00  0.00000000000E+00  0.22970848298E+04  0.22970848298E+04  0.00000000000E+00 0. -1.
          1   -1    0    0  501    0 -0.00000000000E+00 -0.00000000000E+00 -0.95976576651E+03  0.95976576651E+03  0.00000000000E+00 0. -1.
         25    2    1    2    0    0 -0.11034025236E+03  0.18599761124E+03  0.27881083550E+03  0.37434186390E+03  0.12500506547E+03 0.  0.
          2    1    1    2  501    0  0.16777625086E+03 -0.19605127789E+03 -0.89330368763E+03  0.92982603333E+03  0.00000000000E+00 0. -1.
          1    1    1    2  502    0 -0.57435998498E+02  0.10053666655E+02  0.19518119154E+04  0.19526826991E+04  0.00000000000E+00 0. -1.
         22    1    3    3    0    0  0.12187445288E+02  0.78675314044E+02  0.13662666357E+03  0.15813027560E+03  0.00000000000E+00 0.  1.
         22    1    3    3    0    0 -0.12252769765E+03  0.10732229719E+03  0.14218417194E+03  0.21621158830E+03  0.00000000000E+00 0.  1.
</event>
<event>
 7    1  0.5064652E-006  0.8133847E+02  0.7818608E-02  0.1445333E+00
          2   -1    0    0  502    0  0.00000000000E+00  0.00000000000E+00  0.12302763617E+04  0.12302763617E+04  0.00000000000E+00 0. -1.
          1   -1    0    0  501    0 -0.00000000000E+00 -0.00000000000E+00 -0.31464072587E+03  0.31464072587E+03  0.00000000000E+00 0. -1.
         25    2    1    2    0    0  0.31889231406E+02  0.95009650297E+02  0.91396656812E+03  0.92790309139E+03  0.12500201060E+03 0.  0.
          2    1    1    2  501    0 -0.31372404829E+01 -0.30577090396E+02 -0.30286117487E+03  0.30441697058E+03  0.00000000000E+00 0. -1.
          1    1    1    2  502    0 -0.28751990923E+02 -0.64432559900E+02  0.30453024262E+03  0.31259702562E+03  0.00000000000E+00 0. -1.
         22    1    3    3    0    0  0.86464877259E+01  0.10574992041E+03  0.87414211266E+03  0.88055791436E+03  0.00000000000E+00 0.  1.
         22    1    3    3    0    0  0.23242743680E+02 -0.10740270115E+02  0.39824455460E+02  0.47345177036E+02  0.00000000000E+00 0.  1.
</event>
<event>
 7    1  0.5064652E-006  0.1170411E+03  0.7818608E-02  0.1248911E+00
          2   -1    0    0  502    0  0.00000000000E+00  0.00000000000E+00  0.24849185671E+04  0.24849185671E+04  0.00000000000E+00 0. -1.
          1   -1    0    0  501    0 -0.00000000000E+00 -0.00000000000E+00 -0.10733320854E+04  0.10733320854E+04  0.00000000000E+00 0. -1.
         25    2    1    2    0    0 -0.12025714606E+03  0.19037884687E+03  0.16881604779E+04  0.17076939658E+04  0.12500798066E+03 0.  0.
          2    1    1    2  501    0  0.35215528844E+02 -0.11141700689E+03 -0.10560472601E+04  0.10624922110E+04  0.00000000000E+00 0. -1.
          1    1    1    2  502    0  0.85041617215E+02 -0.78961839979E+02  0.77947326384E+03  0.78806447571E+03  0.00000000000E+00 0. -1.
         22    1    3    3    0    0  0.99081798157E+00  0.88421774217E+02  0.38977729535E+03  0.39968203844E+03  0.00000000000E+00 0. -1.
         22    1    3    3    0    0 -0.12124796404E+03  0.10195707265E+03  0.12983831826E+04  0.13080119274E+04  0.00000000000E+00 0. -1.
</event>
<event>
 7    1  0.5064652E-006  0.1584674E+03  0.7818608E-02  0.1277255E+00
          2   -1    0    0  502    0  0.00000000000E+00  0.00000000000E+00  0.85105425767E+02  0.85105425767E+02  0.00000000000E+00 0. -1.
          1   -1    0    0  501    0 -0.00000000000E+00 -0.00000000000E+00 -0.24729981388E+04  0.24729981388E+04  0.00000000000E+00 0. -1.
         25    2    1    2    0    0  0.19512855795E+03  0.42727412142E+02 -0.14838497460E+04  0.15024433680E+04  0.12500087735E+03 0.  0.
          2    1    1    2  501    0 -0.57037247611E+02  0.31091672825E+02 -0.89654676571E+03  0.89889712584E+03  0.00000000000E+00 0. -1.
          1    1    1    2  502    0 -0.13809131034E+03 -0.73819084968E+02 -0.74962012358E+01  0.15676307069E+03  0.00000000000E+00 0. -1.
         22    1    3    3    0    0  0.11630616849E+03 -0.33373781188E+02 -0.62226105330E+03  0.63391620310E+03  0.00000000000E+00 0. -1.
         22    1    3    3    0    0  0.78822389469E+02  0.76101193330E+02 -0.86158869275E+03  0.86852716490E+03  0.00000000000E+00 0. -1.
</event>
<event>
 7    1  0.5064652E-006  0.1496574E+03  0.7818608E-02  0.1347554E+00
          2   -1    0    0  502    0  0.00000000000E+00  0.00000000000E+00  0.12426098498E+04  0.12426098498E+04  0.00000000000E+00 0. -1.
          1   -1    0    0  501    0 -0.00000000000E+00 -0.00000000000E+00 -0.27046458819E+03  0.27046458819E+03  0.00000000000E+00 0. -1.
         25    2    1    2    0    0  0.11950242000E+03  0.13767667376E+03  0.20053201805E+03  0.29845227581E+03  0.12499990315E+03 0.  0.
          2    1    1    2  501    0 -0.26242842523E+02 -0.25247318169E+02 -0.21459078707E+03  0.21765872313E+03  0.00000000000E+00 0. -1.
          1    1    1    2  502    0 -0.93259577473E+02 -0.11242935559E+03  0.98620403065E+03  0.99696343908E+03  0.00000000000E+00 0. -1.
         22    1    3    3    0    0  0.10719890699E+03  0.15414510474E+03  0.20438788272E+03  0.27753689048E+03  0.00000000000E+00 0.  1.
         22    1    3    3    0    0  0.12303513004E+02 -0.16468430974E+02 -0.38558646695E+01  0.20915385326E+02  0.00000000000E+00 0.  1.
</event>
<event>
 7    1  0.5064652E-006  0.1399144E+03  0.7818608E-02  0.1256081E+00
          2   -1    0    0  502    0  0.00000000000E+00  0.00000000000E+00  0.59115144299E+03  0.59115144299E+03  0.00000000000E+00 0. -1.
          1   -1    0    0  501    0 -0.00000000000E+00 -0.00000000000E+00 -0.44832770644E+03  0.44832770644E+03  0.00000000000E+00 0. -1.
         25    2    1    2    0    0  0.38511866784E+02 -0.96696875496E+02  0.14607861975E+03  0.21862548291E+03  0.12499875605E+03 0.  0.
          2    1    1    2  501    0  0.90392691808E+02  0.29338187845E-01 -0.39081631696E+03  0.40113368495E+03  0.00000000000E+00 0. -1.
          1    1    1    2  502    0 -0.12890455859E+03  0.96667537309E+02  0.38756143376E+03  0.41971998158E+03  0.00000000000E+00 0. -1.
         22    1    3    3    0    0 -0.11082592839E+02 -0.25280225394E+02 -0.17985785938E+02  0.32945442110E+02  0.00000000000E+00 0.  1.
         22    1    3    3    0    0  0.49594459623E+02 -0.71416650102E+02  0.16406440568E+03  0.18568004080E+03  0.00000000000E+00 0.  1.
</event>
<event>
 7    1  0.5064652E-006  0.1327808E+03  0.7818608E-02  0.1368328E+00
          2   -1    0    0  502    0  0.00000000000E+00  0.00000000000E+00  0.13332111764E+04  0.13332111764E+04  0.00000000000E+00 0. -1.
          1   -1    0    0  501    0 -0.00000000000E+00 -0.00000000000E+00 -0.26462438780E+03  0.26462438780E+03  0.00000000000E+00 0. -1.
         25    2    1    2    0    0  0.13184508550E+03 -0.70112876468E+02  0.31913034708E+03  0.37385597192E+03  0.12500066917E+03 0.  0.
          2    1    1    2  501    0 -0.31638654854E+02 -0.13632656823E+02 -0.23166113298E+03  0.23420874097E+03  0.00000000000E+00 0. -1.
          1    1    1    2  502    0 -0.10020643065E+03  0.83745533291E+02  0.98111757453E+03  0.98977085133E+03  0.00000000000E+00 0. -1.
         22    1    3    3    0    0  0.71740827497E+02 -0.80550296640E+02  0.10249867792E+03  0.14879877551E+03  0.00000000000E+00 0. -1.
         22    1    3    3    0    0  0.60104258008E+02  0.10437420172E+02  0.21663166916E+03  0.22505719641E+03  0.00000000000E+00 0. -1.
</event>
<event>
 7    1  0.5064652E-006  0.7692803E+02  0.7818608E-02  0.1388509E+00
          2   -1    0    0  502    0  0.00000000000E+00  0.00000000000E+00  0.79321682165E+02  0.79321682165E+02  0.00000000000E+00 0. -1.
          1   -1    0    0  501    0 -0.00000000000E+00 -0.00000000000E+00 -0.10441216885E+04  0.10441216885E+04  0.00000000000E+00 0. -1.
         25    2    1    2    0    0 -0.10028444530E+03  0.68926526116E+02 -0.27718617745E+03  0.32751379831E+03  0.12500110057E+03 0.  0.
          2    1    1    2  501    0  0.46763995629E+02 -0.18848147611E+02 -0.71567271704E+03  0.71744655681E+03  0.00000000000E+00 0. -1.
          1    1    1    2  502    0  0.53520449671E+02 -0.50078378505E+02  0.28058888148E+02  0.78483015556E+02  0.00000000000E+00 0. -1.
         22    1    3    3    0    0  0.14429502172E+02  0.53061829285E+02 -0.12254839623E+03  0.13432005687E+03  0.00000000000E+00 0.  1.
         22    1    3    3    0    0 -0.11471394747E+03  0.15864696831E+02 -0.15463778122E+03  0.19319374144E+03  0.00000000000E+00 0.  1.
</event>
<event>
 7    1  0.5064652E-006  0.2321261E+03  0.7818608E-02  0.1268442E+00
          2   -1    0    0  502    0  0.00000000000E+00  0.00000000000E+00  0.15155870841E+04  0.15155870841E+04  0.00000000000E+00 0. -1.
          1   -1    0    0  501    0 -0.00000000000E+00 -0.00000000000E+00 -0.94949203741E+03  0.94949203741E+03  0.00000000000E+00 0. -1.
         25    2    1    2    0    0  0.10289394778E+03 -0.24876883601E+03 -0.30062040474E+03  0.42245838075E+03  0.12500142984E+03 0.  0.
          2    1    1    2  501    0 -0.40621305447E+02  0.26081617779E+02 -0.57775071928E+03  0.57976394755E+03  0.00000000000E+00 0. -1.
          1    1    1    2  502    0 -0.62272642331E+02  0.22268721823E+03  0.14444661707E+04  0.14628567933E+04  0.00000000000E+00 0. -1.
         22    1    3    3    0    0  0.31399557779E+01 -0.16915340842E+03 -0.17079308675E+03  0.24040177492E+03  0.00000000000E+00 0. -1.
         22    1    3    3    0    0  0.99753992000E+02 -0.79615427590E+02 -0.12982731798E+03  0.18205660583E+03  0.00000000000E+00 0. -1.
</event>
<event>
 7    1  0.1092392E-005  0.7865317E+02  0.7818608E-02  0.1400268E+00
          2   -1    0    0  502    0  0.00000000000E+00  0.00000000000E+00  0.21835986264E+04  0.21835986264E+04  0.00000000000E+00 0. -1.
          1   -1    0    0  501    0 -0.00000000000E+00 -0.00000000000E+00 -0.61305788208E+03  0.61305788208E+03  0.00000000000E+00 0. -1.
         25    2    1    2    0    0  0.16536831833E+02  0.79255370452E+02 -0.15555594817E+03  0.21535132911E+03  0.12499464543E+03 0.  0.
          2    1    1    2  501    0  0.28121307655E+02 -0.74651139884E+02 -0.42364733803E+03  0.43109241196E+03  0.00000000000E+00 0. -1.
          1    1    1    2  502    0 -0.44658139488E+02 -0.46042305677E+01  0.21497440305E+04  0.21502127674E+04  0.00000000000E+00 0. -1.
         22    1    3    3    0    0  0.68890027826E+02  0.38603872347E+02 -0.10792001599E+03  0.13372667926E+03  0.00000000000E+00 0.  1.
         22    1    3    3    0    0 -0.52353195992E+02  0.40651498105E+02 -0.47635932179E+02  0.81624649851E+02  0.00000000000E+00 0.  1.
</event>
<event>
 7    1  0.5064652E-006  0.1148613E+03  0.7818608E-02  0.1262313E+00
          2   -1    0    0  502    0  0.00000000000E+00  0.00000000000E+00  0.21750056969E+04  0.21750056969E+04  0.00000000000E+00 0. -1.
          1   -1    0    0  501    0 -0.00000000000E+00 -0.00000000000E+00 -0.19199761458E+03  0.19199761458E+03  0.00000000000E+00 0. -1.
         25    2    1    2    0    0 -0.78671764009E+02 -0.98947659493E+02  0.89135720314E+03  0.90891292042E+03  0.12500059013E+03 0.  0.
          2    1    1    2  501    0  0.11552728204E+03  0.21683708184E+01 -0.16265361671E+03  0.19951805371E+03  0.00000000000E+00 0. -1.
          1    1    1    2  502    0 -0.36855518033E+02  0.96779288675E+02  0.12543044959E+04  0.12585723373E+04  0.00000000000E+00 0. -1.
         22    1    3    3    0    0  0.93900126291E+01 -0.78475512322E+02  0.55571991536E+03  0.56131203683E+03  0.00000000000E+00 0. -1.
         22    1    3    3    0    0 -0.88061776638E+02 -0.20472147171E+02  0.33563728779E+03  0.34760088358E+03  0.00000000000E+00 0. -1.
</event>
<event>
 7    1  0.5064652E-006  0.1331477E+03  0.7818608E-02  0.1254715E+00
          2   -1    0    0  502    0  0.00000000000E+00  0.00000000000E+00  0.82856518720E+03  0.82856518720E+03  0.00000000000E+00 0. -1.
          1   -1    0    0  501    0 -0.00000000000E+00 -0.00000000000E+00 -0.11306020751E+04  0.11306020751E+04  0.00000000000E+00 0. -1.
         25    2    1    2    0    0  0.35962309890E+02  0.18424731516E+03  0.48229561102E+03  0.53242382712E+03  0.12500285758E+03 0.  0.
          2    1    1    2  501    0 -0.63231487395E+02 -0.72606460203E+02 -0.10930742758E+04  0.10973063800E+04  0.00000000000E+00 0. -1.
          1    1    1    2  502    0  0.27269177505E+02 -0.11164085496E+03  0.30874177690E+03  0.32943705521E+03  0.00000000000E+00 0. -1.
         22    1    3    3    0    0  0.16166708828E+02 -0.17276460624E+01  0.12574578353E+01  0.16307312330E+02  0.00000000000E+00 0. -1.
         22    1    3    3    0    0  0.19795601063E+02  0.18597496122E+03  0.48103815318E+03  0.51611651479E+03  0.00000000000E+00 0. -1.
</event>
<event>
 7    1  0.5064652E-006  0.2334588E+03  0.7818608E-02  0.1214797E+00
          2   -1    0    0  502    0  0.00000000000E+00  0.00000000000E+00  0.50886669445E+03  0.50886669445E+03  0.00000000000E+00 0. -1.
          1   -1    0    0  501    0 -0.00000000000E+00 -0.00000000000E+00 -0.17391583027E+04  0.17391583027E+04  0.00000000000E+00 0. -1.
         25    2    1    2    0    0  0.77773318798E+02 -0.29608990382E+03 -0.16141853576E+03  0.36796619651E+03  0.12500103129E+03 0.  0.
          2    1    1    2  501    0 -0.33504256236E+02  0.75563763744E+02 -0.14420074223E+04  0.14443745441E+04  0.00000000000E+00 0. -1.
          1    1    1    2  502    0 -0.44269062562E+02  0.22052614008E+03  0.37313434984E+03  0.43568425653E+03  0.00000000000E+00 0. -1.
         22    1    3    3    0    0  0.55199420237E+00 -0.14611389300E+03 -0.19287377197E+02  0.14738241871E+03  0.00000000000E+00 0.  1.
         22    1    3    3    0    0  0.77221324595E+02 -0.14997601082E+03 -0.14213115856E+03  0.22058377780E+03  0.00000000000E+00 0.  1.
</event>
<event>
 7    1  0.5064652E-006  0.5032775E+02  0.7818608E-02  0.1456650E+00
          2   -1    0    0  502    0  0.00000000000E+00  0.00000000000E+00  0.50636181607E+03  0.50636181607E+03  0.00000000000E+00 0. -1.
          1   -1    0    0  501    0 -0.00000000000E+00 -0.00000000000E+00 -0.24448173094E+03  0.24448173094E+03  0.00000000000E+00 0. -1.
         25    2    1    2    0    0 -0.19389074472E+02 -0.35746891351E+02 -0.88755284677E+02  0.15861066223E+03  0.12500426058E+03 0.  0.
          2    1    1    2  501    0 -0.24299183532E+02  0.49187585184E+02 -0.11338827747E+03  0.12596336898E+03  0.00000000000E+00 0. -1.
          1    1    1    2  502    0  0.43688258004E+02 -0.13440693833E+02  0.46402364727E+03  0.46626951580E+03  0.00000000000E+00 0. -1.
         22    1    3    3    0    0 -0.55301601100E+02 -0.39646966906E+02 -0.99841458646E+02  0.12082411156E+03  0.00000000000E+00 0. -1.
         22    1    3    3    0    0  0.35912526628E+02  0.39000755553E+01  0.11086173969E+02  0.37786550668E+02  0.00000000000E+00 0. -1.
</event>
<event>
 7    1  0.5064652E-006  0.7929856E+02  0.7818608E-02  0.1334328E+00
          2   -1    0    0  502    0  0.00000000000E+00  0.00000000000E+00  0.32444324322E+03  0.32444324322E+03  0.00000000000E+00 0. -1.
          1   -1    0    0  501    0 -0.00000000000E+00 -0.00000000000E+00 -0.71392855494E+03  0.71392855494E+03  0.00000000000E+00 0. -1.
         25    2    1    2    0    0 -0.52237185257E+02 -0.21264558223E+02 -0.86750869342E+02  0.16227190146E+03  0.12500220683E+03 0.  0.
          2    1    1    2  501    0 -0.80833782842E+01  0.76631192782E+02 -0.58097470145E+03  0.58606252604E+03  0.00000000000E+00 0. -1.
          1    1    1    2  502    0  0.60320563541E+02 -0.55366634558E+02  0.27824025907E+03  0.29003737065E+03  0.00000000000E+00 0. -1.
         22    1    3    3    0    0 -0.80143262717E+02  0.21525072487E+02 -0.69836622490E+02  0.10845932484E+03  0.00000000000E+00 0.  1.
         22    1    3    3    0    0  0.27906077460E+02 -0.42789630710E+02 -0.16914246852E+02  0.53812576616E+02  0.00000000000E+00 0.  1.
</event>
<event>
 7    1  0.5064652E-006  0.1253420E+03  0.7818608E-02  0.1260310E+00
          2   -1    0    0  502    0  0.00000000000E+00  0.00000000000E+00  0.22176320853E+03  0.22176320853E+03  0.00000000000E+00 0. -1.
          1   -1    0    0  501    0 -0.00000000000E+00 -0.00000000000E+00 -0.76511215829E+03  0.76511215829E+03  0.00000000000E+00 0. -1.
         25    2    1    2    0    0 -0.50388103678E+02 -0.93996475849E+02 -0.10412511362E+03  0.19452853260E+03  0.12500004897E+03 0.  0.
          2    1    1    2  501    0  0.90873479167E+02 -0.33298985780E+02 -0.58597002924E+03  0.59390882031E+03  0.00000000000E+00 0. -1.
          1    1    1    2  502    0 -0.40485375489E+02  0.12729546163E+03  0.14674619310E+03  0.19843801392E+03  0.00000000000E+00 0. -1.
         22    1    3    3    0    0  0.32570369000E+02 -0.53511725200E+02 -0.11371065279E+02  0.63668161559E+02  0.00000000000E+00 0. -1.
         22    1    3    3    0    0 -0.82958472678E+02 -0.40484750649E+02 -0.92754048344E+02  0.13086037104E+03  0.00000000000E+00 0. -1.
</event>
<event>
 7    1  0.5064652E-006  0.4908821E+02  0.7818608E-02  0.1484084E+00
          2   -1    0    0  502    0  0.00000000000E+00  0.00000000000E+00  0.76929796117E+03  0.76929796117E+03  0.00000000000E+00 0. -1.
          1   -1    0    0  501    0 -0.00000000000E+00 -0.00000000000E+00 -0.13332363049E+03  0.13332363049E+03  0.00000000000E+00 0. -1.
         25    2    1    2    0    0 -0.33357642925E+02 -0.80288698216E+02 -0.23559051191E+01  0.15228095592E+03  0.12499972737E+03 0.  0.
          2    1    1    2  501    0  0.17638524823E+02  0.34228516332E+02 -0.48422037886E+02  0.61866005538E+02  0.00000000000E+00 0. -1.
          1    1    1    2  502    0  0.15719118102E+02  0.46060181885E+02  0.68675227368E+03  0.68847463021E+03  0.00000000000E+00 0. -1.
         22    1    3    3    0    0 -0.68064562249E+02 -0.52289124689E+02 -0.39273381596E+02  0.94389277447E+02  0.00000000000E+00 0.  1.
         22    1    3    3    0    0  0.34706919324E+02 -0.27999573527E+02  0.36917476477E+02  0.57891678470E+02  0.00000000000E+00 0.  1.
</event>
<event>
 7    1  0.5064652E-006  0.9526234E+02  0.7818608E-02  0.1356655E+00
          2   -1    0    0  502    0  0.00000000000E+00  0.00000000000E+00  0.64202319405E+03  0.64202319405E+03  0.00000000000E+00 0. -1.
          1   -1    0    0  501    0 -0.00000000000E+00 -0.00000000000E+00 -0.30753837186E+03  0.30753837186E+03  0.00000000000E+00 0. -1.
         25    2    1    2    0    0  0.13791356086E+03 -0.36308775707E+02 -0.20162279145E+02  0.19070786916E+03  0.12499798558E+03 0.  0.
          2    1    1    2  501    0 -0.86328820276E+02  0.24368647220E+02 -0.19080435860E+03  0.21083832536E+03  0.00000000000E+00 0. -1.
          1    1    1    2  502    0 -0.51584740579E+02  0.11940128488E+02  0.54545145994E+03  0.54801537139E+03  0.00000000000E+00 0. -1.
         22    1    3    3    0    0  0.14564847188E+03 -0.20557370659E+02 -0.50618391090E+02  0.15555804179E+03  0.00000000000E+00 0. -1.
         22    1    3    3    0    0 -0.77349110225E+01 -0.15751405049E+02  0.30456111944E+02  0.35149827372E+02  0.00000000000E+00 0. -1.
</event>
<event>
 7    1  0.5064652E-006  0.5514110E+02  0.7818608E-02  0.1423333E+00
          2   -1    0    0  502    0  0.00000000000E+00  0.00000000000E+00  0.21016422866E+04  0.21016422866E+04  0.00000000000E+00 0. -1.
          1   -1    0    0  501    0 -0.00000000000E+00 -0.00000000000E+00 -0.33496143180E+03  0.33496143180E+03  0.00000000000E+00 0. -1.
         25    2    1    2    0    0 -0.21580575009E+02  0.25178094209E+01  0.11652409662E+03  0.17226514533E+03  0.12500141848E+03 0.  0.
          2    1    1    2  501    0  0.11162459902E+02  0.52337795088E+02 -0.30435774809E+03  0.30902667219E+03  0.00000000000E+00 0. -1.
          1    1    1    2  502    0  0.10418115108E+02 -0.54855604509E+02  0.19545145062E+04  0.19553119008E+04  0.00000000000E+00 0. -1.
         22    1    3    3    0    0  0.76845726554E+01 -0.29509489756E+02 -0.14846792028E+02  0.33915923636E+02  0.00000000000E+00 0.  1.
         22    1    3    3    0    0 -0.29265147665E+02  0.32027299177E+02  0.13137088865E+03  0.13834922170E+03  0.00000000000E+00 0.  1.
</event>
<event>
 7    1  0.5064652E-006  0.2825536E+02  0.7818608E-02  0.1650600E+00
          2   -1    0    0  502    0  0.00000000000E+00  0.00000000000E+00  0.91396822940E+03  0.91396822940E+03  0.00000000000E+00 0. -1.
          1   -1    0    0  501    0 -0.00000000000E+00 -0.00000000000E+00 -0.51792542115E+02  0.51792542115E+02  0.00000000000E+00 0. -1.
         25    2    1    2    0    0 -0.85117572197E+01  0.19273463962E+01  0.55802540803E+03  0.57192039126E+03  0.12499765302E+03 0.  0.
          2    1    1    2  501    0 -0.12476460420E+02  0.19852970413E+02 -0.41072899817E+02  0.47294667756E+02  0.00000000000E+00 0. -1.
          1    1    1    2  502    0  0.20988217640E+02 -0.21780316809E+02  0.34522317908E+03  0.34654571250E+03  0.00000000000E+00 0. -1.
         22    1    3    3    0    0 -0.30980845244E+02  0.57688422005E+01  0.30346372645E+02  0.43749224508E+02  0.00000000000E+00 0.  1.
         22    1    3    3    0    0  0.22469088025E+02 -0.38414958043E+01  0.52767903538E+03  0.52817116675E+03  0.00000000000E+00 0.  1.
</event>
<event>
 7    1  0.5064652E-006  0.1184549E+03  0.7818608E-02  0.1421011E+00
          2   -1    0    0  502    0  0.00000000000E+00  0.00000000000E+00  0.21757336526E+04  0.21757336526E+04  0.00000000000E+00 0. -1.
          1   -1    0    0  501    0 -0.00000000000E+00 -0.00000000000E+00 -0.14577196519E+03  0.14577196519E+03  0.00000000000E+00 0. -1.
         25    2    1    2    0    0  0.89175102778E+02  0.96604637516E+02  0.27059751115E+03  0.32577642945E+03  0.12499045564E+03 0.  0.
          2    1    1    2  501    0 -0.63882627430E+02 -0.98436891092E+02 -0.88943681935E+02  0.14724737747E+03  0.00000000000E+00 0. -1.
          1    1    1    2  502    0 -0.25292475348E+02  0.18322535764E+01  0.18483078582E+04  0.18484818109E+04  0.00000000000E+00 0. -1.
         22    1    3    3    0    0  0.69821311448E+02 -0.12163406327E+02  0.10188263324E+03  0.12410896399E+03  0.00000000000E+00 0. -1.
         22    1    3    3    0    0  0.19353791331E+02  0.10876804384E+03  0.16871487791E+03  0.20166746547E+03  0.00000000000E+00 0. -1.
</event>
<event>
 7    1  0.5064652E-006  0.4994733E+02  0.7818608E-02  0.1497895E+00
          2   -1    0    0  502    0  0.00000000000E+00  0.00000000000E+00  0.98545134907E+02  0.98545134907E+02  0.00000000000E+00 0. -1.
          1   -1    0    0  501    0 -0.00000000000E+00 -0.00000000000E+00 -0.11017604100E+04  0.11017604100E+04  0.00000000000E+00 0. -1.
         25    2    1    2    0    0  0.28672491559E+02 -0.64858573116E+02 -0.28685978552E+03  0.32084856639E+03  0.12500607876E+03 0.  0.
          2    1    1    2  501    0  0.19673115325E+01  0.49271406766E+02 -0.79348378664E+03  0.79501450396E+03  0.00000000000E+00 0. -1.
          1    1    1    2  502    0 -0.30639803091E+02  0.15587166350E+02  0.77128297108E+02  0.84442474521E+02  0.00000000000E+00 0. -1.
         22    1    3    3    0    0  0.41518567292E+02  0.27890605303E+02 -0.95216705319E+02  0.10755416434E+03  0.00000000000E+00 0.  1.
         22    1    3    3    0    0 -0.12846075733E+02 -0.92749178418E+02 -0.19164308020E+03  0.21329440206E+03  0.00000000000E+00 0.  1.
</event>
<event>
 7    1  0.5064652E-006  0.2948943E+02  0.7818608E-02  0.1605290E+00
          2   -1    0    0  502    0  0.00000000000E+00  0.00000000000E+00  0.15761158625E+04  0.15761158625E+04  0.00000000000E+00 0. -1.
          1   -1    0    0  501    0 -0.00000000000E+00 -0.00000000000E+00 -0.61839607217E+02  0.61839607217E+02  0.00000000000E+00 0. -1.
         25    2    1    2    0    0  0.45905100402E+02 -0.14529123062E+02  0.23747242404E+03  0.27265867652E+03  0.12502490969E+03 0.  0.
          2    1    1    2  501    0 -0.17811138303E+02  0.23174172104E+02 -0.39237583858E+02  0.48927158995E+02  0.00000000000E+00 0. -1.
          1    1    1    2  502    0 -0.28093962100E+02 -0.86450490412E+01  0.13160414151E+04  0.13163696342E+04  0.00000000000E+00 0. -1.
         22    1    3    3    0    0 -0.16413374366E+02  0.40717678774E+02  0.12657226613E+03  0.13396964871E+03  0.00000000000E+00 0. -1.
         22    1    3    3    0    0  0.62318474768E+02 -0.55246801836E+02  0.11090015791E+03  0.13868902781E+03  0.00000000000E+00 0. -1.
</event>
<event>
 7    1  0.5064652E-006  0.5219473E+02  0.7818608E-02  0.1484210E+00
          2   -1    0    0  502    0  0.00000000000E+00  0.00000000000E+00  0.54765117661E+03  0.54765117661E+03  0.00000000000E+00 0. -1.
          1   -1    0    0  501    0 -0.00000000000E+00 -0.00000000000E+00 -0.82102292591E+02  0.82102292591E+02  0.00000000000E+00 0. -1.
         25    2    1    2    0    0 -0.26234876894E+01  0.54289491318E+02  0.29690568914E+03  0.32669986698E+03  0.12500233313E+03 0.  0.
          2    1    1    2  501    0 -0.31437002962E+02 -0.42081836659E+02 -0.55262246527E+02  0.76243570372E+02  0.00000000000E+00 0. -1.
          1    1    1    2  502    0  0.34060490652E+02 -0.12207654659E+02  0.22390544141E+03  0.22681003185E+03  0.00000000000E+00 0. -1.
         22    1    3    3    0    0 -0.10770629626E+02  0.63190692316E+02  0.30532805990E+03  0.31198444548E+03  0.00000000000E+00 0. -1.
         22    1    3    3    0    0  0.81471419363E+01 -0.89012009980E+01 -0.84223707578E+01  0.14715421507E+02  0.00000000000E+00 0. -1.
</event>
<event>
 7    1  0.5064652E-006  0.5913811E+02  0.7818608E-02  0.1543882E+00
          2   -1    0    0  502    0  0.00000000000E+00  0.00000000000E+00  0.25588944387E+03  0.25588944387E+03  0.00000000000E+00 0. -1.
          1   -1    0    0  501    0 -0.00000000000E+00 -0.00000000000E+00 -0.28811880882E+03  0.28811880882E+03  0.00000000000E+00 0. -1.
         25    2    1    2    0    0  0.26187083593E+02  0.43984513640E+02  0.59673118479E+02  0.14767022515E+03  0.12500085416E+03 0.  0.
          2    1    1    2  501    0 -0.46446553484E+02 -0.37232996974E+02 -0.23971256012E+03  0.24699329925E+03  0.00000000000E+00 0. -1.
          1    1    1    2  502    0  0.20259469891E+02 -0.67515166661E+01  0.14781007669E+03  0.14934472829E+03  0.00000000000E+00 0. -1.
         22    1    3    3    0    0  0.54659729701E+02  0.74860318164E+02  0.35841370095E+02  0.99379862632E+02  0.00000000000E+00 0. -1.
         22    1    3    3    0    0 -0.28472646108E+02 -0.30875804524E+02  0.23831748384E+02  0.48290362521E+02  0.00000000000E+00 0. -1.
</event>
<event>
 7    1  0.5064652E-006  0.6741353E+02  0.7818608E-02  0.1384846E+00
          2   -1    0    0  502    0  0.00000000000E+00  0.00000000000E+00  0.65370797046E+03  0.65370797046E+03  0.00000000000E+00 0. -1.
          1   -1    0    0  501    0 -0.00000000000E+00 -0.00000000000E+00 -0.42419919868E+03  0.42419919868E+03  0.00000000000E+00 0. -1.
         25    2    1    2    0    0 -0.18336203701E+02 -0.18268192531E+02  0.94958188838E+02  0.15909349428E+03  0.12499495618E+03 0.  0.
          2    1    1    2  501    0 -0.15507754658E+02  0.66916590990E+02 -0.38743380964E+03  0.39347589183E+03  0.00000000000E+00 0. -1.
          1    1    1    2  502    0  0.33843958359E+02 -0.48648398459E+02  0.52198439257E+03  0.52533778303E+03  0.00000000000E+00 0. -1.
         22    1    3    3    0    0 -0.24124728069E+02  0.49795434585E+02  0.23134312640E+02  0.59973195940E+02  0.00000000000E+00 0.  1.
         22    1    3    3    0    0  0.57885243677E+01 -0.68063627116E+02  0.71823876198E+02  0.99120298338E+02  0.00000000000E+00 0.  1.
</event>
<event>
 7    1  0.5064652E-006  0.1042582E+03  0.7818608E-02  0.1414629E+00
          2   -1    0    0  502    0  0.00000000000E+00  0.00000000000E+00  0.92183829277E+03  0.92183829277E+03  0.00000000000E+00 0. -1.
          1   -1    0    0  501    0 -0.00000000000E+00 -0.00000000000E+00 -0.10619406810E+04  0.10619406810E+04  0.00000000000E+00 0. -1.
         25    2    1    2    0    0  0.71876418635E+02  0.10149122125E+03  0.21831246347E+03  0.28062769518E+03  0.12499953620E+03 0.  0.
          2    1    1    2  501    0 -0.28893608066E+02 -0.90103808002E+01 -0.10266917639E+04  0.10271377734E+04  0.00000000000E+00 0. -1.
          1    1    1    2  502    0 -0.42982810569E+02 -0.92480840454E+02  0.66827691218E+03  0.67601350519E+03  0.00000000000E+00 0. -1.
         22    1    3    3    0    0  0.95416709508E+01  0.10641990759E+03  0.17326790063E+03  0.20356327174E+03  0.00000000000E+00 0. -1.
         22    1    3    3    0    0  0.62334747684E+02 -0.49286863373E+01  0.45044562840E+02  0.77064423435E+02  0.00000000000E+00 0. -1.
</event>
