<event>
 7    1  0.5213103E-005  0.3455496E+03  0.7818608E-02  0.1204803E+00
          2   -1    0    0  502    0  0.00000000000E+00  0.00000000000E+00  0.19488542274E+04  0.19488542274E+04  0.00000000000E+00 0. -1.
          1   -1    0    0  501    0 -0.00000000000E+00 -0.00000000000E+00 -0.41190546799E+03  0.41190546799E+03  0.00000000000E+00 0. -1.
         25    2    1    2    0    0 -0.30771489122E+03 -0.74349334790E+02  0.77171471337E+03  0.84343598161E+03  0.12499751348E+03 0.  0.
          2    1    1    2  501    0  0.32169532417E+03  0.13489163611E+03 -0.29404106700E+03  0.45622777663E+03  0.00000000000E+00 0. -1.
          1    1    1    2  502    0 -0.13980432958E+02 -0.60542301317E+02  0.10592751131E+04  0.10610959372E+04  0.00000000000E+00 0. -1.
         22    1    3    3    0    0 -0.29958708995E+03 -0.71880792205E+02  0.77525759481E+03  0.83423234836E+03  0.00000000000E+00 0. -1.
         22    1    3    3    0    0 -0.81278012693E+01 -0.24685425844E+01 -0.35428814375E+01  0.92036332415E+01  0.00000000000E+00 0. -1.
</event>
<event>
 7    1  0.5213103E-005  0.5468349E+03  0.7818608E-02  0.1144490E+00
          2   -1    0    0  502    0  0.00000000000E+00  0.00000000000E+00  0.60530356828E+03  0.60530356828E+03  0.00000000000E+00 0. -1.
          1   -1    0    0  501    0 -0.00000000000E+00 -0.00000000000E+00 -0.23422793536E+04  0.23422793536E+04  0.00000000000E+00 0. -1.
         25    2    1    2    0    0 -0.35920544570E+03 -0.41163159219E+03 -0.14181581111E+03  0.57810513154E+03  0.12499879571E+03 0.  0.
          2    1    1    2  501    0  0.60478312488E+02 -0.49046989796E+02 -0.17863799849E+04  0.17880762522E+04  0.00000000000E+00 0. -1.
          1    1    1    2  502    0  0.29872713321E+03  0.46067858199E+03  0.19122001067E+03  0.58140153809E+03  0.00000000000E+00 0. -1.
         22    1    3    3    0    0 -0.14582011080E+03 -0.14120420976E+03  0.64271264574E+01  0.20308481362E+03  0.00000000000E+00 0. -1.
         22    1    3    3    0    0 -0.21338533489E+03 -0.27042738243E+03 -0.14824293757E+03  0.37502031792E+03  0.00000000000E+00 0. -1.
</event>
<event>
 7    1  0.5213103E-005  0.6695330E+03  0.7818608E-02  0.1150627E+00
          2   -1    0    0  502    0  0.00000000000E+00  0.00000000000E+00  0.29130248901E+04  0.29130248901E+04  0.00000000000E+00 0. -1.
          1   -1    0    0  501    0 -0.00000000000E+00 -0.00000000000E+00 -0.37687743037E+03  0.37687743037E+03  0.00000000000E+00 0. -1.
         25    2    1    2    0    0 -0.61606940069E+03 -0.17022688581E+03  0.93071262557E+03  0.11359443454E+04  0.12499946146E+03 0.  0.
          2    1    1    2  501    0 -0.55786534251E+02  0.19566550562E+02 -0.20692884058E+03  0.21520811409E+03  0.00000000000E+00 0. -1.
          1    1    1    2  502    0  0.67185593494E+03  0.15066033524E+03  0.18123636748E+04  0.19387498610E+04  0.00000000000E+00 0. -1.
         22    1    3    3    0    0 -0.41055877598E+03 -0.17263868674E+03  0.61911566496E+03  0.76267085384E+03  0.00000000000E+00 0. -1.
         22    1    3    3    0    0 -0.20551062470E+03  0.24118009350E+01  0.31159696061E+03  0.37327349157E+03  0.00000000000E+00 0. -1.
</event>
<event>
 7    1  0.5213103E-005  0.1229861E+04  0.7818608E-02  0.1127552E+00
          2   -1    0    0  502    0  0.00000000000E+00  0.00000000000E+00  0.12404443623E+04  0.12404443623E+04  0.00000000000E+00 0. -1.
          1   -1    0    0  501    0 -0.00000000000E+00 -0.00000000000E+00 -0.27859540538E+04  0.27859540538E+04  0.00000000000E+00 0. -1.
         25    2    1    2    0    0  0.12472367018E+04 -0.20776526650E+03 -0.15577379340E+04  0.20102087596E+04  0.12500395843E+03 0.  0.
          2    1    1    2  501    0 -0.42513093077E+02 -0.12526849213E+01 -0.63248129124E+03  0.63390970656E+03  0.00000000000E+00 0. -1.
          1    1    1    2  502    0 -0.12047236087E+04  0.20901795142E+03  0.64470953375E+03  0.13822799500E+04  0.00000000000E+00 0. -1.
         22    1    3    3    0    0  0.68415666891E+03 -0.52101234480E+02 -0.82151605111E+03  0.10703613915E+04  0.00000000000E+00 0.  1.
         22    1    3    3    0    0  0.56308003287E+03 -0.15566403202E+03 -0.73622188292E+03  0.93984736802E+03  0.00000000000E+00 0.  1.
</event>
<event>
 7    1  0.5213103E-005  0.4442571E+03  0.7818608E-02  0.1203093E+00
          2   -1    0    0  502    0  0.00000000000E+00  0.00000000000E+00  0.13219906487E+04  0.13219906487E+04  0.00000000000E+00 0. -1.
          1   -1    0    0  501    0 -0.00000000000E+00 -0.00000000000E+00 -0.81217198737E+03  0.81217198737E+03  0.00000000000E+00 0. -1.
         25    2    1    2    0    0 -0.48108865329E+03  0.39916369725E+02  0.35421290010E+03  0.61166297863E+03  0.12500084774E+03 0.  0.
          2    1    1    2  501    0  0.43844219126E+03 -0.15322637939E+02 -0.61217449828E+03  0.75314271865E+03  0.00000000000E+00 0. -1.
          1    1    1    2  502    0  0.42646462031E+02 -0.24593731786E+02  0.76778025956E+03  0.76935693884E+03  0.00000000000E+00 0. -1.
         22    1    3    3    0    0 -0.27271771403E+03  0.44829220408E+02  0.12964151817E+03  0.30527288412E+03  0.00000000000E+00 0.  1.
         22    1    3    3    0    0 -0.20837093926E+03 -0.49128506832E+01  0.22457138193E+03  0.30639009451E+03  0.00000000000E+00 0.  1.
</event>
<event>
 7    1  0.5213103E-005  0.2844459E+03  0.7818608E-02  0.1227641E+00
          2   -1    0    0  502    0  0.00000000000E+00  0.00000000000E+00  0.96576660239E+03  0.96576660239E+03  0.00000000000E+00 0. -1.
          1   -1    0    0  501    0 -0.00000000000E+00 -0.00000000000E+00 -0.64804207899E+03  0.64804207899E+03  0.00000000000E+00 0. -1.
         25    2    1    2    0    0  0.27685973627E+03 -0.14906474512E+03 -0.28044865740E+02  0.33954431593E+03  0.12502886139E+03 0.  0.
          2    1    1    2  501    0 -0.26161911733E+03  0.91756822293E+02 -0.42160969103E+03  0.50459747181E+03  0.00000000000E+00 0. -1.
          1    1    1    2  502    0 -0.15240618944E+02  0.57307922832E+02  0.76737908017E+03  0.76966689364E+03  0.00000000000E+00 0. -1.
         22    1    3    3    0    0  0.24893715827E+03 -0.16902007620E+03 -0.39244216417E+02  0.30344291629E+03  0.00000000000E+00 0.  1.
         22    1    3    3    0    0  0.27922578002E+02  0.19955331072E+02  0.11199350676E+02  0.36101399641E+02  0.00000000000E+00 0.  1.
</event>
<event>
 7    1  0.5213103E-005  0.3771386E+03  0.7818608E-02  0.1135448E+00
          2   -1    0    0  502    0  0.00000000000E+00  0.00000000000E+00  0.12654519670E+04  0.12654519670E+04  0.00000000000E+00 0. -1.
          1   -1    0    0  501    0 -0.00000000000E+00 -0.00000000000E+00 -0.16217604737E+04  0.16217604737E+04  0.00000000000E+00 0. -1.
         25    2    1    2    0    0  0.10147635592E+03  0.41766443703E+03  0.34169321684E+03  0.56313455079E+03  0.12500094032E+03 0.  0.
          2    1    1    2  501    0 -0.18705839980E+03 -0.32530793705E+03 -0.14826450441E+04  0.15293960983E+04  0.00000000000E+00 0. -1.
          1    1    1    2  502    0  0.85582043880E+02 -0.92356499981E+02  0.78464332057E+03  0.79468179157E+03  0.00000000000E+00 0. -1.
         22    1    3    3    0    0  0.86746758120E+02  0.26972587481E+03  0.29076890779E+03  0.40598473533E+03  0.00000000000E+00 0.  1.
         22    1    3    3    0    0  0.14729597804E+02  0.14793856223E+03  0.50924309050E+02  0.15714981546E+03  0.00000000000E+00 0.  1.
</event>
<event>
 7    1  0.5213103E-005  0.1600375E+03  0.7818608E-02  0.1362050E+00
          2   -1    0    0  502    0  0.00000000000E+00  0.00000000000E+00  0.36365756722E+04  0.36365756722E+04  0.00000000000E+00 0. -1.
          1   -1    0    0  501    0 -0.00000000000E+00 -0.00000000000E+00 -0.23027109158E+02  0.23027109158E+02  0.00000000000E+00 0. -1.
         25    2    1    2    0    0 -0.14445821938E+03  0.10901399975E+02  0.73591331555E+03  0.76038189357E+03  0.12500079358E+03 0.  0.
          2    1    1    2  501    0  0.17349824028E+03 -0.18891881030E+02  0.70171883551E+03  0.72309602866E+03  0.00000000000E+00 0. -1.
          1    1    1    2  502    0 -0.29040020906E+02  0.79904810555E+01  0.21759164120E+04  0.21761248591E+04  0.00000000000E+00 0. -1.
         22    1    3    3    0    0 -0.68068927393E+01  0.15081763818E+02  0.35419275888E+03  0.35457905160E+03  0.00000000000E+00 0. -1.
         22    1    3    3    0    0 -0.13765132664E+03 -0.41803638437E+01  0.38172055667E+03  0.40580284197E+03  0.00000000000E+00 0. -1.
</event>
<event>
 7    1  0.1314786E-004  0.5321344E+03  0.7818608E-02  0.1218381E+00
          2   -1    0    0  502    0  0.00000000000E+00  0.00000000000E+00  0.18372691537E+04  0.18372691537E+04  0.00000000000E+00 0. -1.
          1   -1    0    0  501    0 -0.00000000000E+00 -0.00000000000E+00 -0.17377608753E+04  0.17377608753E+04  0.00000000000E+00 0. -1.
         25    2    1    2    0    0 -0.50190281210E+03  0.97511091487E+02 -0.57479130254E+03  0.77937430980E+03  0.12499771017E+03 0.  0.
          2    1    1    2  501    0 -0.15785969117E+02  0.31145211833E+02 -0.10193695150E+04  0.10199673667E+04  0.00000000000E+00 0. -1.
          1    1    1    2  502    0  0.51768878121E+03 -0.12865630332E+03  0.16936690959E+04  0.17756883525E+04  0.00000000000E+00 0. -1.
         22    1    3    3    0    0 -0.12744318566E+03 -0.28088446166E+02 -0.16272257825E+03  0.20858898306E+03  0.00000000000E+00 0. -1.
         22    1    3    3    0    0 -0.37445962644E+03  0.12559953765E+03 -0.41206872428E+03  0.57078532674E+03  0.00000000000E+00 0. -1.
</event>
<event>
 7    1  0.5213103E-005  0.1585790E+03  0.7818608E-02  0.1217596E+00
          2   -1    0    0  502    0  0.00000000000E+00  0.00000000000E+00  0.10460467533E+04  0.10460467533E+04  0.00000000000E+00 0. -1.
          1   -1    0    0  501    0 -0.00000000000E+00 -0.00000000000E+00 -0.21139282326E+03  0.21139282326E+03  0.00000000000E+00 0. -1.
         25    2    1    2    0    0  0.12209889724E+03  0.21200895615E+03  0.68963989225E+03  0.74235021326E+03  0.12499887978E+03 0.  0.
          2    1    1    2  501    0 -0.12367181282E+03 -0.93876430580E+02 -0.13842609272E+03  0.20801270310E+03  0.00000000000E+00 0. -1.
          1    1    1    2  502    0  0.15729155867E+01 -0.11813252557E+03  0.28344013047E+03  0.30707666017E+03  0.00000000000E+00 0. -1.
         22    1    3    3    0    0  0.75444460453E+01  0.11612508847E+03  0.39817930655E+03  0.41483576871E+03  0.00000000000E+00 0.  1.
         22    1    3    3    0    0  0.11455445119E+03  0.95883867678E+02  0.29146058570E+03  0.32751444455E+03  0.00000000000E+00 0.  1.
</event>
<event>
 7    1  0.5213103E-005  0.2272125E+03  0.7818608E-02  0.1186000E+00
          2   -1    0    0  502    0  0.00000000000E+00  0.00000000000E+00  0.49334175164E+02  0.49334175164E+02  0.00000000000E+00 0. -1.
          1   -1    0    0  501    0 -0.00000000000E+00 -0.00000000000E+00 -0.23932168341E+04  0.23932168341E+04  0.00000000000E+00 0. -1.
         25    2    1    2    0    0 -0.48678512295E+02  0.30218206994E+03 -0.12653014123E+04  0.13077830121E+04  0.12500056736E+03 0.  0.
          2    1    1    2  501    0  0.20210781497E+02 -0.18963410280E+03 -0.91198809521E+03  0.93171447044E+03  0.00000000000E+00 0. -1.
          1    1    1    2  502    0  0.28467730798E+02 -0.11254796715E+03 -0.16659315141E+03  0.20305352669E+03  0.00000000000E+00 0. -1.
         22    1    3    3    0    0 -0.17045245645E+02  0.26928154208E+03 -0.11858135563E+04  0.12161237107E+04  0.00000000000E+00 0.  1.
         22    1    3    3    0    0 -0.31633266650E+02  0.32900527859E+02 -0.79487856011E+02  0.91659301468E+02  0.00000000000E+00 0.  1.
</event>
<event>
 7    1  0.5213103E-005  0.3623043E+03  0.7818608E-02  0.1119613E+00
          2   -1    0    0  502    0  0.00000000000E+00  0.00000000000E+00  0.67316513695E+03  0.67316513695E+03  0.00000000000E+00 0. -1.
          1   -1    0    0  501    0 -0.00000000000E+00 -0.00000000000E+00 -0.85992438888E+03  0.85992438888E+03  0.00000000000E+00 0. -1.
         25    2    1    2    0    0 -0.30389144269E+02  0.36857824224E+03 -0.45366767188E+03  0.59850740195E+03  0.12499333155E+03 0.  0.
          2    1    1    2  501    0 -0.12776682231E+03 -0.34918311697E+03 -0.21327729083E+03  0.42864952216E+03  0.00000000000E+00 0. -1.
          1    1    1    2  502    0  0.15815596658E+03 -0.19395125268E+02  0.48018571078E+03  0.50593260173E+03  0.00000000000E+00 0. -1.
         22    1    3    3    0    0 -0.96170754857E+01 -0.30131118961E+01  0.18882008575E+01  0.10253403663E+02  0.00000000000E+00 0. -1.
         22    1    3    3    0    0 -0.20772068783E+02  0.37159135414E+03 -0.45555587274E+03  0.58825399829E+03  0.00000000000E+00 0. -1.
</event>
<event>
 7    1  0.5213103E-005  0.2658949E+03  0.7818608E-02  0.1206241E+00
          2   -1    0    0  502    0  0.00000000000E+00  0.00000000000E+00  0.58336734190E+02  0.58336734190E+02  0.00000000000E+00 0. -1.
          1   -1    0    0  501    0 -0.00000000000E+00 -0.00000000000E+00 -0.19496283557E+04  0.19496283557E+04  0.00000000000E+00 0. -1.
         25    2    1    2    0    0 -0.22985296216E+03 -0.11129460432E+03 -0.57684288269E+03  0.64311070945E+03  0.12499920053E+03 0.  0.
          2    1    1    2  501    0  0.27124440201E+03  0.43407509655E+02 -0.11477516820E+04  0.11801659464E+04  0.00000000000E+00 0. -1.
          1    1    1    2  502    0 -0.41391439849E+02  0.67887094665E+02 -0.16669705684E+03  0.18468843406E+03  0.00000000000E+00 0. -1.
         22    1    3    3    0    0 -0.12223918663E+03 -0.21828327133E+02 -0.15467337603E+03  0.19835006394E+03  0.00000000000E+00 0. -1.
         22    1    3    3    0    0 -0.10761377553E+03 -0.89466277187E+02 -0.42216950666E+03  0.44476064551E+03  0.00000000000E+00 0. -1.
</event>
<event>
 7    1  0.5213103E-005  0.3469721E+03  0.7818608E-02  0.1153587E+00
          2   -1    0    0  502    0  0.00000000000E+00  0.00000000000E+00  0.74756327596E+03  0.74756327596E+03  0.00000000000E+00 0. -1.
          1   -1    0    0  501    0 -0.00000000000E+00 -0.00000000000E+00 -0.12747419273E+04  0.12747419273E+04  0.00000000000E+00 0. -1.
         25    2    1    2    0    0  0.27984822978E+03  0.34860166653E+03  0.22627994888E+03  0.51639751815E+03  0.12500251146E+03 0.  0.
          2    1    1    2  501    0 -0.19445128275E+03 -0.27901258875E+03 -0.10952325653E+04  0.11468189474E+04  0.00000000000E+00 0. -1.
          1    1    1    2  502    0 -0.85396947027E+02 -0.69589077777E+02  0.34177396510E+03  0.35908873768E+03  0.00000000000E+00 0. -1.
         22    1    3    3    0    0  0.14884541672E+02  0.46346969089E+02  0.69723525414E+02  0.85035058186E+02  0.00000000000E+00 0.  1.
         22    1    3    3    0    0  0.26496368811E+03  0.30225469744E+03  0.15655642347E+03  0.43136245997E+03  0.00000000000E+00 0.  1.
</event>
<event>
 7    1  0.5213103E-005  0.2686938E+03  0.7818608E-02  0.1296730E+00
          2   -1    0    0  502    0  0.00000000000E+00  0.00000000000E+00  0.10842410681E+04  0.10842410681E+04  0.00000000000E+00 0. -1.
          1   -1    0    0  501    0 -0.00000000000E+00 -0.00000000000E+00 -0.65172419828E+03  0.65172419828E+03  0.00000000000E+00 0. -1.
         25    2    1    2    0    0 -0.24012835541E+03  0.75173303611E+02 -0.19103807600E+03  0.33975400106E+03  0.12499832841E+03 0.  0.
          2    1    1    2  501    0  0.26312899656E+03 -0.97271826815E+02 -0.33510058173E+03  0.43702525900E+03  0.00000000000E+00 0. -1.
          1    1    1    2  502    0 -0.23000641152E+02  0.22098523205E+02  0.95865552752E+03  0.95918600629E+03  0.00000000000E+00 0. -1.
         22    1    3    3    0    0 -0.49749989049E+02  0.59911216017E+02 -0.13585323707E+02  0.79050466382E+02  0.00000000000E+00 0. -1.
         22    1    3    3    0    0 -0.19037836636E+03  0.15262087594E+02 -0.17745275230E+03  0.26070353468E+03  0.00000000000E+00 0. -1.
</event>
<event>
 7    1  0.5213103E-005  0.3115560E+03  0.7818608E-02  0.1290265E+00
          2   -1    0    0  502    0  0.00000000000E+00  0.00000000000E+00  0.10856003438E+04  0.10856003438E+04  0.00000000000E+00 0. -1.
          1   -1    0    0  501    0 -0.00000000000E+00 -0.00000000000E+00 -0.15374496431E+03  0.15374496431E+03  0.00000000000E+00 0. -1.
         25    2    1    2    0    0 -0.30901291623E+03  0.65589320768E+02  0.39301497441E+03  0.51949683900E+03  0.12500101691E+03 0.  0.
          2    1    1    2  501    0  0.13441179537E+02  0.25939923532E+02 -0.48137760167E+02  0.56309758426E+02  0.00000000000E+00 0. -1.
          1    1    1    2  502    0  0.29557173669E+03 -0.91529244300E+02  0.58697816520E+03  0.66353871063E+03  0.00000000000E+00 0. -1.
         22    1    3    3    0    0  0.72141790051E+01  0.18585287288E+02  0.26006314021E+02  0.32768668744E+02  0.00000000000E+00 0. -1.
         22    1    3    3    0    0 -0.31622709523E+03  0.47004033480E+02  0.36700866039E+03  0.48672817026E+03  0.00000000000E+00 0. -1.
</event>
<event>
 7    1  0.5213103E-005  0.6563460E+03  0.7818608E-02  0.1150458E+00
          2   -1    0    0  502    0  0.00000000000E+00  0.00000000000E+00  0.15804596307E+04  0.15804596307E+04  0.00000000000E+00 0. -1.
          1   -1    0    0  501    0 -0.00000000000E+00 -0.00000000000E+00 -0.70229025543E+03  0.70229025543E+03  0.00000000000E+00 0. -1.
         25    2    1    2    0    0  0.52163353234E+03  0.41240381064E+03  0.73613307942E+03  0.99984845161E+03  0.12500628173E+03 0.  0.
          2    1    1    2  501    0 -0.50742851847E+02  0.32810809138E+02 -0.42046578129E+03  0.42478566295E+03  0.00000000000E+00 0. -1.
          1    1    1    2  502    0 -0.47089068049E+03 -0.44521461978E+03  0.56250207710E+03  0.85811577155E+03  0.00000000000E+00 0. -1.
         22    1    3    3    0    0  0.31464822251E+02  0.73241344637E+02  0.10353306481E+03  0.13066531718E+03  0.00000000000E+00 0.  1.
         22    1    3    3    0    0  0.49016871008E+03  0.33916246601E+03  0.63260001461E+03  0.86918313443E+03  0.00000000000E+00 0.  1.
</event>
<event>
 7    1  0.5943590E-005  0.1124241E+04  0.7818608E-02  0.1154691E+00
          2   -1    0    0  502    0  0.00000000000E+00  0.00000000000E+00  0.28738211552E+04  0.28738211552E+04  0.00000000000E+00 0. -1.
          1   -1    0    0  501    0 -0.00000000000E+00 -0.00000000000E+00 -0.18363970444E+04  0.18363970444E+04  0.00000000000E+00 0. -1.
         25    2    1    2    0    0 -0.46254775239E+03 -0.10015251192E+04  0.59113050262E+03  0.12578008897E+04  0.12499927785E+03 0.  0.
          2    1    1    2  501    0 -0.23806196891E+02 -0.23654554196E+02 -0.13377105907E+04  0.13381314948E+04  0.00000000000E+00 0. -1.
          1    1    1    2  502    0  0.48635394928E+03  0.10251796734E+04  0.17840041989E+04  0.21142858152E+04  0.00000000000E+00 0. -1.
         22    1    3    3    0    0 -0.64241771229E+02 -0.61001200610E+02  0.54679412177E+02  0.10410566633E+03  0.00000000000E+00 0.  1.
         22    1    3    3    0    0 -0.39830598116E+03 -0.94052391855E+03  0.53645109044E+03  0.11536952234E+04  0.00000000000E+00 0.  1.
</event>
<event>
 7    1  0.5213103E-005  0.3676195E+03  0.7818608E-02  0.1209494E+00
          2   -1    0    0  502    0  0.00000000000E+00  0.00000000000E+00  0.38097748093E+03  0.38097748093E+03  0.00000000000E+00 0. -1.
          1   -1    0    0  501    0 -0.00000000000E+00 -0.00000000000E+00 -0.62299384580E+03  0.62299384580E+03  0.00000000000E+00 0. -1.
         25    2    1    2    0    0  0.22588204231E+03 -0.32396154052E+03 -0.32232612893E+03  0.52487552824E+03  0.12500563981E+03 0.  0.
          2    1    1    2  501    0  0.12941498095E+02  0.54010070355E+02 -0.69333167443E+02  0.88835005377E+02  0.00000000000E+00 0. -1.
          1    1    1    2  502    0 -0.23882354041E+03  0.26995147016E+03  0.14964293150E+03  0.39026079312E+03  0.00000000000E+00 0. -1.
         22    1    3    3    0    0 -0.97704710177E+01 -0.41313975758E+02 -0.13750559671E+02  0.44624932359E+02  0.00000000000E+00 0. -1.
         22    1    3    3    0    0  0.23565251333E+03 -0.28264756476E+03 -0.30857556926E+03  0.48025059588E+03  0.00000000000E+00 0. -1.
</event>
<event>
 7    1  0.5213103E-005  0.1540803E+03  0.7818608E-02  0.1206044E+00
          2   -1    0    0  502    0  0.00000000000E+00  0.00000000000E+00  0.31476350989E+03  0.31476350989E+03  0.00000000000E+00 0. -1.
          1   -1    0    0  501    0 -0.00000000000E+00 -0.00000000000E+00 -0.22642760216E+04  0.22642760216E+04  0.00000000000E+00 0. -1.
         25    2    1    2    0    0  0.60157833297E+02 -0.18351128132E+02 -0.10210058009E+03  0.17321598575E+03  0.12499408168E+03 0.  0.
          2    1    1    2  501    0 -0.53426985764E+02  0.15568799815E+03 -0.21062809047E+04  0.21127026400E+04  0.00000000000E+00 0. -1.
          1    1    1    2  502    0 -0.67308475332E+01 -0.13733687001E+03  0.25886897306E+03  0.29312090575E+03  0.00000000000E+00 0. -1.
         22    1    3    3    0    0  0.27813990204E+02 -0.57761939061E+02 -0.59508371759E+01  0.64385340864E+02  0.00000000000E+00 0.  1.
         22    1    3    3    0    0  0.32343843093E+02  0.39410810928E+02 -0.96149742912E+02  0.10883064488E+03  0.00000000000E+00 0.  1.
</event>
<event>
 7    1  0.5213103E-005  0.2221330E+03  0.7818608E-02  0.1239290E+00
          2   -1    0    0  502    0  0.00000000000E+00  0.00000000000E+00  0.21093466841E+04  0.21093466841E+04  0.00000000000E+00 0. -1.
          1   -1    0    0  501    0 -0.00000000000E+00 -0.00000000000E+00 -0.86112627709E+02  0.86112627709E+02  0.00000000000E+00 0. -1.
         25    2    1    2    0    0  0.13172911333E+03 -0.23200661946E+03  0.71449420412E+03  0.77285599460E+03  0.12499915959E+03 0.  0.
          2    1    1    2  501    0 -0.57314375847E+02  0.35419810188E+02 -0.25401064940E+02  0.72004963250E+02  0.00000000000E+00 0. -1.
          1    1    1    2  502    0 -0.74414737479E+02  0.19658680927E+03  0.13341409172E+04  0.13505983540E+04  0.00000000000E+00 0. -1.
         22    1    3    3    0    0  0.87224826272E+00 -0.27756617996E+02  0.22340249655E+03  0.22512189170E+03  0.00000000000E+00 0.  1.
         22    1    3    3    0    0  0.13085686506E+03 -0.20425000147E+03  0.49109170757E+03  0.54773410290E+03  0.00000000000E+00 0.  1.
</event>
<event>
 7    1  0.5213103E-005  0.2025356E+03  0.7818608E-02  0.1169436E+00
          2   -1    0    0  502    0  0.00000000000E+00  0.00000000000E+00  0.10997601865E+04  0.10997601865E+04  0.00000000000E+00 0. -1.
          1   -1    0    0  501    0 -0.00000000000E+00 -0.00000000000E+00 -0.58590149588E+03  0.58590149588E+03  0.00000000000E+00 0. -1.
         25    2    1    2    0    0  0.53430908547E+02  0.28639721010E+03  0.37625689458E+03  0.49200772875E+03  0.12499652191E+03 0.  0.
          2    1    1    2  501    0 -0.11383707699E+03 -0.10812799421E+03 -0.50249721003E+03  0.52645416640E+03  0.00000000000E+00 0. -1.
          1    1    1    2  502    0  0.60406168438E+02 -0.17826921589E+03  0.64009900610E+03  0.66719978727E+03  0.00000000000E+00 0. -1.
         22    1    3    3    0    0  0.59507345379E+02  0.52093967584E+02  0.64994724838E+02  0.10236806079E+03  0.00000000000E+00 0.  1.
         22    1    3    3    0    0 -0.60764368313E+01  0.23430324252E+03  0.31126216974E+03  0.38963966796E+03  0.00000000000E+00 0.  1.
</event>
<event>
 7    1  0.5213103E-005  0.6158642E+03  0.7818608E-02  0.1168066E+00
          2   -1    0    0  502    0  0.00000000000E+00  0.00000000000E+00  0.15539830279E+04  0.15539830279E+04  0.00000000000E+00 0. -1.
          1   -1    0    0  501    0 -0.00000000000E+00 -0.00000000000E+00 -0.77895442358E+03  0.77895442358E+03  0.00000000000E+00 0. -1.
         25    2    1    2    0    0 -0.80006256588E+02  0.64541407323E+03  0.40192705321E+03  0.77468004714E+03  0.12499396917E+03 0.  0.
          2    1    1    2  501    0  0.46443018722E+02 -0.60510812999E+03 -0.43612014968E+03  0.74733766661E+03  0.00000000000E+00 0. -1.
          1    1    1    2  502    0  0.33563237865E+02 -0.40305943235E+02  0.80922170076E+03  0.81091973769E+03  0.00000000000E+00 0. -1.
         22    1    3    3    0    0 -0.60369206548E+02  0.20773712905E+03  0.19033534930E+03  0.28814354248E+03  0.00000000000E+00 0.  1.
         22    1    3    3    0    0 -0.19637050039E+02  0.43767694418E+03  0.21159170391E+03  0.48653650466E+03  0.00000000000E+00 0.  1.
</event>
<event>
 7    1  0.5213103E-005  0.3320021E+03  0.7818608E-02  0.1125124E+00
          2   -1    0    0  502    0  0.00000000000E+00  0.00000000000E+00  0.11177282911E+04  0.11177282911E+04  0.00000000000E+00 0. -1.
          1   -1    0    0  501    0 -0.00000000000E+00 -0.00000000000E+00 -0.25505440495E+04  0.25505440495E+04  0.00000000000E+00 0. -1.
         25    2    1    2    0    0  0.40458356362E+03  0.34441592970E+02  0.65472499826E+03  0.78048902993E+03  0.12499687684E+03 0.  0.
          2    1    1    2  501    0 -0.13078947207E+03 -0.96188961370E+02 -0.24354045293E+04  0.24408099933E+04  0.00000000000E+00 0. -1.
          1    1    1    2  502    0 -0.27379409155E+03  0.61747368400E+02  0.34786377262E+03  0.44697331730E+03  0.00000000000E+00 0. -1.
         22    1    3    3    0    0  0.29123126355E+03  0.73364084729E+02  0.51715119352E+03  0.59803285425E+03  0.00000000000E+00 0. -1.
         22    1    3    3    0    0  0.11335230007E+03 -0.38922491759E+02  0.13757380474E+03  0.18245617568E+03  0.00000000000E+00 0. -1.
</event>
<event>
 7    1  0.5213103E-005  0.4175634E+03  0.7818608E-02  0.1129759E+00
          2   -1    0    0  502    0  0.00000000000E+00  0.00000000000E+00  0.18114405907E+04  0.18114405907E+04  0.00000000000E+00 0. -1.
          1   -1    0    0  501    0 -0.00000000000E+00 -0.00000000000E+00 -0.26960772128E+03  0.26960772128E+03  0.00000000000E+00 0. -1.
         25    2    1    2    0    0  0.33550284947E+03  0.25150773310E+03  0.29158592630E+03  0.52580038493E+03  0.12500156226E+03 0.  0.
          2    1    1    2  501    0 -0.85375108238E+02  0.87026000139E+02 -0.89305374751E+02  0.15112208232E+03  0.00000000000E+00 0. -1.
          1    1    1    2  502    0 -0.25012774123E+03 -0.33853373324E+03  0.13395523178E+04  0.14041258447E+04  0.00000000000E+00 0. -1.
         22    1    3    3    0    0  0.11716838902E+03  0.12041192765E+03  0.51301817747E+02  0.17566826751E+03  0.00000000000E+00 0. -1.
         22    1    3    3    0    0  0.21833446046E+03  0.13109580544E+03  0.24028410855E+03  0.35013211742E+03  0.00000000000E+00 0. -1.
</event>
<event>
 7    1  0.5213103E-005  0.5698332E+03  0.7818608E-02  0.1105316E+00
          2   -1    0    0  502    0  0.00000000000E+00  0.00000000000E+00  0.20590226875E+03  0.20590226875E+03  0.00000000000E+00 0. -1.
          1   -1    0    0  501    0 -0.00000000000E+00 -0.00000000000E+00 -0.28024751029E+04  0.28024751029E+04  0.00000000000E+00 0. -1.
         25    2    1    2    0    0  0.56087309079E+02  0.66000659680E+03 -0.16887123036E+04  0.18182768091E+04  0.12500726414E+03 0.  0.
          2    1    1    2  501    0 -0.79941583728E+01 -0.12118017122E+03 -0.49474121811E+03  0.50942851644E+03  0.00000000000E+00 0. -1.
          1    1    1    2  502    0 -0.48093150706E+02 -0.53882642557E+03 -0.41311931242E+03  0.68067204610E+03  0.00000000000E+00 0. -1.
         22    1    3    3    0    0  0.38286099029E+02  0.59581207136E+03 -0.14002345101E+04  0.15222071255E+04  0.00000000000E+00 0.  1.
         22    1    3    3    0    0  0.17801210050E+02  0.64194525437E+02 -0.28847779355E+03  0.29606968360E+03  0.00000000000E+00 0.  1.
</event>
<event>
 7    1  0.5213103E-005  0.9753646E+03  0.7818608E-02  0.1049552E+00
          2   -1    0    0  502    0  0.00000000000E+00  0.00000000000E+00  0.18195722813E+04  0.18195722813E+04  0.00000000000E+00 0. -1.
          1   -1    0    0  501    0 -0.00000000000E+00 -0.00000000000E+00 -0.11129987050E+04  0.11129987050E+04  0.00000000000E+00 0. -1.
         25    2    1    2    0    0  0.84747001840E+03  0.62724724272E+03 -0.12412775003E+03  0.10689611148E+04  0.12500252398E+03 0.  0.
          2    1    1    2  501    0 -0.70855263097E+03 -0.56808132670E+03 -0.10644136047E+03  0.91438120487E+03  0.00000000000E+00 0. -1.
          1    1    1    2  502    0 -0.13891738742E+03 -0.59165916024E+02  0.93714268683E+03  0.94922866667E+03  0.00000000000E+00 0. -1.
         22    1    3    3    0    0  0.59370185288E+03  0.36566231651E+03 -0.82975085560E+02  0.70219348093E+03  0.00000000000E+00 0.  1.
         22    1    3    3    0    0  0.25376816551E+03  0.26158492621E+03 -0.41152664471E+02  0.36676763385E+03  0.00000000000E+00 0.  1.
</event>
<event>
 7    1  0.5213103E-005  0.2657754E+03  0.7818608E-02  0.1149013E+00
          2   -1    0    0  502    0  0.00000000000E+00  0.00000000000E+00  0.33144084636E+04  0.33144084636E+04  0.00000000000E+00 0. -1.
          1   -1    0    0  501    0 -0.00000000000E+00 -0.00000000000E+00 -0.51702179655E+03  0.51702179655E+03  0.00000000000E+00 0. -1.
         25    2    1    2    0    0 -0.57953538002E+02 -0.30877884375E+03  0.27202762337E+04  0.27412098306E+04  0.12500224429E+03 0.  0.
          2    1    1    2  501    0 -0.50218120638E+02  0.14325786286E+03 -0.47769306730E+03  0.50123381915E+03  0.00000000000E+00 0. -1.
          1    1    1    2  502    0  0.10817165864E+03  0.16552098088E+03  0.55480350066E+03  0.58898661036E+03  0.00000000000E+00 0. -1.
         22    1    3    3    0    0 -0.91957000967E+02 -0.17801059700E+03  0.14525195999E+04  0.14662731843E+04  0.00000000000E+00 0.  1.
         22    1    3    3    0    0  0.34003462965E+02 -0.13076824675E+03  0.12677566338E+04  0.12749366464E+04  0.00000000000E+00 0.  1.
</event>
<event>
 7    1  0.5213103E-005  0.3834697E+03  0.7818608E-02  0.1235062E+00
          2   -1    0    0  502    0  0.00000000000E+00  0.00000000000E+00  0.24401043774E+04  0.24401043774E+04  0.00000000000E+00 0. -1.
          1   -1    0    0  501    0 -0.00000000000E+00 -0.00000000000E+00 -0.13993300957E+03  0.13993300957E+03  0.00000000000E+00 0. -1.
         25    2    1    2    0    0 -0.25900564749E+03 -0.26958492858E+03  0.15526853702E+04  0.16019415483E+04  0.12499962476E+03 0.  0.
          2    1    1    2  501    0 -0.40743104757E+02  0.70537252755E+00 -0.61881276418E+02  0.74093120509E+02  0.00000000000E+00 0. -1.
          1    1    1    2  502    0  0.29974875225E+03  0.26887955605E+03  0.80936727404E+03  0.90400271815E+03  0.00000000000E+00 0. -1.
         22    1    3    3    0    0 -0.21290161585E+03 -0.22844243231E+03  0.10493697969E+04  0.10948470275E+04  0.00000000000E+00 0. -1.
         22    1    3    3    0    0 -0.46104031646E+02 -0.41142496271E+02  0.50331557328E+03  0.50709452081E+03  0.00000000000E+00 0. -1.
</event>
<event>
 7    1  0.5213103E-005  0.3012075E+03  0.7818608E-02  0.1091323E+00
          2   -1    0    0  502    0  0.00000000000E+00  0.00000000000E+00  0.18362540256E+04  0.18362540256E+04  0.00000000000E+00 0. -1.
          1   -1    0    0  501    0 -0.00000000000E+00 -0.00000000000E+00 -0.11851694206E+04  0.11851694206E+04  0.00000000000E+00 0. -1.
         25    2    1    2    0    0  0.27562558592E+03  0.74630170673E+02 -0.25084189568E+03  0.40010725870E+03  0.12500014339E+03 0.  0.
          2    1    1    2  501    0 -0.17306269483E+03  0.21454400925E+03 -0.82371406892E+03  0.86861078487E+03  0.00000000000E+00 0. -1.
          1    1    1    2  502    0 -0.10256289109E+03 -0.28917417992E+03  0.17256405696E+04  0.17527054027E+04  0.00000000000E+00 0. -1.
         22    1    3    3    0    0  0.19446902269E+03  0.55043228787E+02 -0.95024165416E+02  0.22333282301E+03  0.00000000000E+00 0. -1.
         22    1    3    3    0    0  0.81156563229E+02  0.19586941886E+02 -0.15581773026E+03  0.17677443569E+03  0.00000000000E+00 0. -1.
</event>
<event>
 7    1  0.5213103E-005  0.5622536E+03  0.7818608E-02  0.1245578E+00
          2   -1    0    0  502    0  0.00000000000E+00  0.00000000000E+00  0.96600855944E+03  0.96600855944E+03  0.00000000000E+00 0. -1.
          1   -1    0    0  501    0 -0.00000000000E+00 -0.00000000000E+00 -0.13343977500E+04  0.13343977500E+04  0.00000000000E+00 0. -1.
         25    2    1    2    0    0 -0.47032264275E+03 -0.29694503015E+03 -0.57240139816E+03  0.80786580374E+03  0.12499622801E+03 0.  0.
          2    1    1    2  501    0  0.46908248573E+03  0.32189285174E+03 -0.51841587832E+03  0.76968071907E+03  0.00000000000E+00 0. -1.
          1    1    1    2  502    0  0.12401570216E+01 -0.24947821588E+02  0.72242808592E+03  0.72285978662E+03  0.00000000000E+00 0. -1.
         22    1    3    3    0    0 -0.99880191666E+02 -0.39730604854E+02 -0.52529524336E+02  0.11964081484E+03  0.00000000000E+00 0. -1.
         22    1    3    3    0    0 -0.37044245109E+03 -0.25721442529E+03 -0.51987187383E+03  0.68822498890E+03  0.00000000000E+00 0. -1.
</event>
<event>
 7    1  0.5213103E-005  0.7780002E+03  0.7818608E-02  0.1096815E+00
          2   -1    0    0  502    0  0.00000000000E+00  0.00000000000E+00  0.10715271808E+04  0.10715271808E+04  0.00000000000E+00 0. -1.
          1   -1    0    0  501    0 -0.00000000000E+00 -0.00000000000E+00 -0.98593286117E+03  0.98593286117E+03  0.00000000000E+00 0. -1.
         25    2    1    2    0    0  0.30997956456E+03  0.78080324861E+03  0.39163113260E+02  0.85023483331E+03  0.12499791537E+03 0.  0.
          2    1    1    2  501    0 -0.57423631813E+02 -0.81011577336E+02 -0.35028667615E+03  0.36408941847E+03  0.00000000000E+00 0. -1.
          1    1    1    2  502    0 -0.25255593275E+03 -0.69979167128E+03  0.39671788247E+03  0.84313579014E+03  0.00000000000E+00 0. -1.
         22    1    3    3    0    0  0.29389713304E+03  0.75630262044E+03  0.13863467089E+02  0.81151794448E+03  0.00000000000E+00 0. -1.
         22    1    3    3    0    0  0.16082431522E+02  0.24500628175E+02  0.25299646171E+02  0.38716888834E+02  0.00000000000E+00 0. -1.
</event>
<event>
 7    1  0.5213103E-005  0.5002809E+03  0.7818608E-02  0.1203847E+00
          2   -1    0    0  502    0  0.00000000000E+00  0.00000000000E+00  0.22771336472E+04  0.22771336472E+04  0.00000000000E+00 0. -1.
          1   -1    0    0  501    0 -0.00000000000E+00 -0.00000000000E+00 -0.38472990772E+03  0.38472990772E+03  0.00000000000E+00 0. -1.
         25    2    1    2    0    0 -0.15349681315E+03  0.45885140123E+03  0.43025984585E+03  0.65943368743E+03  0.12499349227E+03 0.  0.
          2    1    1    2  501    0 -0.42713159709E+02  0.74767592483E+01 -0.23114417205E+03  0.23517641083E+03  0.00000000000E+00 0. -1.
          1    1    1    2  502    0  0.19620997286E+03 -0.46632816048E+03  0.16932880657E+04  0.17672534567E+04  0.00000000000E+00 0. -1.
         22    1    3    3    0    0  0.11270299540E+02  0.13726637508E+03  0.10381197133E+03  0.17247029533E+03  0.00000000000E+00 0.  1.
         22    1    3    3    0    0 -0.16476711269E+03  0.32158502615E+03  0.32644787452E+03  0.48696339210E+03  0.00000000000E+00 0.  1.
</event>
<event>
 7    1  0.5213103E-005  0.6783605E+03  0.7818608E-02  0.1158784E+00
          2   -1    0    0  502    0  0.00000000000E+00  0.00000000000E+00  0.11093581774E+04  0.11093581774E+04  0.00000000000E+00 0. -1.
          1   -1    0    0  501    0 -0.00000000000E+00 -0.00000000000E+00 -0.12147857066E+04  0.12147857066E+04  0.00000000000E+00 0. -1.
         25    2    1    2    0    0 -0.57323293773E+03  0.36160782418E+03  0.15428715899E+03  0.70624767344E+03  0.12500011761E+03 0.  0.
          2    1    1    2  501    0  0.60080666265E+03 -0.31632616455E+03 -0.81460591409E+03  0.10604780448E+04  0.00000000000E+00 0. -1.
          1    1    1    2  502    0 -0.27573724924E+02 -0.45281659626E+02  0.55489122590E+03  0.55741816582E+03  0.00000000000E+00 0. -1.
         22    1    3    3    0    0 -0.18147856848E+03  0.10536185270E+03  0.10755377062E+03  0.23580374127E+03  0.00000000000E+00 0.  1.
         22    1    3    3    0    0 -0.39175436925E+03  0.25624597147E+03  0.46733388364E+02  0.47044393217E+03  0.00000000000E+00 0.  1.
</event>
<event>
 7    1  0.5213103E-005  0.1969713E+03  0.7818608E-02  0.1273400E+00
          2   -1    0    0  502    0  0.00000000000E+00  0.00000000000E+00  0.15617287003E+04  0.15617287003E+04  0.00000000000E+00 0. -1.
          1   -1    0    0  501    0 -0.00000000000E+00 -0.00000000000E+00 -0.14743502601E+03  0.14743502601E+03  0.00000000000E+00 0. -1.
         25    2    1    2    0    0 -0.12711989708E+03 -0.17812999898E+03  0.29366715582E+02  0.25372613434E+03  0.12499912996E+03 0.  0.
          2    1    1    2  501    0  0.86602783763E+02  0.14208455945E+03  0.16510007910E+03  0.23440584529E+03  0.00000000000E+00 0. -1.
          1    1    1    2  502    0  0.40517113314E+02  0.36045439535E+02  0.12198268796E+04  0.12210317467E+04  0.00000000000E+00 0. -1.
         22    1    3    3    0    0 -0.10008960107E+03 -0.45212267882E+02 -0.15376268966E+02  0.11089863415E+03  0.00000000000E+00 0.  1.
         22    1    3    3    0    0 -0.27030296012E+02 -0.13291773110E+03  0.44742984548E+02  0.14282750019E+03  0.00000000000E+00 0.  1.
</event>
<event>
 7    1  0.5213103E-005  0.9343197E+03  0.7818608E-02  0.1082773E+00
          2   -1    0    0  502    0  0.00000000000E+00  0.00000000000E+00  0.24954119088E+04  0.24954119088E+04  0.00000000000E+00 0. -1.
          1   -1    0    0  501    0 -0.00000000000E+00 -0.00000000000E+00 -0.10863356574E+04  0.10863356574E+04  0.00000000000E+00 0. -1.
         25    2    1    2    0    0 -0.47567922304E+02  0.99481055288E+03  0.77275077757E+03  0.12667590760E+04  0.12499619564E+03 0.  0.
          2    1    1    2  501    0 -0.21071065221E+02 -0.97301880523E+02 -0.69820462735E+03  0.70526686254E+03  0.00000000000E+00 0. -1.
          1    1    1    2  502    0  0.68638987525E+02 -0.89750867236E+03  0.13345301012E+04  0.16097216277E+04  0.00000000000E+00 0. -1.
         22    1    3    3    0    0  0.26710209406E+02  0.62878854181E+03  0.51102206113E+03  0.81069847203E+03  0.00000000000E+00 0.  1.
         22    1    3    3    0    0 -0.74278131710E+02  0.36602201108E+03  0.26172871644E+03  0.45606060393E+03  0.00000000000E+00 0.  1.
</event>
<event>
 7    1  0.5213103E-005  0.4555958E+03  0.7818608E-02  0.1277860E+00
          2   -1    0    0  502    0  0.00000000000E+00  0.00000000000E+00  0.33410785895E+03  0.33410785895E+03  0.00000000000E+00 0. -1.
          1   -1    0    0  501    0 -0.00000000000E+00 -0.00000000000E+00 -0.11156324478E+04  0.11156324478E+04  0.00000000000E+00 0. -1.
         25    2    1    2    0    0  0.20280911692E+03 -0.39855256678E+03 -0.65375745729E+02  0.46890869888E+03  0.12500277341E+03 0.  0.
          2    1    1    2  501    0  0.15594586650E+02 -0.16170071533E+02 -0.43226608595E+03  0.43284943272E+03  0.00000000000E+00 0. -1.
          1    1    1    2  502    0 -0.21840370357E+03  0.41472263831E+03 -0.28388275718E+03  0.54798217515E+03  0.00000000000E+00 0. -1.
         22    1    3    3    0    0  0.20034843020E+03 -0.38521703930E+03 -0.34960659591E+02  0.43560751666E+03  0.00000000000E+00 0. -1.
         22    1    3    3    0    0  0.24606867207E+01 -0.13335527478E+02 -0.30415086138E+02  0.33301182216E+02  0.00000000000E+00 0. -1.
</event>
<event>
 7    1  0.5213103E-005  0.4336564E+03  0.7818608E-02  0.1173393E+00
          2   -1    0    0  502    0  0.00000000000E+00  0.00000000000E+00  0.91030750488E+03  0.91030750488E+03  0.00000000000E+00 0. -1.
          1   -1    0    0  501    0 -0.00000000000E+00 -0.00000000000E+00 -0.13615099881E+04  0.13615099881E+04  0.00000000000E+00 0. -1.
         25    2    1    2    0    0 -0.22194638277E+03  0.41509718298E+03  0.33556267749E+03  0.59143347863E+03  0.12500152388E+03 0.  0.
          2    1    1    2  501    0  0.61786221293E+01 -0.69818150997E+02 -0.11395197816E+04  0.11416733693E+04  0.00000000000E+00 0. -1.
          1    1    1    2  502    0  0.21576776065E+03 -0.34527903199E+03  0.35275462091E+03  0.53871064500E+03  0.00000000000E+00 0. -1.
         22    1    3    3    0    0 -0.14718120794E+03  0.22222949008E+03  0.25669913103E+03  0.37005769564E+03  0.00000000000E+00 0.  1.
         22    1    3    3    0    0 -0.74765174831E+02  0.19286769290E+03  0.78863546460E+02  0.22137578299E+03  0.00000000000E+00 0.  1.
</event>
<event>
 7    1  0.5213103E-005  0.1980417E+03  0.7818608E-02  0.1179570E+00
          2   -1    0    0  502    0  0.00000000000E+00  0.00000000000E+00  0.92279673884E+03  0.92279673884E+03  0.00000000000E+00 0. -1.
          1   -1    0    0  501    0 -0.00000000000E+00 -0.00000000000E+00 -0.49497822018E+03  0.49497822018E+03  0.00000000000E+00 0. -1.
         25    2    1    2    0    0 -0.25220139826E+03  0.13881112787E+03  0.47975439638E+03  0.57329266839E+03  0.12500451305E+03 0.  0.
          2    1    1    2  501    0  0.86828756346E+02 -0.11377965688E+03 -0.41810409952E+03  0.44192316219E+03  0.00000000000E+00 0. -1.
          1    1    1    2  502    0  0.16537264191E+03 -0.25031470998E+02  0.36616822179E+03  0.40255912843E+03  0.00000000000E+00 0. -1.
         22    1    3    3    0    0 -0.19620828805E+03  0.10064385117E+03  0.44611153218E+03  0.49763679147E+03  0.00000000000E+00 0. -1.
         22    1    3    3    0    0 -0.55993110208E+02  0.38167276702E+02  0.33642864196E+02  0.75655876922E+02  0.00000000000E+00 0. -1.
</event>
<event>
 7    1  0.5213103E-005  0.3493755E+03  0.7818608E-02  0.1156921E+00
          2   -1    0    0  502    0  0.00000000000E+00  0.00000000000E+00  0.17640069453E+04  0.17640069453E+04  0.00000000000E+00 0. -1.
          1   -1    0    0  501    0 -0.00000000000E+00 -0.00000000000E+00 -0.10114768152E+04  0.10114768152E+04  0.00000000000E+00 0. -1.
         25    2    1    2    0    0  0.39575769149E+03 -0.62048381963E+01 -0.27494698084E+03  0.49787930876E+03  0.12500125372E+03 0.  0.
          2    1    1    2  501    0 -0.60486903891E+02 -0.86076439542E+02 -0.60215913375E+03  0.61128016600E+03  0.00000000000E+00 0. -1.
          1    1    1    2  502    0 -0.33527078760E+03  0.92281277738E+02  0.16296362447E+04  0.16663242857E+04  0.00000000000E+00 0. -1.
         22    1    3    3    0    0  0.34123276180E+03  0.29335836165E+02 -0.19264996937E+03  0.39295597681E+03  0.00000000000E+00 0. -1.
         22    1    3    3    0    0  0.54524929683E+02 -0.35540674362E+02 -0.82297011470E+02  0.10492333195E+03  0.00000000000E+00 0. -1.
</event>
<event>
 7    1  0.5213103E-005  0.2199141E+03  0.7818608E-02  0.1313365E+00
          2   -1    0    0  502    0  0.00000000000E+00  0.00000000000E+00  0.75272207471E+03  0.75272207471E+03  0.00000000000E+00 0. -1.
          1   -1    0    0  501    0 -0.00000000000E+00 -0.00000000000E+00 -0.35187521505E+03  0.35187521505E+03  0.00000000000E+00 0. -1.
         25    2    1    2    0    0  0.94034016314E+02  0.18785735254E+03  0.57954696286E+02  0.25122864623E+03  0.12499721893E+03 0.  0.
          2    1    1    2  501    0  0.33045114524E+02 -0.53263139920E+01 -0.23332703704E+03  0.23571562406E+03  0.00000000000E+00 0. -1.
          1    1    1    2  502    0 -0.12707913084E+03 -0.18253103855E+03  0.57621920041E+03  0.61765301947E+03  0.00000000000E+00 0. -1.
         22    1    3    3    0    0  0.58493995676E+02  0.10844803563E+03  0.96072625872E+02  0.15624491481E+03  0.00000000000E+00 0. -1.
         22    1    3    3    0    0  0.35540020638E+02  0.79409316908E+02 -0.38117929587E+02  0.94983731421E+02  0.00000000000E+00 0. -1.
</event>
<event>
 7    1  0.5213103E-005  0.4869179E+03  0.7818608E-02  0.1220408E+00
          2   -1    0    0  502    0  0.00000000000E+00  0.00000000000E+00  0.22080617358E+04  0.22080617358E+04  0.00000000000E+00 0. -1.
          1   -1    0    0  501    0 -0.00000000000E+00 -0.00000000000E+00 -0.44625340320E+03  0.44625340320E+03  0.00000000000E+00 0. -1.
         25    2    1    2    0    0 -0.42128995868E+03  0.21897853210E+03  0.11018246622E+04  0.12062669358E+04  0.12500202924E+03 0.  0.
          2    1    1    2  501    0  0.41623469777E+03 -0.25599013911E+03 -0.24199769271E+03  0.54529364403E+03  0.00000000000E+00 0. -1.
          1    1    1    2  502    0  0.50552609153E+01  0.37011607008E+02  0.90198136303E+03  0.90275455910E+03  0.00000000000E+00 0. -1.
         22    1    3    3    0    0 -0.26770602601E+03  0.17698135420E+03  0.60933575713E+03  0.68867915680E+03  0.00000000000E+00 0.  1.
         22    1    3    3    0    0 -0.15358393267E+03  0.41997177897E+02  0.49248890511E+03  0.51758777901E+03  0.00000000000E+00 0.  1.
</event>
<event>
 7    1  0.5213103E-005  0.3761613E+03  0.7818608E-02  0.1198771E+00
          2   -1    0    0  502    0  0.00000000000E+00  0.00000000000E+00  0.23996093569E+04  0.23996093569E+04  0.00000000000E+00 0. -1.
          1   -1    0    0  501    0 -0.00000000000E+00 -0.00000000000E+00 -0.26311264413E+03  0.26311264413E+03  0.00000000000E+00 0. -1.
         25    2    1    2    0    0 -0.18233211519E+03 -0.30085607438E+03  0.95760545445E+03  0.10278095153E+04  0.12499926278E+03 0.  0.
          2    1    1    2  501    0  0.14750793729E+03  0.35085540847E+03 -0.67918428586E+02  0.38661482402E+03  0.00000000000E+00 0. -1.
          1    1    1    2  502    0  0.34824177896E+02 -0.49999334085E+02  0.12468096869E+04  0.12482976616E+04  0.00000000000E+00 0. -1.
         22    1    3    3    0    0 -0.18147404864E+03 -0.19397174043E+03  0.65099222856E+03  0.70309938704E+03  0.00000000000E+00 0. -1.
         22    1    3    3    0    0 -0.85806654286E+00 -0.10688433395E+03  0.30661322590E+03  0.32471012829E+03  0.00000000000E+00 0. -1.
</event>
<event>
 7    1  0.5213103E-005  0.2703095E+03  0.7818608E-02  0.1175561E+00
          2   -1    0    0  502    0  0.00000000000E+00  0.00000000000E+00  0.55016817582E+03  0.55016817582E+03  0.00000000000E+00 0. -1.
          1   -1    0    0  501    0 -0.00000000000E+00 -0.00000000000E+00 -0.61484158319E+03  0.61484158319E+03  0.00000000000E+00 0. -1.
         25    2    1    2    0    0  0.30904695567E+03  0.87840193064E+02 -0.34542360533E+03  0.48802482142E+03  0.12499935552E+03 0.  0.
          2    1    1    2  501    0 -0.22457385652E+03 -0.17830197543E+02 -0.12432885092E+03  0.25731108827E+03  0.00000000000E+00 0. -1.
          1    1    1    2  502    0 -0.84473099147E+02 -0.70009995521E+02  0.40507904888E+03  0.41967384931E+03  0.00000000000E+00 0. -1.
         22    1    3    3    0    0  0.20549013909E+03  0.90441665986E+02 -0.30051380213E+03  0.37511923101E+03  0.00000000000E+00 0.  1.
         22    1    3    3    0    0  0.10355681658E+03 -0.26014729225E+01 -0.44909803204E+02  0.11290559041E+03  0.00000000000E+00 0.  1.
</event>
<event>
 7    1  0.5213103E-005  0.1631167E+03  0.7818608E-02  0.1197457E+00
          2   -1    0    0  502    0  0.00000000000E+00  0.00000000000E+00  0.71470712008E+03  0.71470712008E+03  0.00000000000E+00 0. -1.
          1   -1    0    0  501    0 -0.00000000000E+00 -0.00000000000E+00 -0.43252482869E+03  0.43252482869E+03  0.00000000000E+00 0. -1.
         25    2    1    2    0    0  0.16614845395E+03 -0.22097085937E+03 -0.10108079643E+03  0.31980948037E+03  0.12500938720E+03 0.  0.
          2    1    1    2  501    0 -0.12522205654E+03  0.68094863250E+02 -0.18727049715E+03  0.23534594313E+03  0.00000000000E+00 0. -1.
          1    1    1    2  502    0 -0.40926397406E+02  0.15287599612E+03  0.57053358497E+03  0.59207652527E+03  0.00000000000E+00 0. -1.
         22    1    3    3    0    0  0.31938707836E+02 -0.13174452866E+03 -0.79647358648E+02  0.15722723565E+03  0.00000000000E+00 0.  1.
         22    1    3    3    0    0  0.13420974611E+03 -0.89226330705E+02 -0.21433437782E+02  0.16258224472E+03  0.00000000000E+00 0.  1.
</event>
<event>
 7    1  0.5213103E-005  0.3112311E+03  0.7818608E-02  0.1130489E+00
          2   -1    0    0  502    0  0.00000000000E+00  0.00000000000E+00  0.25252637904E+04  0.25252637904E+04  0.00000000000E+00 0. -1.
          1   -1    0    0  501    0 -0.00000000000E+00 -0.00000000000E+00 -0.92471488441E+03  0.92471488441E+03  0.00000000000E+00 0. -1.
         25    2    1    2    0    0 -0.22586281543E+03 -0.26108626777E+03  0.23473228680E+04  0.23758640754E+04  0.12500162951E+03 0.  0.
          2    1    1    2  501    0  0.10382500646E+03  0.12448957718E+03 -0.84900751778E+03  0.86434429022E+03  0.00000000000E+00 0. -1.
          1    1    1    2  502    0  0.12203780896E+03  0.13659669060E+03  0.10223355574E+03  0.20977030919E+03  0.00000000000E+00 0. -1.
         22    1    3    3    0    0 -0.35813579907E+02  0.69356368822E+01  0.16820446660E+03  0.17211466570E+03  0.00000000000E+00 0.  1.
         22    1    3    3    0    0 -0.19004923552E+03 -0.26802190466E+03  0.21791184014E+04  0.22037494097E+04  0.00000000000E+00 0.  1.
</event>
<event>
 7    1  0.5213103E-005  0.4393846E+02  0.7818608E-02  0.1482789E+00
          2   -1    0    0  502    0  0.00000000000E+00  0.00000000000E+00  0.74008739635E+03  0.74008739635E+03  0.00000000000E+00 0. -1.
          1   -1    0    0  501    0 -0.00000000000E+00 -0.00000000000E+00 -0.35088063419E+03  0.35088063419E+03  0.00000000000E+00 0. -1.
         25    2    1    2    0    0 -0.59790158075E+01  0.12148070307E+01  0.10107917182E+03  0.16086999190E+03  0.12499972372E+03 0.  0.
          2    1    1    2  501    0 -0.10247313987E+02 -0.42726818500E+02 -0.31866037787E+03  0.32167534081E+03  0.00000000000E+00 0. -1.
          1    1    1    2  502    0  0.16226329794E+02  0.41512011469E+02  0.60678796821E+03  0.60842269784E+03  0.00000000000E+00 0. -1.
         22    1    3    3    0    0 -0.10446841929E+02  0.41951295556E+02  0.11064183690E+03  0.11878831499E+03  0.00000000000E+00 0. -1.
         22    1    3    3    0    0  0.44678261215E+01 -0.40736488525E+02 -0.95626650830E+01  0.42081676904E+02  0.00000000000E+00 0. -1.
</event>
<event>
 7    1  0.5213103E-005  0.1728633E+03  0.7818608E-02  0.1209516E+00
          2   -1    0    0  502    0  0.00000000000E+00  0.00000000000E+00  0.98055735946E+03  0.98055735946E+03  0.00000000000E+00 0. -1.
          1   -1    0    0  501    0 -0.00000000000E+00 -0.00000000000E+00 -0.10535002005E+04  0.10535002005E+04  0.00000000000E+00 0. -1.
         25    2    1    2    0    0  0.77687658651E+01  0.26705378032E+03  0.23649830210E+02  0.29590871139E+03  0.12499830280E+03 0.  0.
          2    1    1    2  501    0  0.46653215726E+02 -0.16225808366E+03 -0.90527844478E+03  0.92088721939E+03  0.00000000000E+00 0. -1.
          1    1    1    2  502    0 -0.54421981591E+02 -0.10479569666E+03  0.80868577356E+03  0.81726162915E+03  0.00000000000E+00 0. -1.
         22    1    3    3    0    0  0.20211710669E+02  0.27145496362E+03  0.39746463488E+02  0.27509287865E+03  0.00000000000E+00 0.  1.
         22    1    3    3    0    0 -0.12442944804E+02 -0.44011833059E+01 -0.16096633278E+02  0.20815832742E+02  0.00000000000E+00 0.  1.
</event>
<event>
 7    1  0.7265896E-005  0.6698479E+03  0.7818608E-02  0.1141155E+00
          2   -1    0    0  502    0  0.00000000000E+00  0.00000000000E+00  0.18171384773E+04  0.18171384773E+04  0.00000000000E+00 0. -1.
          1   -1    0    0  501    0 -0.00000000000E+00 -0.00000000000E+00 -0.15122552426E+04  0.15122552426E+04  0.00000000000E+00 0. -1.
         25    2    1    2    0    0 -0.42056974897E+03  0.52925260711E+03 -0.56449776235E+03  0.88953382645E+03  0.12500187524E+03 0.  0.
          2    1    1    2  501    0  0.36160122095E+03 -0.55925524835E+03 -0.64318018128E+03  0.92585237559E+03  0.00000000000E+00 0. -1.
          1    1    1    2  502    0  0.58968528026E+02  0.30002641244E+02  0.15125611784E+04  0.15140075179E+04  0.00000000000E+00 0. -1.
         22    1    3    3    0    0 -0.26868212530E+03  0.26886060523E+03 -0.37209862363E+03  0.53191493230E+03  0.00000000000E+00 0.  1.
         22    1    3    3    0    0 -0.15188762368E+03  0.26039200188E+03 -0.19239913872E+03  0.35761889414E+03  0.00000000000E+00 0.  1.
</event>
<event>
 7    1  0.5213103E-005  0.5763529E+03  0.7818608E-02  0.1212116E+00
          2   -1    0    0  502    0  0.00000000000E+00  0.00000000000E+00  0.20220989369E+04  0.20220989369E+04  0.00000000000E+00 0. -1.
          1   -1    0    0  501    0 -0.00000000000E+00 -0.00000000000E+00 -0.51395164926E+03  0.51395164926E+03  0.00000000000E+00 0. -1.
         25    2    1    2    0    0 -0.54853980106E+03 -0.21537355554E+03  0.12329392932E+04  0.13722407448E+04  0.12499471663E+03 0.  0.
          2    1    1    2  501    0  0.34325145603E+02  0.29093021638E+01 -0.33572896671E+03  0.33749165730E+03  0.00000000000E+00 0. -1.
          1    1    1    2  502    0  0.51421465546E+03  0.21246425337E+03  0.61093696119E+03  0.82631818411E+03  0.00000000000E+00 0. -1.
         22    1    3    3    0    0 -0.53620334221E+03 -0.18364183315E+03  0.11834623495E+04  0.13121819538E+04  0.00000000000E+00 0.  1.
         22    1    3    3    0    0 -0.12336458844E+02 -0.31731722387E+02  0.49476943666E+02  0.60058791005E+02  0.00000000000E+00 0.  1.
</event>
<event>
 7    1  0.5213103E-005  0.4859945E+03  0.7818608E-02  0.1075566E+00
          2   -1    0    0  502    0  0.00000000000E+00  0.00000000000E+00  0.86017368657E+03  0.86017368657E+03  0.00000000000E+00 0. -1.
          1   -1    0    0  501    0 -0.00000000000E+00 -0.00000000000E+00 -0.11207326843E+04  0.11207326843E+04  0.00000000000E+00 0. -1.
         25    2    1    2    0    0  0.22794179012E+03  0.47955184699E+03  0.51968115085E+03  0.75340906996E+03  0.12501717691E+03 0.  0.
          2    1    1    2  501    0 -0.17074914707E+02 -0.48515892199E+03 -0.87155713333E+03  0.99763849613E+03  0.00000000000E+00 0. -1.
          1    1    1    2  502    0 -0.21086687541E+03  0.56070750069E+01  0.91316984738E+02  0.22985880479E+03  0.00000000000E+00 0. -1.
         22    1    3    3    0    0  0.21061385026E+03  0.30866660939E+03  0.36078472053E+03  0.51942168249E+03  0.00000000000E+00 0. -1.
         22    1    3    3    0    0  0.17327939861E+02  0.17088523760E+03  0.15889643032E+03  0.23398738747E+03  0.00000000000E+00 0. -1.
</event>
<event>
 7    1  0.5213103E-005  0.7438682E+03  0.7818608E-02  0.1103978E+00
          2   -1    0    0  502    0  0.00000000000E+00  0.00000000000E+00  0.79797559566E+03  0.79797559566E+03  0.00000000000E+00 0. -1.
          1   -1    0    0  501    0 -0.00000000000E+00 -0.00000000000E+00 -0.31487680842E+04  0.31487680842E+04  0.00000000000E+00 0. -1.
         25    2    1    2    0    0  0.61887848216E+03 -0.51841380640E+03 -0.26364792723E+03  0.85842785638E+03  0.12499881891E+03 0.  0.
          2    1    1    2  501    0 -0.83636082617E+02  0.44302836817E+02 -0.23309453065E+04  0.23328659964E+04  0.00000000000E+00 0. -1.
          1    1    1    2  502    0 -0.53524239955E+03  0.47411096959E+03  0.24380074519E+03  0.75544982700E+03  0.00000000000E+00 0. -1.
         22    1    3    3    0    0  0.16821894888E+03 -0.15322318464E+03 -0.13399705136E+03  0.26406470580E+03  0.00000000000E+00 0. -1.
         22    1    3    3    0    0  0.45065953328E+03 -0.36519062176E+03 -0.12965087587E+03  0.59436315058E+03  0.00000000000E+00 0. -1.
</event>
<event>
 7    1  0.5213103E-005  0.1004781E+04  0.7818608E-02  0.1116749E+00
          2   -1    0    0  502    0  0.00000000000E+00  0.00000000000E+00  0.22321623941E+04  0.22321623941E+04  0.00000000000E+00 0. -1.
          1   -1    0    0  501    0 -0.00000000000E+00 -0.00000000000E+00 -0.23609755956E+04  0.23609755956E+04  0.00000000000E+00 0. -1.
         25    2    1    2    0    0  0.94991709901E+03  0.25719057906E+03 -0.21994220736E+03  0.10161147945E+04  0.12500084866E+03 0.  0.
          2    1    1    2  501    0 -0.96241654697E+03 -0.31542088559E+03 -0.15952503799E+04  0.18895924744E+04  0.00000000000E+00 0. -1.
          1    1    1    2  502    0  0.12499447961E+02  0.58230306522E+02  0.16863793857E+04  0.16874307208E+04  0.00000000000E+00 0. -1.
         22    1    3    3    0    0  0.83336173696E+03  0.22440323887E+03 -0.14909097390E+03  0.87582915956E+03  0.00000000000E+00 0.  1.
         22    1    3    3    0    0  0.11655536205E+03  0.32787340191E+02 -0.70851233458E+02  0.14028563498E+03  0.00000000000E+00 0.  1.
</event>
<event>
 7    1  0.5213103E-005  0.5096104E+03  0.7818608E-02  0.1264500E+00
          2   -1    0    0  502    0  0.00000000000E+00  0.00000000000E+00  0.43027679176E+04  0.43027679176E+04  0.00000000000E+00 0. -1.
          1   -1    0    0  501    0 -0.00000000000E+00 -0.00000000000E+00 -0.49974204144E+03  0.49974204144E+03  0.00000000000E+00 0. -1.
         25    2    1    2    0    0  0.52092107848E+03  0.17183764068E+02  0.25925733393E+04  0.26473980501E+04  0.12500345817E+03 0.  0.
          2    1    1    2  501    0 -0.50775702092E+03 -0.35858019362E+02 -0.33507976828E+03  0.60941073256E+03  0.00000000000E+00 0. -1.
          1    1    1    2  502    0 -0.13164057561E+02  0.18674255295E+02  0.15455323051E+04  0.15457011763E+04  0.00000000000E+00 0. -1.
         22    1    3    3    0    0  0.23514087219E+03  0.66937913264E+02  0.12823506253E+04  0.13054482143E+04  0.00000000000E+00 0.  1.
         22    1    3    3    0    0  0.28578020630E+03 -0.49754149197E+02  0.13102227139E+04  0.13419498358E+04  0.00000000000E+00 0.  1.
</event>
<event>
 7    1  0.5213103E-005  0.3829827E+03  0.7818608E-02  0.1094068E+00
          2   -1    0    0  502    0  0.00000000000E+00  0.00000000000E+00  0.12205426320E+04  0.12205426320E+04  0.00000000000E+00 0. -1.
          1   -1    0    0  501    0 -0.00000000000E+00 -0.00000000000E+00 -0.53150282917E+03  0.53150282917E+03  0.00000000000E+00 0. -1.
         25    2    1    2    0    0  0.32701172804E+02  0.38173968230E+03  0.39190272057E+02  0.40491336645E+03  0.12499762062E+03 0.  0.
          2    1    1    2  501    0 -0.23453383741E+03 -0.32708199079E+03 -0.21573333417E+03  0.45665043640E+03  0.00000000000E+00 0. -1.
          1    1    1    2  502    0  0.20183266461E+03 -0.54657691509E+02  0.86558286491E+03  0.89048165830E+03  0.00000000000E+00 0. -1.
         22    1    3    3    0    0 -0.28991985050E+02  0.81050671542E+02  0.46574304575E+02  0.97871918348E+02  0.00000000000E+00 0. -1.
         22    1    3    3    0    0  0.61693157853E+02  0.30068901076E+03 -0.73840325180E+01  0.30704144810E+03  0.00000000000E+00 0. -1.
</event>
<event>
 7    1  0.5213103E-005  0.1590298E+04  0.7818608E-02  0.1087891E+00
          2   -1    0    0  502    0  0.00000000000E+00  0.00000000000E+00  0.21478429210E+04  0.21478429210E+04  0.00000000000E+00 0. -1.
          1   -1    0    0  501    0 -0.00000000000E+00 -0.00000000000E+00 -0.19546155342E+04  0.19546155342E+04  0.00000000000E+00 0. -1.
         25    2    1    2    0    0  0.77317925062E+03  0.13806269213E+04  0.15663012836E+03  0.15950218687E+04  0.12499966107E+03 0.  0.
          2    1    1    2  501    0 -0.40010647816E+02  0.37200692715E+02 -0.73326854069E+03  0.73530095624E+03  0.00000000000E+00 0. -1.
          1    1    1    2  502    0 -0.73316860280E+03 -0.14178276140E+04  0.76986579916E+03  0.17721356302E+04  0.00000000000E+00 0. -1.
         22    1    3    3    0    0  0.80062398538E+02  0.12538038884E+03  0.50919320498E+02  0.15723551369E+03  0.00000000000E+00 0.  1.
         22    1    3    3    0    0  0.69311685208E+03  0.12552465325E+04  0.10571080786E+03  0.14377863551E+04  0.00000000000E+00 0.  1.
</event>
<event>
 7    1  0.5213103E-005  0.6641280E+03  0.7818608E-02  0.1239064E+00
          2   -1    0    0  502    0  0.00000000000E+00  0.00000000000E+00  0.10588533672E+04  0.10588533672E+04  0.00000000000E+00 0. -1.
          1   -1    0    0  501    0 -0.00000000000E+00 -0.00000000000E+00 -0.22315148011E+04  0.22315148011E+04  0.00000000000E+00 0. -1.
         25    2    1    2    0    0  0.36708443501E+03  0.55533963309E+03 -0.13956187115E+04  0.15512992158E+04  0.12499831398E+03 0.  0.
          2    1    1    2  501    0 -0.34609681997E+03 -0.56368868362E+03 -0.61358159187E+03  0.90222519956E+03  0.00000000000E+00 0. -1.
          1    1    1    2  502    0 -0.20987615033E+02  0.83490505279E+01  0.83653886947E+03  0.83684375289E+03  0.00000000000E+00 0. -1.
         22    1    3    3    0    0  0.37319475529E+03  0.51411428999E+03 -0.12966877537E+04  0.14439483922E+04  0.00000000000E+00 0. -1.
         22    1    3    3    0    0 -0.61103202806E+01  0.41225343102E+02 -0.98930957754E+02  0.10735082361E+03  0.00000000000E+00 0. -1.
</event>
<event>
 7    1  0.8994681E-005  0.3154132E+03  0.7818608E-02  0.1202705E+00
          2   -1    0    0  502    0  0.00000000000E+00  0.00000000000E+00  0.17398365410E+04  0.17398365410E+04  0.00000000000E+00 0. -1.
          1   -1    0    0  501    0 -0.00000000000E+00 -0.00000000000E+00 -0.15420200639E+04  0.15420200639E+04  0.00000000000E+00 0. -1.
         25    2    1    2    0    0  0.18516292280E+03 -0.27649641256E+03 -0.12183377420E+04  0.12691365607E+04  0.12500072794E+03 0.  0.
          2    1    1    2  501    0 -0.17923266129E+03  0.20711810615E+03 -0.23451536336E+03  0.36058246272E+03  0.00000000000E+00 0. -1.
          1    1    1    2  502    0 -0.59302615134E+01  0.69378306409E+02  0.16506695825E+04  0.16521375814E+04  0.00000000000E+00 0. -1.
         22    1    3    3    0    0  0.68128268332E+02 -0.36405556147E+02 -0.16081103027E+03  0.17840126939E+03  0.00000000000E+00 0.  1.
         22    1    3    3    0    0  0.11703465447E+03 -0.24009085641E+03 -0.10575267118E+04  0.10907352913E+04  0.00000000000E+00 0.  1.
</event>
<event>
 7    1  0.5213103E-005  0.7106254E+03  0.7818608E-02  0.1188475E+00
          2   -1    0    0  502    0  0.00000000000E+00  0.00000000000E+00  0.20822984081E+04  0.20822984081E+04  0.00000000000E+00 0. -1.
          1   -1    0    0  501    0 -0.00000000000E+00 -0.00000000000E+00 -0.75650252299E+03  0.75650252299E+03  0.00000000000E+00 0. -1.
         25    2    1    2    0    0  0.94429837125E+02  0.68393536630E+03  0.28161429419E+03  0.75605471164E+03  0.12501014712E+03 0.  0.
          2    1    1    2  501    0 -0.11879526583E+03 -0.71059047665E+03 -0.26902586525E+03  0.76904229849E+03  0.00000000000E+00 0. -1.
          1    1    1    2  502    0  0.24365428703E+02  0.26655110351E+02  0.13132074562E+04  0.13137039210E+04  0.00000000000E+00 0. -1.
         22    1    3    3    0    0  0.69921179468E+01  0.31954618001E+02 -0.13098584019E+02  0.35235780512E+02  0.00000000000E+00 0.  1.
         22    1    3    3    0    0  0.87437719178E+02  0.65198074830E+03  0.29471287821E+03  0.72081893113E+03  0.00000000000E+00 0.  1.
</event>
<event>
 7    1  0.5213103E-005  0.3367067E+03  0.7818608E-02  0.1191920E+00
          2   -1    0    0  502    0  0.00000000000E+00  0.00000000000E+00  0.12322050444E+04  0.12322050444E+04  0.00000000000E+00 0. -1.
          1   -1    0    0  501    0 -0.00000000000E+00 -0.00000000000E+00 -0.12873704453E+04  0.12873704453E+04  0.00000000000E+00 0. -1.
         25    2    1    2    0    0 -0.39626560441E+01  0.38121447379E+03 -0.57630915506E+03  0.70220869443E+03  0.12499852259E+03 0.  0.
          2    1    1    2  501    0  0.20993413229E+02 -0.30984645031E+03 -0.60965168201E+03  0.68419348108E+03  0.00000000000E+00 0. -1.
          1    1    1    2  502    0 -0.17030757185E+02 -0.71368023485E+02  0.11307954361E+04  0.11331733141E+04  0.00000000000E+00 0. -1.
         22    1    3    3    0    0 -0.47021783721E+02  0.62591319450E+02 -0.13736111990E+03  0.15810375921E+03  0.00000000000E+00 0. -1.
         22    1    3    3    0    0  0.43059127677E+02  0.31862315434E+03 -0.43894803516E+03  0.54410493522E+03  0.00000000000E+00 0. -1.
</event>
<event>
 7    1  0.5213103E-005  0.5312274E+03  0.7818608E-02  0.1187925E+00
          2   -1    0    0  502    0  0.00000000000E+00  0.00000000000E+00  0.98454428218E+03  0.98454428218E+03  0.00000000000E+00 0. -1.
          1   -1    0    0  501    0 -0.00000000000E+00 -0.00000000000E+00 -0.88108751925E+03  0.88108751925E+03  0.00000000000E+00 0. -1.
         25    2    1    2    0    0 -0.50993865002E+03  0.18087851700E+03  0.38112223258E+03  0.67352299670E+03  0.12499842489E+03 0.  0.
          2    1    1    2  501    0  0.34284185699E+02  0.34451809311E+02 -0.58448862081E+03  0.58650599350E+03  0.00000000000E+00 0. -1.
          1    1    1    2  502    0  0.47565446433E+03 -0.21533032631E+03  0.30682315117E+03  0.60560281122E+03  0.00000000000E+00 0. -1.
         22    1    3    3    0    0 -0.28915413186E+03  0.10837623361E+03  0.14132818974E+03  0.33960149764E+03  0.00000000000E+00 0. -1.
         22    1    3    3    0    0 -0.22078451817E+03  0.72502283389E+02  0.23979404284E+03  0.33392149907E+03  0.00000000000E+00 0. -1.
</event>
<event>
 7    1  0.5213103E-005  0.4511312E+03  0.7818608E-02  0.1109810E+00
          2   -1    0    0  502    0  0.00000000000E+00  0.00000000000E+00  0.16420314545E+04  0.16420314545E+04  0.00000000000E+00 0. -1.
          1   -1    0    0  501    0 -0.00000000000E+00 -0.00000000000E+00 -0.40656838410E+03  0.40656838410E+03  0.00000000000E+00 0. -1.
         25    2    1    2    0    0 -0.48536980994E+03  0.13380017108E+03 -0.32644307105E+02  0.51978578958E+03  0.12500111232E+03 0.  0.
          2    1    1    2  501    0  0.39007220481E+03 -0.24743055633E+02  0.17860961361E+03  0.42973240260E+03  0.00000000000E+00 0. -1.
          1    1    1    2  502    0  0.95297605128E+02 -0.10905711544E+03  0.10894977639E+04  0.10990816464E+04  0.00000000000E+00 0. -1.
         22    1    3    3    0    0 -0.24736730305E+03  0.13202951205E+03 -0.80903732576E+01  0.28051350914E+03  0.00000000000E+00 0. -1.
         22    1    3    3    0    0 -0.23800250689E+03  0.17706590275E+01 -0.24553933848E+02  0.23927228044E+03  0.00000000000E+00 0. -1.
</event>
<event>
 7    1  0.5213103E-005  0.8838171E+02  0.7818608E-02  0.1339340E+00
          2   -1    0    0  502    0  0.00000000000E+00  0.00000000000E+00  0.18314570261E+04  0.18314570261E+04  0.00000000000E+00 0. -1.
          1   -1    0    0  501    0 -0.00000000000E+00 -0.00000000000E+00 -0.79807061352E+02  0.79807061352E+02  0.00000000000E+00 0. -1.
         25    2    1    2    0    0 -0.45166766777E+02  0.13786523706E+03  0.78218913012E+03  0.80528985294E+03  0.12500020626E+03 0.  0.
          2    1    1    2  501    0  0.93729717772E+01 -0.65518459518E+02 -0.50233696998E+02  0.83089984064E+02  0.00000000000E+00 0. -1.
          1    1    1    2  502    0  0.35793795000E+02 -0.72346777544E+02  0.10196945317E+04  0.10228842505E+04  0.00000000000E+00 0. -1.
         22    1    3    3    0    0  0.50177813128E+01  0.11922270154E+03  0.67509759773E+03  0.68556254065E+03  0.00000000000E+00 0.  1.
         22    1    3    3    0    0 -0.50184548090E+02  0.18642535525E+02  0.10709153239E+03  0.11972731229E+03  0.00000000000E+00 0.  1.
</event>
<event>
 7    1  0.5213103E-005  0.7840794E+03  0.7818608E-02  0.1120666E+00
          2   -1    0    0  502    0  0.00000000000E+00  0.00000000000E+00  0.83771281270E+03  0.83771281270E+03  0.00000000000E+00 0. -1.
          1   -1    0    0  501    0 -0.00000000000E+00 -0.00000000000E+00 -0.18698355088E+04  0.18698355088E+04  0.00000000000E+00 0. -1.
         25    2    1    2    0    0 -0.65848167536E+03  0.50656436592E+03 -0.27925450439E+03  0.88533272700E+03  0.12500154267E+03 0.  0.
          2    1    1    2  501    0  0.62709439803E+03 -0.44102834320E+03 -0.11699987511E+04  0.13988032246E+04  0.00000000000E+00 0. -1.
          1    1    1    2  502    0  0.31387277329E+02 -0.65536022717E+02  0.41713055937E+03  0.42341236994E+03  0.00000000000E+00 0. -1.
         22    1    3    3    0    0 -0.46089436995E+03  0.38973531304E+03 -0.25236290848E+03  0.65422035436E+03  0.00000000000E+00 0.  1.
         22    1    3    3    0    0 -0.19758730541E+03  0.11682905288E+03 -0.26891595908E+02  0.23111237264E+03  0.00000000000E+00 0.  1.
</event>
<event>
 7    1  0.5213103E-005  0.3787078E+03  0.7818608E-02  0.1060667E+00
          2   -1    0    0  502    0  0.00000000000E+00  0.00000000000E+00  0.13767675768E+04  0.13767675768E+04  0.00000000000E+00 0. -1.
          1   -1    0    0  501    0 -0.00000000000E+00 -0.00000000000E+00 -0.25514220161E+03  0.25514220161E+03  0.00000000000E+00 0. -1.
         25    2    1    2    0    0 -0.23608225089E+03  0.12305011205E+03  0.17962648068E+03  0.34462529336E+03  0.12499904399E+03 0.  0.
          2    1    1    2  501    0 -0.29017393765E+03 -0.16208971073E+03  0.24431671166E+03  0.41251017443E+03  0.00000000000E+00 0. -1.
          1    1    1    2  502    0  0.52625618854E+03  0.39039598680E+02  0.69768218283E+03  0.87477431060E+03  0.00000000000E+00 0. -1.
         22    1    3    3    0    0 -0.19496243378E+03  0.14453837090E+03  0.17233642318E+03  0.29766009810E+03  0.00000000000E+00 0. -1.
         22    1    3    3    0    0 -0.41119817108E+02 -0.21488258844E+02  0.72900575048E+01  0.46965195258E+02  0.00000000000E+00 0. -1.
</event>
<event>
 7    1  0.5213103E-005  0.6735991E+03  0.7818608E-02  0.1032349E+00
          2   -1    0    0  502    0  0.00000000000E+00  0.00000000000E+00  0.15006415501E+04  0.15006415501E+04  0.00000000000E+00 0. -1.
          1   -1    0    0  501    0 -0.00000000000E+00 -0.00000000000E+00 -0.22273273428E+04  0.22273273428E+04  0.00000000000E+00 0. -1.
         25    2    1    2    0    0  0.84783108857E+03 -0.23498252353E+03 -0.60924433665E+03  0.10774218202E+04  0.12499910315E+03 0.  0.
          2    1    1    2  501    0 -0.19403529962E+03  0.20281135749E+03 -0.12832230618E+04  0.13135614072E+04  0.00000000000E+00 0. -1.
          1    1    1    2  502    0 -0.65379578896E+03  0.32171166038E+02  0.11657816057E+04  0.13369856655E+04  0.00000000000E+00 0. -1.
         22    1    3    3    0    0  0.78429630172E+03 -0.18056872934E+03 -0.54577645324E+03  0.97241847567E+03  0.00000000000E+00 0. -1.
         22    1    3    3    0    0  0.63534786856E+02 -0.54413794191E+02 -0.63467883406E+02  0.10500334453E+03  0.00000000000E+00 0. -1.
</event>
<event>
 7    1  0.5213103E-005  0.1007733E+04  0.7818608E-02  0.1101749E+00
          2   -1    0    0  502    0  0.00000000000E+00  0.00000000000E+00  0.28784067742E+04  0.28784067742E+04  0.00000000000E+00 0. -1.
          1   -1    0    0  501    0 -0.00000000000E+00 -0.00000000000E+00 -0.96732837199E+03  0.96732837199E+03  0.00000000000E+00 0. -1.
         25    2    1    2    0    0 -0.85701754362E+03 -0.61507485532E+03  0.13268398686E+04  0.16996837314E+04  0.12499840897E+03 0.  0.
          2    1    1    2  501    0  0.83490423495E+03  0.54665720009E+03 -0.46033723935E+03  0.10990038898E+04  0.00000000000E+00 0. -1.
          1    1    1    2  502    0  0.22113308676E+02  0.68417655236E+02  0.10445757730E+04  0.10470475249E+04  0.00000000000E+00 0. -1.
         22    1    3    3    0    0 -0.48022987804E+03 -0.34088566205E+03  0.83886710947E+03  0.10249496562E+04  0.00000000000E+00 0. -1.
         22    1    3    3    0    0 -0.37678766558E+03 -0.27418919327E+03  0.48797275908E+03  0.67473407521E+03  0.00000000000E+00 0. -1.
</event>
<event>
 7    1  0.5213103E-005  0.8044564E+03  0.7818608E-02  0.1130610E+00
          2   -1    0    0  502    0  0.00000000000E+00  0.00000000000E+00  0.14333511025E+04  0.14333511025E+04  0.00000000000E+00 0. -1.
          1   -1    0    0  501    0 -0.00000000000E+00 -0.00000000000E+00 -0.40601734678E+04  0.40601734678E+04  0.00000000000E+00 0. -1.
         25    2    1    2    0    0  0.55973997228E+02 -0.81430496478E+03  0.79958321582E+03  0.11494277851E+04  0.12500100074E+03 0.  0.
          2    1    1    2  501    0 -0.54299298241E+02  0.31194461200E+02 -0.35506392653E+04  0.35511914480E+04  0.00000000000E+00 0. -1.
          1    1    1    2  502    0 -0.16746989866E+01  0.78311050358E+03  0.12423368420E+03  0.79290533717E+03  0.00000000000E+00 0. -1.
         22    1    3    3    0    0  0.88736648835E+02 -0.49288490560E+03  0.52317413030E+03  0.72423814704E+03  0.00000000000E+00 0. -1.
         22    1    3    3    0    0 -0.32762651608E+02 -0.32142005918E+03  0.27640908552E+03  0.42518963809E+03  0.00000000000E+00 0. -1.
</event>
<event>
 7    1  0.5213103E-005  0.1716701E+04  0.7818608E-02  0.1045590E+00
          2   -1    0    0  502    0  0.00000000000E+00  0.00000000000E+00  0.18144537955E+04  0.18144537955E+04  0.00000000000E+00 0. -1.
          1   -1    0    0  501    0 -0.00000000000E+00 -0.00000000000E+00 -0.27392865285E+04  0.27392865285E+04  0.00000000000E+00 0. -1.
         25    2    1    2    0    0 -0.16736750020E+04  0.21682806996E+03 -0.76566146584E+03  0.18574352138E+04  0.12500267522E+03 0.  0.
          2    1    1    2  501    0  0.17208457835E+04 -0.29441571542E+03 -0.89016743401E+03  0.19596910177E+04  0.00000000000E+00 0. -1.
          1    1    1    2  502    0 -0.47170781483E+02  0.77587645463E+02  0.73099616683E+03  0.73661409251E+03  0.00000000000E+00 0. -1.
         22    1    3    3    0    0 -0.14121774842E+04  0.21791423331E+03 -0.67841972993E+03  0.15817664777E+04  0.00000000000E+00 0.  1.
         22    1    3    3    0    0 -0.26149751785E+03 -0.10861633510E+01 -0.87241735910E+02  0.27566873613E+03  0.00000000000E+00 0.  1.
</event>
<event>
 7    1  0.5213103E-005  0.1194822E+03  0.7818608E-02  0.1275071E+00
          2   -1    0    0  502    0  0.00000000000E+00  0.00000000000E+00  0.18993417274E+04  0.18993417274E+04  0.00000000000E+00 0. -1.
          1   -1    0    0  501    0 -0.00000000000E+00 -0.00000000000E+00 -0.20551648997E+04  0.20551648997E+04  0.00000000000E+00 0. -1.
         25    2    1    2    0    0 -0.15483271323E+03  0.50429662741E+02  0.10843252647E+04  0.11035864193E+04  0.12500154029E+03 0.  0.
          2    1    1    2  501    0  0.11599913168E+03  0.28512954106E+02 -0.20413805827E+04  0.20448724827E+04  0.00000000000E+00 0. -1.
          1    1    1    2  502    0  0.38833581548E+02 -0.78942616847E+02  0.80123214570E+03  0.80604772508E+03  0.00000000000E+00 0. -1.
         22    1    3    3    0    0 -0.49713705928E+02  0.79524451711E+02  0.41787935887E+03  0.42827415232E+03  0.00000000000E+00 0.  1.
         22    1    3    3    0    0 -0.10511900730E+03 -0.29094788971E+02  0.66644590585E+03  0.67531226693E+03  0.00000000000E+00 0.  1.
</event>
<event>
 7    1  0.5213103E-005  0.3030690E+03  0.7818608E-02  0.1285504E+00
          2   -1    0    0  502    0  0.00000000000E+00  0.00000000000E+00  0.29157419485E+03  0.29157419485E+03  0.00000000000E+00 0. -1.
          1   -1    0    0  501    0 -0.00000000000E+00 -0.00000000000E+00 -0.59254373695E+03  0.59254373695E+03  0.00000000000E+00 0. -1.
         25    2    1    2    0    0 -0.64354177967E+02  0.31229715531E+03 -0.12693558554E+03  0.36524856446E+03  0.12499158981E+03 0.  0.
          2    1    1    2  501    0 -0.14479961484E+02 -0.27870490188E+02 -0.21818652027E+03  0.22043545798E+03  0.00000000000E+00 0. -1.
          1    1    1    2  502    0  0.78834139451E+02 -0.28442666513E+03  0.44152563706E+02  0.29843390937E+03  0.00000000000E+00 0. -1.
         22    1    3    3    0    0  0.37753518664E+02  0.80850836038E+02 -0.26644688923E+02  0.93124246614E+02  0.00000000000E+00 0. -1.
         22    1    3    3    0    0 -0.10210769663E+03  0.23144631927E+03 -0.10029089661E+03  0.27212431784E+03  0.00000000000E+00 0. -1.
</event>
<event>
 7    1  0.5213103E-005  0.2962335E+03  0.7818608E-02  0.1098948E+00
          2   -1    0    0  502    0  0.00000000000E+00  0.00000000000E+00  0.27008574185E+03  0.27008574185E+03  0.00000000000E+00 0. -1.
          1   -1    0    0  501    0 -0.00000000000E+00 -0.00000000000E+00 -0.32057227244E+04  0.32057227244E+04  0.00000000000E+00 0. -1.
         25    2    1    2    0    0 -0.36754502121E+03  0.32608842320E+03 -0.28115212516E+04  0.28568687657E+04  0.12499757563E+03 0.  0.
          2    1    1    2  501    0  0.24570599968E+03 -0.62972058423E+02 -0.19559368981E+03  0.32030268484E+03  0.00000000000E+00 0. -1.
          1    1    1    2  502    0  0.12183902153E+03 -0.26311636478E+03  0.71477958810E+02  0.29863701575E+03  0.00000000000E+00 0. -1.
         22    1    3    3    0    0 -0.25161446236E+03  0.19296738199E+03 -0.14719655413E+04  0.15057319824E+04  0.00000000000E+00 0.  1.
         22    1    3    3    0    0 -0.11593055885E+03  0.13312104121E+03 -0.13395557103E+04  0.13511367833E+04  0.00000000000E+00 0.  1.
</event>
<event>
 7    1  0.5213103E-005  0.8265994E+03  0.7818608E-02  0.1189120E+00
          2   -1    0    0  502    0  0.00000000000E+00  0.00000000000E+00  0.19147398307E+04  0.19147398307E+04  0.00000000000E+00 0. -1.
          1   -1    0    0  501    0 -0.00000000000E+00 -0.00000000000E+00 -0.41365360776E+03  0.41365360776E+03  0.00000000000E+00 0. -1.
         25    2    1    2    0    0  0.67872654680E+03  0.50228319151E+03  0.47167469885E+03  0.97522305505E+03  0.12499942312E+03 0.  0.
          2    1    1    2  501    0 -0.30263728758E+02 -0.58591279127E+01 -0.89837216671E+01  0.32108097316E+02  0.00000000000E+00 0. -1.
          1    1    1    2  502    0 -0.64846281804E+03 -0.49642406359E+03  0.10383952457E+04  0.13210622861E+04  0.00000000000E+00 0. -1.
         22    1    3    3    0    0  0.42644952395E+03  0.36704649989E+03  0.36001181681E+03  0.66797517753E+03  0.00000000000E+00 0.  1.
         22    1    3    3    0    0  0.25227702284E+03  0.13523669162E+03  0.11166288203E+03  0.30724787752E+03  0.00000000000E+00 0.  1.
</event>
<event>
 7    1  0.5213103E-005  0.6451109E+03  0.7818608E-02  0.1209124E+00
          2   -1    0    0  502    0  0.00000000000E+00  0.00000000000E+00  0.22673574427E+04  0.22673574427E+04  0.00000000000E+00 0. -1.
          1   -1    0    0  501    0 -0.00000000000E+00 -0.00000000000E+00 -0.10577364624E+04  0.10577364624E+04  0.00000000000E+00 0. -1.
         25    2    1    2    0    0 -0.49408473219E+03  0.45679906799E+03  0.64613511801E+03  0.94122219092E+03  0.12499404328E+03 0.  0.
          2    1    1    2  501    0  0.47182950200E+03 -0.43412034084E+03 -0.79707331739E+03  0.10229415538E+04  0.00000000000E+00 0. -1.
          1    1    1    2  502    0  0.22255230195E+02 -0.22678727150E+02  0.13605591797E+04  0.13609301603E+04  0.00000000000E+00 0. -1.
         22    1    3    3    0    0 -0.15615491234E+03  0.16404745712E+03  0.29946061900E+03  0.37546316353E+03  0.00000000000E+00 0.  1.
         22    1    3    3    0    0 -0.33792981985E+03  0.29275161087E+03  0.34667449901E+03  0.56575902739E+03  0.00000000000E+00 0.  1.
</event>
<event>
 7    1  0.5213103E-005  0.3657912E+03  0.7818608E-02  0.1107157E+00
          2   -1    0    0  502    0  0.00000000000E+00  0.00000000000E+00  0.13337441451E+04  0.13337441451E+04  0.00000000000E+00 0. -1.
          1   -1    0    0  501    0 -0.00000000000E+00 -0.00000000000E+00 -0.25377159750E+03  0.25377159750E+03  0.00000000000E+00 0. -1.
         25    2    1    2    0    0  0.47975971666E+03  0.91852260618E+02  0.49685560988E+03  0.70788236566E+03  0.12500289207E+03 0.  0.
          2    1    1    2  501    0 -0.18213757592E+03  0.31084960249E+02 -0.29911542944E+02  0.18717657898E+03  0.00000000000E+00 0. -1.
          1    1    1    2  502    0 -0.29762214074E+03 -0.12293722087E+03  0.61302848068E+03  0.69245679797E+03  0.00000000000E+00 0. -1.
         22    1    3    3    0    0  0.17419022274E+03  0.50607557244E+00  0.10795737742E+03  0.20493239166E+03  0.00000000000E+00 0.  1.
         22    1    3    3    0    0  0.30556949393E+03  0.91346185046E+02  0.38889823246E+03  0.50294997400E+03  0.00000000000E+00 0.  1.
</event>
<event>
 7    1  0.5213103E-005  0.3177746E+03  0.7818608E-02  0.1197212E+00
          2   -1    0    0  502    0  0.00000000000E+00  0.00000000000E+00  0.14745213945E+04  0.14745213945E+04  0.00000000000E+00 0. -1.
          1   -1    0    0  501    0 -0.00000000000E+00 -0.00000000000E+00 -0.26636206021E+03  0.26636206021E+03  0.00000000000E+00 0. -1.
         25    2    1    2    0    0  0.34234322361E+03 -0.65023269220E+02  0.32139793985E+03  0.49025391699E+03  0.12500143633E+03 0.  0.
          2    1    1    2  501    0 -0.31527833172E+02  0.66242089857E+02 -0.15070034317E+03  0.16760850863E+03  0.00000000000E+00 0. -1.
          1    1    1    2  502    0 -0.31081539044E+03 -0.12188206371E+01  0.10374617376E+04  0.10830210291E+04  0.00000000000E+00 0. -1.
         22    1    3    3    0    0  0.26927181398E+03 -0.57342254584E+02  0.17435437824E+03  0.32587557929E+03  0.00000000000E+00 0.  1.
         22    1    3    3    0    0  0.73071409633E+02 -0.76810146353E+01  0.14704356162E+03  0.16437833770E+03  0.00000000000E+00 0.  1.
</event>
<event>
 7    1  0.5213103E-005  0.3767138E+03  0.7818608E-02  0.1240066E+00
          2   -1    0    0  502    0  0.00000000000E+00  0.00000000000E+00  0.23963507092E+04  0.23963507092E+04  0.00000000000E+00 0. -1.
          1   -1    0    0  501    0 -0.00000000000E+00 -0.00000000000E+00 -0.22563794282E+03  0.22563794282E+03  0.00000000000E+00 0. -1.
         25    2    1    2    0    0  0.28942799133E+03 -0.28209435841E+03  0.16739008697E+04  0.17265324515E+04  0.12499758125E+03 0.  0.
          2    1    1    2  501    0 -0.28421736793E+03  0.24302323176E+03 -0.22521415047E+02  0.37462917337E+03  0.00000000000E+00 0. -1.
          1    1    1    2  502    0 -0.52106233990E+01  0.39071126648E+02  0.51933331176E+03  0.52082702718E+03  0.00000000000E+00 0. -1.
         22    1    3    3    0    0  0.18759246208E+03 -0.10185407532E+03  0.94460033367E+03  0.96841880138E+03  0.00000000000E+00 0.  1.
         22    1    3    3    0    0  0.10183552925E+03 -0.18024028309E+03  0.72930053604E+03  0.75811365014E+03  0.00000000000E+00 0.  1.
</event>
<event>
 7    1  0.5213103E-005  0.3448605E+03  0.7818608E-02  0.1164254E+00
          2   -1    0    0  502    0  0.00000000000E+00  0.00000000000E+00  0.23251788481E+04  0.23251788481E+04  0.00000000000E+00 0. -1.
          1   -1    0    0  501    0 -0.00000000000E+00 -0.00000000000E+00 -0.29353981706E+03  0.29353981706E+03  0.00000000000E+00 0. -1.
         25    2    1    2    0    0  0.30107694249E+03 -0.29673230003E+03  0.49609362194E+03  0.66364935595E+03  0.12499681096E+03 0.  0.
          2    1    1    2  501    0 -0.86855887920E+02  0.45107683234E+02 -0.18166466290E+03  0.20635091010E+03  0.00000000000E+00 0. -1.
          1    1    1    2  502    0 -0.21422105457E+03  0.25162461679E+03  0.17172100720E+04  0.17487183991E+04  0.00000000000E+00 0. -1.
         22    1    3    3    0    0  0.37393825343E+02 -0.52483013382E+01  0.94271011176E+02  0.10155228402E+03  0.00000000000E+00 0. -1.
         22    1    3    3    0    0  0.26368311715E+03 -0.29148399869E+03  0.40182261076E+03  0.56209707194E+03  0.00000000000E+00 0. -1.
</event>
<event>
 7    1  0.5213103E-005  0.1678661E+03  0.7818608E-02  0.1217001E+00
          2   -1    0    0  502    0  0.00000000000E+00  0.00000000000E+00  0.59433525753E+03  0.59433525753E+03  0.00000000000E+00 0. -1.
          1   -1    0    0  501    0 -0.00000000000E+00 -0.00000000000E+00 -0.43669334155E+03  0.43669334155E+03  0.00000000000E+00 0. -1.
         25    2    1    2    0    0  0.29242773029E+02 -0.24775284052E+03  0.48122062088E+03  0.55626876805E+03  0.12500018638E+03 0.  0.
          2    1    1    2  501    0 -0.77208302584E+02  0.14620214156E+03 -0.32253862983E+03  0.36244634902E+03  0.00000000000E+00 0. -1.
          1    1    1    2  502    0  0.47965529555E+02  0.10155069896E+03 -0.10400750584E+01  0.11231348201E+03  0.00000000000E+00 0. -1.
         22    1    3    3    0    0  0.48468673425E+02 -0.25162257825E+03  0.46451484411E+03  0.53050652643E+03  0.00000000000E+00 0.  1.
         22    1    3    3    0    0 -0.19225900395E+02  0.38697377268E+01  0.16705776767E+02  0.25762241623E+02  0.00000000000E+00 0.  1.
</event>
<event>
 7    1  0.5213103E-005  0.7731654E+03  0.7818608E-02  0.1180108E+00
          2   -1    0    0  502    0  0.00000000000E+00  0.00000000000E+00  0.15443109003E+04  0.15443109003E+04  0.00000000000E+00 0. -1.
          1   -1    0    0  501    0 -0.00000000000E+00 -0.00000000000E+00 -0.96888971354E+03  0.96888971354E+03  0.00000000000E+00 0. -1.
         25    2    1    2    0    0  0.69890881025E+03  0.34882423307E+03 -0.20268611515E+03  0.81661443330E+03  0.12500240309E+03 0.  0.
          2    1    1    2  501    0 -0.69858632568E+03 -0.31238589856E+03 -0.13983460286E+03  0.77792128149E+03  0.00000000000E+00 0. -1.
          1    1    1    2  502    0 -0.32248456865E+00 -0.36438334519E+02  0.91794190472E+03  0.91866489900E+03  0.00000000000E+00 0. -1.
         22    1    3    3    0    0  0.64111288790E+03  0.34418566484E+03 -0.16115223044E+03  0.74529158609E+03  0.00000000000E+00 0. -1.
         22    1    3    3    0    0  0.57795922348E+02  0.46385682309E+01 -0.41533884715E+02  0.71322847215E+02  0.00000000000E+00 0. -1.
</event>
<event>
 7    1  0.5213103E-005  0.4266984E+02  0.7818608E-02  0.1605301E+00
          2   -1    0    0  502    0  0.00000000000E+00  0.00000000000E+00  0.13884732781E+04  0.13884732781E+04  0.00000000000E+00 0. -1.
          1   -1    0    0  501    0 -0.00000000000E+00 -0.00000000000E+00 -0.46897461155E+02  0.46897461155E+02  0.00000000000E+00 0. -1.
         25    2    1    2    0    0 -0.23774738478E+02 -0.44406854353E+01  0.14029554159E+03  0.18945569344E+03  0.12500265161E+03 0.  0.
          2    1    1    2  501    0 -0.15526179723E+02 -0.12919476069E+02 -0.17289778053E+02  0.26587808179E+02  0.00000000000E+00 0. -1.
          1    1    1    2  502    0  0.39300918200E+02  0.17360161504E+02  0.12185700534E+04  0.12193272377E+04  0.00000000000E+00 0. -1.
         22    1    3    3    0    0  0.11874591857E+02 -0.42596721001E+00 -0.21048842761E+02  0.24171081097E+02  0.00000000000E+00 0.  1.
         22    1    3    3    0    0 -0.35649330335E+02 -0.40147182252E+01  0.16134438435E+03  0.16528461234E+03  0.00000000000E+00 0.  1.
</event>
<event>
 7    1  0.5213103E-005  0.3969956E+02  0.7818608E-02  0.1564391E+00
          2   -1    0    0  502    0  0.00000000000E+00  0.00000000000E+00  0.56593413405E+03  0.56593413405E+03  0.00000000000E+00 0. -1.
          1   -1    0    0  501    0 -0.00000000000E+00 -0.00000000000E+00 -0.93065022393E+03  0.93065022393E+03  0.00000000000E+00 0. -1.
         25    2    1    2    0    0  0.22332321652E+01  0.13688763831E+02 -0.34469788993E+03  0.36692581830E+03  0.12500220491E+03 0.  0.
          2    1    1    2  501    0  0.62485411660E+00 -0.41446852679E+02 -0.57373930133E+03  0.57523475028E+03  0.00000000000E+00 0. -1.
          1    1    1    2  502    0 -0.28580862818E+01  0.27758088848E+02  0.55372110137E+03  0.55442378941E+03  0.00000000000E+00 0. -1.
         22    1    3    3    0    0  0.32023353533E+02  0.14254931441E+02 -0.33312119785E+03  0.33496034198E+03  0.00000000000E+00 0. -1.
         22    1    3    3    0    0 -0.29790121368E+02 -0.56616760939E+00 -0.11576692080E+02  0.31965476320E+02  0.00000000000E+00 0. -1.
</event>
<event>
 7    1  0.5213103E-005  0.8697569E+02  0.7818608E-02  0.1339992E+00
          2   -1    0    0  502    0  0.00000000000E+00  0.00000000000E+00  0.12086645914E+04  0.12086645914E+04  0.00000000000E+00 0. -1.
          1   -1    0    0  501    0 -0.00000000000E+00 -0.00000000000E+00 -0.52005977336E+02  0.52005977336E+02  0.00000000000E+00 0. -1.
         25    2    1    2    0    0 -0.17829346888E+02 -0.51897980007E+02  0.59063474150E+03  0.60620629142E+03  0.12500153578E+03 0.  0.
          2    1    1    2  501    0 -0.70291903172E+02 -0.51223218955E+02  0.49260672562E+03  0.50022610482E+03  0.00000000000E+00 0. -1.
          1    1    1    2  502    0  0.88121250059E+02  0.10312119896E+03  0.73417146912E+02  0.15423817247E+03  0.00000000000E+00 0. -1.
         22    1    3    3    0    0  0.34193741318E+01 -0.86457586908E+02  0.28367792158E+03  0.29658012349E+03  0.00000000000E+00 0.  1.
         22    1    3    3    0    0 -0.21248721019E+02  0.34559606901E+02  0.30695681992E+03  0.30962616793E+03  0.00000000000E+00 0.  1.
</event>
<event>
 7    1  0.5213103E-005  0.7493214E+02  0.7818608E-02  0.1406043E+00
          2   -1    0    0  502    0  0.00000000000E+00  0.00000000000E+00  0.13866187743E+04  0.13866187743E+04  0.00000000000E+00 0. -1.
          1   -1    0    0  501    0 -0.00000000000E+00 -0.00000000000E+00 -0.29871494955E+02  0.29871494955E+02  0.00000000000E+00 0. -1.
         25    2    1    2    0    0 -0.66310872426E+02  0.14084649380E+02  0.49995825325E+03  0.51979156892E+03  0.12501804263E+03 0.  0.
          2    1    1    2  501    0  0.13013998200E+02  0.43105785303E+02  0.97641695490E+01  0.46073982710E+02  0.00000000000E+00 0. -1.
          1    1    1    2  502    0  0.53296874226E+02 -0.57190434684E+02  0.84702485654E+03  0.85062471762E+03  0.00000000000E+00 0. -1.
         22    1    3    3    0    0 -0.16422657362E+00  0.60001571556E+02  0.25388274574E+03  0.26087672212E+03  0.00000000000E+00 0.  1.
         22    1    3    3    0    0 -0.66146645852E+02 -0.45916922176E+02  0.24607550751E+03  0.25891484680E+03  0.00000000000E+00 0.  1.
</event>
<event>
 7    1  0.5213103E-005  0.2804518E+03  0.7818608E-02  0.1120551E+00
          2   -1    0    0  502    0  0.00000000000E+00  0.00000000000E+00  0.10224751298E+04  0.10224751298E+04  0.00000000000E+00 0. -1.
          1   -1    0    0  501    0 -0.00000000000E+00 -0.00000000000E+00 -0.49297834487E+03  0.49297834487E+03  0.00000000000E+00 0. -1.
         25    2    1    2    0    0  0.87082951491E+02 -0.44449549500E+03 -0.17443708835E+03  0.50121177407E+03  0.12500103666E+03 0.  0.
          2    1    1    2  501    0  0.29083389070E+02  0.20135716151E+03 -0.53449691003E+02  0.21035070591E+03  0.00000000000E+00 0. -1.
          1    1    1    2  502    0 -0.11616634056E+03  0.24313833349E+03  0.75738356427E+03  0.80389099468E+03  0.00000000000E+00 0. -1.
         22    1    3    3    0    0 -0.93757261084E+01 -0.19757336480E+03 -0.11752779126E+03  0.23007807466E+03  0.00000000000E+00 0.  1.
         22    1    3    3    0    0  0.96458677599E+02 -0.24692213020E+03 -0.56909297085E+02  0.27113369942E+03  0.00000000000E+00 0.  1.
</event>
<event>
 7    1  0.5213103E-005  0.4668485E+03  0.7818608E-02  0.1072484E+00
          2   -1    0    0  502    0  0.00000000000E+00  0.00000000000E+00  0.15655433317E+04  0.15655433317E+04  0.00000000000E+00 0. -1.
          1   -1    0    0  501    0 -0.00000000000E+00 -0.00000000000E+00 -0.18050939081E+04  0.18050939081E+04  0.00000000000E+00 0. -1.
         25    2    1    2    0    0  0.41846104803E+03 -0.52007189703E+03  0.31541018988E+03  0.74879460498E+03  0.12500138304E+03 0.  0.
          2    1    1    2  501    0 -0.33635091770E+03  0.30629103922E+03 -0.15424560914E+04  0.16081408316E+04  0.00000000000E+00 0. -1.
          1    1    1    2  502    0 -0.82110130333E+02  0.21378085781E+03  0.98749532506E+03  0.10137018031E+04  0.00000000000E+00 0. -1.
         22    1    3    3    0    0  0.35841973772E+03 -0.43497701325E+03  0.31283017700E+03  0.64461804976E+03  0.00000000000E+00 0.  1.
         22    1    3    3    0    0  0.60041310311E+02 -0.85094883783E+02  0.25800128887E+01  0.10417655522E+03  0.00000000000E+00 0.  1.
</event>
<event>
 7    1  0.5213103E-005  0.2116668E+03  0.7818608E-02  0.1288232E+00
          2   -1    0    0  502    0  0.00000000000E+00  0.00000000000E+00  0.24508334453E+04  0.24508334453E+04  0.00000000000E+00 0. -1.
          1   -1    0    0  501    0 -0.00000000000E+00 -0.00000000000E+00 -0.45385245133E+03  0.45385245133E+03  0.00000000000E+00 0. -1.
         25    2    1    2    0    0  0.20940668222E+03 -0.14114070866E+03  0.13386633834E+04  0.13679966517E+04  0.12499330634E+03 0.  0.
          2    1    1    2  501    0 -0.18159733219E+03  0.10726271295E+03 -0.41339079832E+03  0.46408494134E+03  0.00000000000E+00 0. -1.
          1    1    1    2  502    0 -0.27809350036E+02  0.33877995709E+02  0.10717084088E+04  0.10726043036E+04  0.00000000000E+00 0. -1.
         22    1    3    3    0    0  0.31614564163E+02 -0.88938163110E+02  0.37638730103E+03  0.38804236612E+03  0.00000000000E+00 0.  1.
         22    1    3    3    0    0  0.17779211806E+03 -0.52202545554E+02  0.96227608241E+03  0.97995428556E+03  0.00000000000E+00 0.  1.
</event>
<event>
 7    1  0.5213103E-005  0.2739951E+03  0.7818608E-02  0.1246931E+00
          2   -1    0    0  502    0  0.00000000000E+00  0.00000000000E+00  0.99453650681E+03  0.99453650681E+03  0.00000000000E+00 0. -1.
          1   -1    0    0  501    0 -0.00000000000E+00 -0.00000000000E+00 -0.21897981412E+04  0.21897981412E+04  0.00000000000E+00 0. -1.
         25    2    1    2    0    0  0.86178321997E+02 -0.25989724253E+03 -0.85403409137E+03  0.90552320250E+03  0.12499904473E+03 0.  0.
          2    1    1    2  501    0 -0.13325566970E+03  0.24144296242E+03 -0.12948287470E+04  0.13238705608E+04  0.00000000000E+00 0. -1.
          1    1    1    2  502    0  0.47077347700E+02  0.18454280112E+02  0.95360120398E+03  0.95494088474E+03  0.00000000000E+00 0. -1.
         22    1    3    3    0    0  0.94500225693E+02 -0.26880978546E+03 -0.83957522986E+03  0.88660902320E+03  0.00000000000E+00 0.  1.
         22    1    3    3    0    0 -0.83219036959E+01  0.89125429299E+01 -0.14458861510E+02  0.18914179305E+02  0.00000000000E+00 0.  1.
</event>
<event>
 7    1  0.5213103E-005  0.6474167E+03  0.7818608E-02  0.1022667E+00
          2   -1    0    0  502    0  0.00000000000E+00  0.00000000000E+00  0.14343829212E+04  0.14343829212E+04  0.00000000000E+00 0. -1.
          1   -1    0    0  501    0 -0.00000000000E+00 -0.00000000000E+00 -0.16059466565E+04  0.16059466565E+04  0.00000000000E+00 0. -1.
         25    2    1    2    0    0  0.37648078860E+03  0.69026126562E+03 -0.35575769281E+03  0.87200187786E+03  0.12500135997E+03 0.  0.
          2    1    1    2  501    0 -0.33278681058E+03 -0.55514882512E+02 -0.87217115233E+03  0.93515318662E+03  0.00000000000E+00 0. -1.
          1    1    1    2  502    0 -0.43693978017E+02 -0.63474638311E+03  0.10563651099E+04  0.12331745132E+04  0.00000000000E+00 0. -1.
         22    1    3    3    0    0  0.10170453023E+03  0.25308211002E+03 -0.68939369580E+02  0.28133077073E+03  0.00000000000E+00 0. -1.
         22    1    3    3    0    0  0.27477625837E+03  0.43717915559E+03 -0.28681832323E+03  0.59067110712E+03  0.00000000000E+00 0. -1.
</event>
<event>
 7    1  0.5213103E-005  0.2459127E+03  0.7818608E-02  0.1169997E+00
          2   -1    0    0  502    0  0.00000000000E+00  0.00000000000E+00  0.99800566137E+03  0.99800566137E+03  0.00000000000E+00 0. -1.
          1   -1    0    0  501    0 -0.00000000000E+00 -0.00000000000E+00 -0.38260075304E+03  0.38260075304E+03  0.00000000000E+00 0. -1.
         25    2    1    2    0    0 -0.24561298842E+03 -0.50115306396E+02 -0.25826265944E+03  0.38100156898E+03  0.12500124116E+03 0.  0.
          2    1    1    2  501    0  0.18929994958E+03  0.16559932627E+03  0.22225048096E+03  0.33563802534E+03  0.00000000000E+00 0. -1.
          1    1    1    2  502    0  0.56313038846E+02 -0.11548401988E+03  0.65141708680E+03  0.66396682008E+03  0.00000000000E+00 0. -1.
         22    1    3    3    0    0 -0.19085373927E+03  0.16964628322E+02 -0.19781597345E+03  0.27539808961E+03  0.00000000000E+00 0.  1.
         22    1    3    3    0    0 -0.54759249151E+02 -0.67079934718E+02 -0.60446685984E+02  0.10560347937E+03  0.00000000000E+00 0.  1.
</event>
<event>
 7    1  0.5213103E-005  0.5337194E+02  0.7818608E-02  0.1504117E+00
          2   -1    0    0  502    0  0.00000000000E+00  0.00000000000E+00  0.83772891791E+03  0.83772891791E+03  0.00000000000E+00 0. -1.
          1   -1    0    0  501    0 -0.00000000000E+00 -0.00000000000E+00 -0.24091890926E+04  0.24091890926E+04  0.00000000000E+00 0. -1.
         25    2    1    2    0    0 -0.28163268250E+01  0.23076180526E+02 -0.15397302761E+03  0.19968198688E+03  0.12499904339E+03 0.  0.
          2    1    1    2  501    0  0.31077404063E+00 -0.53800573620E+02 -0.22317457261E+04  0.22323941373E+04  0.00000000000E+00 0. -1.
          1    1    1    2  502    0  0.25055527844E+01  0.30724393094E+02  0.81425857904E+03  0.81484188630E+03  0.00000000000E+00 0. -1.
         22    1    3    3    0    0  0.44722110381E+02  0.13499933549E+01 -0.13793301659E+03  0.14500829875E+03  0.00000000000E+00 0. -1.
         22    1    3    3    0    0 -0.47538437206E+02  0.21726187171E+02 -0.16040011019E+02  0.54673688137E+02  0.00000000000E+00 0. -1.
</event>
<event>
 7    1  0.5213103E-005  0.5594312E+02  0.7818608E-02  0.1428723E+00
          2   -1    0    0  502    0  0.00000000000E+00  0.00000000000E+00  0.93023441749E+03  0.93023441749E+03  0.00000000000E+00 0. -1.
          1   -1    0    0  501    0 -0.00000000000E+00 -0.00000000000E+00 -0.35962758320E+03  0.35962758320E+03  0.00000000000E+00 0. -1.
         25    2    1    2    0    0  0.37466534739E+01  0.65053821993E+02  0.29918078723E+02  0.14411503384E+03  0.12501205692E+03 0.  0.
          2    1    1    2  501    0  0.40021312256E+02 -0.39614727835E+02 -0.29913985469E+03  0.30439396308E+03  0.00000000000E+00 0. -1.
          1    1    1    2  502    0 -0.43767965730E+02 -0.25439094158E+02  0.83982861026E+03  0.84135300377E+03  0.00000000000E+00 0. -1.
         22    1    3    3    0    0 -0.51574738378E+02  0.29276254284E+02 -0.18758833045E+02  0.62200856272E+02  0.00000000000E+00 0. -1.
         22    1    3    3    0    0  0.55321391852E+02  0.35777567709E+02  0.48676911769E+02  0.81914177570E+02  0.00000000000E+00 0. -1.
</event>
<event>
 7    1  0.5213103E-005  0.4697012E+03  0.7818608E-02  0.1195013E+00
          2   -1    0    0  502    0  0.00000000000E+00  0.00000000000E+00  0.13633401773E+04  0.13633401773E+04  0.00000000000E+00 0. -1.
          1   -1    0    0  501    0 -0.00000000000E+00 -0.00000000000E+00 -0.39531430896E+03  0.39531430896E+03  0.00000000000E+00 0. -1.
         25    2    1    2    0    0 -0.43055873970E+03 -0.21167393375E+03  0.28006711673E+03  0.56942856259E+03  0.12499846182E+03 0.  0.
          2    1    1    2  501    0 -0.70373504415E+01  0.50351497136E+02 -0.18913198344E+03  0.19584612512E+03  0.00000000000E+00 0. -1.
          1    1    1    2  502    0  0.43759609014E+03  0.16132243662E+03  0.87709073508E+03  0.99337979858E+03  0.00000000000E+00 0. -1.
         22    1    3    3    0    0 -0.21355800237E+03 -0.38229171303E+02  0.14119072248E+03  0.25884997591E+03  0.00000000000E+00 0. -1.
         22    1    3    3    0    0 -0.21700073733E+03 -0.17344476245E+03  0.13887639425E+03  0.31057858668E+03  0.00000000000E+00 0. -1.
</event>
<event>
 7    1  0.5213103E-005  0.4006761E+03  0.7818608E-02  0.1152737E+00
          2   -1    0    0  502    0  0.00000000000E+00  0.00000000000E+00  0.20123162424E+04  0.20123162424E+04  0.00000000000E+00 0. -1.
          1   -1    0    0  501    0 -0.00000000000E+00 -0.00000000000E+00 -0.86282015426E+03  0.86282015426E+03  0.00000000000E+00 0. -1.
         25    2    1    2    0    0  0.18663851981E+03  0.29479074372E+03  0.28762444316E+03  0.46913591177E+03  0.12500065500E+03 0.  0.
          2    1    1    2  501    0 -0.14586320650E+03 -0.38209334238E+03 -0.71632810937E+03  0.82486202335E+03  0.00000000000E+00 0. -1.
          1    1    1    2  502    0 -0.40775313313E+02  0.87302598662E+02  0.15781997544E+04  0.15811384615E+04  0.00000000000E+00 0. -1.
         22    1    3    3    0    0  0.16366784428E+03  0.17830937093E+03  0.24107514829E+03  0.34161180035E+03  0.00000000000E+00 0.  1.
         22    1    3    3    0    0  0.22970675530E+02  0.11648137279E+03  0.46549294866E+02  0.12752411142E+03  0.00000000000E+00 0.  1.
</event>
<event>
 7    1  0.5213103E-005  0.4949612E+03  0.7818608E-02  0.1279454E+00
          2   -1    0    0  502    0  0.00000000000E+00  0.00000000000E+00  0.55658269593E+03  0.55658269593E+03  0.00000000000E+00 0. -1.
          1   -1    0    0  501    0 -0.00000000000E+00 -0.00000000000E+00 -0.18010671792E+04  0.18010671792E+04  0.00000000000E+00 0. -1.
         25    2    1    2    0    0 -0.46471436733E+03 -0.17990132233E+03  0.88792410520E+02  0.52137474959E+03  0.12499443334E+03 0.  0.
          2    1    1    2  501    0  0.13642664525E+02 -0.15121324311E+02 -0.13445652588E+04  0.13447194919E+04  0.00000000000E+00 0. -1.
          1    1    1    2  502    0  0.45107170280E+03  0.19502264664E+03  0.11288365004E+02  0.49155563363E+03  0.00000000000E+00 0. -1.
         22    1    3    3    0    0 -0.20790327836E+03 -0.14360404918E+03  0.65115345556E+02  0.26093275824E+03  0.00000000000E+00 0. -1.
         22    1    3    3    0    0 -0.25681108897E+03 -0.36297273150E+02  0.23677064964E+02  0.26044199135E+03  0.00000000000E+00 0. -1.
</event>
<event>
 7    1  0.5213103E-005  0.3314083E+03  0.7818608E-02  0.1159805E+00
          2   -1    0    0  502    0  0.00000000000E+00  0.00000000000E+00  0.39832253284E+03  0.39832253284E+03  0.00000000000E+00 0. -1.
          1   -1    0    0  501    0 -0.00000000000E+00 -0.00000000000E+00 -0.58611751141E+03  0.58611751141E+03  0.00000000000E+00 0. -1.
         25    2    1    2    0    0 -0.29476967427E+03  0.11447166219E+03 -0.18905469260E+03  0.38904936059E+03  0.12499922350E+03 0.  0.
          2    1    1    2  501    0 -0.45857830265E+02 -0.96935827812E+02 -0.17971218784E+03  0.20927485699E+03  0.00000000000E+00 0. -1.
          1    1    1    2  502    0  0.34062750453E+03 -0.17535834375E+02  0.18097190187E+03  0.38611582666E+03  0.00000000000E+00 0. -1.
         22    1    3    3    0    0 -0.12346873807E+03  0.57541452205E+02 -0.15321396939E+03  0.20501236162E+03  0.00000000000E+00 0. -1.
         22    1    3    3    0    0 -0.17130093620E+03  0.56930209981E+02 -0.35840723208E+02  0.18403699897E+03  0.00000000000E+00 0. -1.
</event>
<event>
 7    1  0.5213103E-005  0.2456415E+03  0.7818608E-02  0.1152967E+00
          2   -1    0    0  502    0  0.00000000000E+00  0.00000000000E+00  0.11628210976E+04  0.11628210976E+04  0.00000000000E+00 0. -1.
          1   -1    0    0  501    0 -0.00000000000E+00 -0.00000000000E+00 -0.21217600644E+04  0.21217600644E+04  0.00000000000E+00 0. -1.
         25    2    1    2    0    0 -0.31947898179E+03 -0.99410673105E+02  0.49530285527E+03  0.61065437370E+03  0.12499817577E+03 0.  0.
          2    1    1    2  501    0  0.99794663303E+02  0.12086984390E+03 -0.20410074023E+04  0.20470172717E+04  0.00000000000E+00 0. -1.
          1    1    1    2  502    0  0.21968431849E+03 -0.21459170793E+02  0.58676558026E+03  0.62690951657E+03  0.00000000000E+00 0. -1.
         22    1    3    3    0    0 -0.32881068124E+03 -0.10630927620E+03  0.47898966221E+03  0.59063459330E+03  0.00000000000E+00 0. -1.
         22    1    3    3    0    0  0.93316994483E+01  0.68986030959E+01  0.16313193060E+02  0.20019780395E+02  0.00000000000E+00 0. -1.
</event>
<event>
 7    1  0.5213103E-005  0.3251278E+03  0.7818608E-02  0.1252630E+00
          2   -1    0    0  502    0  0.00000000000E+00  0.00000000000E+00  0.27379477461E+04  0.27379477461E+04  0.00000000000E+00 0. -1.
          1   -1    0    0  501    0 -0.00000000000E+00 -0.00000000000E+00 -0.11209944697E+04  0.11209944697E+04  0.00000000000E+00 0. -1.
         25    2    1    2    0    0  0.12192164074E+03 -0.30424693040E+03 -0.98640906684E+03  0.10469278123E+04  0.12499566361E+03 0.  0.
          2    1    1    2  501    0 -0.82586600155E+02  0.29569514956E+03  0.12206045774E+03  0.33038602171E+03  0.00000000000E+00 0. -1.
          1    1    1    2  502    0 -0.39335040587E+02  0.85517808422E+01  0.24813018855E+04  0.24816283818E+04  0.00000000000E+00 0. -1.
         22    1    3    3    0    0  0.13583439380E+03 -0.26847372627E+03 -0.76185152882E+03  0.81911346967E+03  0.00000000000E+00 0. -1.
         22    1    3    3    0    0 -0.13912753062E+02 -0.35773204125E+02 -0.22455753803E+03  0.22781434265E+03  0.00000000000E+00 0. -1.
</event>
<event>
 7    1  0.5213103E-005  0.1260237E+04  0.7818608E-02  0.1104013E+00
          2   -1    0    0  502    0  0.00000000000E+00  0.00000000000E+00  0.30325999750E+04  0.30325999750E+04  0.00000000000E+00 0. -1.
          1   -1    0    0  501    0 -0.00000000000E+00 -0.00000000000E+00 -0.18953408430E+04  0.18953408430E+04  0.00000000000E+00 0. -1.
         25    2    1    2    0    0  0.12380150122E+04  0.30041431966E+01 -0.44688309878E+03  0.13221270524E+04  0.12500097365E+03 0.  0.
          2    1    1    2  501    0 -0.12806663846E+04  0.33038444110E+02 -0.60443534797E+03  0.14165239205E+04  0.00000000000E+00 0. -1.
          1    1    1    2  502    0  0.42651372460E+02 -0.36042587307E+02  0.21885775787E+04  0.21892898451E+04  0.00000000000E+00 0. -1.
         22    1    3    3    0    0  0.61176749140E+03  0.47777922264E+02 -0.17628422644E+03  0.63844993686E+03  0.00000000000E+00 0.  1.
         22    1    3    3    0    0  0.62624752075E+03 -0.44773779067E+02 -0.27059887233E+03  0.68367711549E+03  0.00000000000E+00 0.  1.
</event>
<event>
 7    1  0.5213103E-005  0.1712644E+03  0.7818608E-02  0.1198946E+00
          2   -1    0    0  502    0  0.00000000000E+00  0.00000000000E+00  0.90105792460E+03  0.90105792460E+03  0.00000000000E+00 0. -1.
          1   -1    0    0  501    0 -0.00000000000E+00 -0.00000000000E+00 -0.67723042877E+03  0.67723042877E+03  0.00000000000E+00 0. -1.
         25    2    1    2    0    0  0.11126455150E+03 -0.19483124570E+03  0.52509758483E+03  0.58454403810E+03  0.12500097662E+03 0.  0.
          2    1    1    2  501    0  0.28320061183E+02  0.13053750688E+03 -0.62301916500E+03  0.63717732737E+03  0.00000000000E+00 0. -1.
          1    1    1    2  502    0 -0.13958461268E+03  0.64293738825E+02  0.32174907600E+03  0.35656698790E+03  0.00000000000E+00 0. -1.
         22    1    3    3    0    0  0.87516072851E+02 -0.33433928458E+02  0.18853205641E+03  0.21052607172E+03  0.00000000000E+00 0. -1.
         22    1    3    3    0    0  0.23748478649E+02 -0.16139731724E+03  0.33656552842E+03  0.37401796638E+03  0.00000000000E+00 0. -1.
</event>
<event>
 7    1  0.5213103E-005  0.3135107E+03  0.7818608E-02  0.1163773E+00
          2   -1    0    0  502    0  0.00000000000E+00  0.00000000000E+00  0.56569475880E+03  0.56569475880E+03  0.00000000000E+00 0. -1.
          1   -1    0    0  501    0 -0.00000000000E+00 -0.00000000000E+00 -0.13369771898E+04  0.13369771898E+04  0.00000000000E+00 0. -1.
         25    2    1    2    0    0  0.12667168363E+03 -0.38586057635E+03  0.16892535685E+03  0.45727114581E+03  0.12500809887E+03 0.  0.
          2    1    1    2  501    0 -0.57863102625E+02  0.30228400484E+03 -0.11601390864E+04  0.12002693273E+04  0.00000000000E+00 0. -1.
          1    1    1    2  502    0 -0.68808581002E+02  0.83576571508E+02  0.21993129864E+03  0.24513147543E+03  0.00000000000E+00 0. -1.
         22    1    3    3    0    0 -0.17940162807E+01  0.67857319718E+01  0.14709449432E+02  0.16298237800E+02  0.00000000000E+00 0. -1.
         22    1    3    3    0    0  0.12846569991E+03 -0.39264630832E+03  0.15421590742E+03  0.44097290801E+03  0.00000000000E+00 0. -1.
</event>
<event>
 7    1  0.5213103E-005  0.2748514E+03  0.7818608E-02  0.1229331E+00
          2   -1    0    0  502    0  0.00000000000E+00  0.00000000000E+00  0.50362685850E+03  0.50362685850E+03  0.00000000000E+00 0. -1.
          1   -1    0    0  501    0 -0.00000000000E+00 -0.00000000000E+00 -0.26798431677E+03  0.26798431677E+03  0.00000000000E+00 0. -1.
         25    2    1    2    0    0 -0.29658455654E+03 -0.36919081735E+01 -0.92591291716E+00  0.32187921533E+03  0.12501736911E+03 0.  0.
          2    1    1    2  501    0  0.32091335292E+02  0.51057796464E+02 -0.33313736841E+02  0.68895264300E+02  0.00000000000E+00 0. -1.
          1    1    1    2  502    0  0.26449322125E+03 -0.47365888291E+02  0.26988219149E+03  0.38083669564E+03  0.00000000000E+00 0. -1.
         22    1    3    3    0    0 -0.79287826804E+02 -0.36366933109E+02  0.43838210267E+02  0.97626338569E+02  0.00000000000E+00 0. -1.
         22    1    3    3    0    0 -0.21729672974E+03  0.32675024935E+02 -0.44764123184E+02  0.22425287676E+03  0.00000000000E+00 0. -1.
</event>
<event>
 7    1  0.5213103E-005  0.7969712E+03  0.7818608E-02  0.1075029E+00
          2   -1    0    0  502    0  0.00000000000E+00  0.00000000000E+00  0.17426321434E+04  0.17426321434E+04  0.00000000000E+00 0. -1.
          1   -1    0    0  501    0 -0.00000000000E+00 -0.00000000000E+00 -0.99758651825E+03  0.99758651825E+03  0.00000000000E+00 0. -1.
         25    2    1    2    0    0  0.87304339500E+03  0.16477973224E+03  0.24742281430E+03  0.93069477410E+03  0.12497033160E+03 0.  0.
          2    1    1    2  501    0 -0.11810747694E+03 -0.53290533715E+02 -0.52093241309E+03  0.53680521244E+03  0.00000000000E+00 0. -1.
          1    1    1    2  502    0 -0.75493591806E+03 -0.11148919853E+03  0.10185552239E+04  0.12727186751E+04  0.00000000000E+00 0. -1.
         22    1    3    3    0    0  0.22706456894E+03 -0.11589481362E+02  0.71727818514E+02  0.23840619643E+03  0.00000000000E+00 0. -1.
         22    1    3    3    0    0  0.64597882606E+03  0.17636921360E+03  0.17569499579E+03  0.69228857767E+03  0.00000000000E+00 0. -1.
</event>
<event>
 7    1  0.5213103E-005  0.8304027E+03  0.7818608E-02  0.1133279E+00
          2   -1    0    0  502    0  0.00000000000E+00  0.00000000000E+00  0.11900725198E+04  0.11900725198E+04  0.00000000000E+00 0. -1.
          1   -1    0    0  501    0 -0.00000000000E+00 -0.00000000000E+00 -0.24213303807E+04  0.24213303807E+04  0.00000000000E+00 0. -1.
         25    2    1    2    0    0 -0.85786135467E+03 -0.10446257707E+03 -0.24757786263E+03  0.90761176084E+03  0.12500310600E+03 0.  0.
          2    1    1    2  501    0  0.49924802650E+02 -0.30905230198E+02 -0.16480235765E+04  0.16490692308E+04  0.00000000000E+00 0. -1.
          1    1    1    2  502    0  0.80793655202E+03  0.13536780727E+03  0.66434357823E+03  0.10547219090E+04  0.00000000000E+00 0. -1.
         22    1    3    3    0    0 -0.50446029372E+02 -0.21152702971E+02 -0.45456138320E+02  0.71123127275E+02  0.00000000000E+00 0.  1.
         22    1    3    3    0    0 -0.80741532530E+03 -0.83309874095E+02 -0.20212172431E+03  0.83648863357E+03  0.00000000000E+00 0.  1.
</event>
<event>
 7    1  0.5213103E-005  0.8164852E+03  0.7818608E-02  0.1139581E+00
          2   -1    0    0  502    0  0.00000000000E+00  0.00000000000E+00  0.12979587943E+04  0.12979587943E+04  0.00000000000E+00 0. -1.
          1   -1    0    0  501    0 -0.00000000000E+00 -0.00000000000E+00 -0.18892402920E+04  0.18892402920E+04  0.00000000000E+00 0. -1.
         25    2    1    2    0    0 -0.81672942236E+03 -0.26148639142E+03 -0.16333828591E+03  0.88188706236E+03  0.12499325127E+03 0.  0.
          2    1    1    2  501    0  0.54687187101E+02  0.83404171766E+01 -0.11941426762E+04  0.11954233485E+04  0.00000000000E+00 0. -1.
          1    1    1    2  502    0  0.76204223526E+03  0.25314597424E+03  0.76619946437E+03  0.11098886754E+04  0.00000000000E+00 0. -1.
         22    1    3    3    0    0 -0.66442728063E+03 -0.16281877297E+03 -0.11110517334E+03  0.69304972666E+03  0.00000000000E+00 0.  1.
         22    1    3    3    0    0 -0.15230214173E+03 -0.98667618447E+02 -0.52233112565E+02  0.18883733570E+03  0.00000000000E+00 0.  1.
</event>
<event>
 7    1  0.5213103E-005  0.4729123E+03  0.7818608E-02  0.1176552E+00
          2   -1    0    0  502    0  0.00000000000E+00  0.00000000000E+00  0.85768939488E+03  0.85768939488E+03  0.00000000000E+00 0. -1.
          1   -1    0    0  501    0 -0.00000000000E+00 -0.00000000000E+00 -0.93485100012E+03  0.93485100012E+03  0.00000000000E+00 0. -1.
         25    2    1    2    0    0  0.43059522490E+01  0.46380060501E+03 -0.52895192615E+03  0.71452412683E+03  0.12500018090E+03 0.  0.
          2    1    1    2  501    0  0.51141665228E+02 -0.49156719778E+03 -0.11534404635E+03  0.50750175259E+03  0.00000000000E+00 0. -1.
          1    1    1    2  502    0 -0.55447617477E+02  0.27766592776E+02  0.56713436725E+03  0.57051451557E+03  0.00000000000E+00 0. -1.
         22    1    3    3    0    0 -0.16563522454E+01  0.35356011417E+03 -0.31395257988E+03  0.47283582801E+03  0.00000000000E+00 0.  1.
         22    1    3    3    0    0  0.59623044944E+01  0.11024049084E+03 -0.21499934627E+03  0.24168829883E+03  0.00000000000E+00 0.  1.
</event>
<event>
 7    1  0.5213103E-005  0.1053514E+04  0.7818608E-02  0.9747337E-01
          2   -1    0    0  502    0  0.00000000000E+00  0.00000000000E+00  0.26265003178E+04  0.26265003178E+04  0.00000000000E+00 0. -1.
          1   -1    0    0  501    0 -0.00000000000E+00 -0.00000000000E+00 -0.26392624932E+04  0.26392624932E+04  0.00000000000E+00 0. -1.
         25    2    1    2    0    0 -0.89940118295E+03  0.40457865542E+03 -0.15181280501E+04  0.18146470972E+04  0.12499973934E+03 0.  0.
          2    1    1    2  501    0  0.97766908578E+03 -0.83996482534E+03 -0.51118834719E+03  0.13866114363E+04  0.00000000000E+00 0. -1.
          1    1    1    2  502    0 -0.78267902831E+02  0.43538616992E+03  0.20165542219E+04  0.20645042774E+04  0.00000000000E+00 0. -1.
         22    1    3    3    0    0 -0.49523554790E+03  0.16493793571E+03 -0.85967551300E+03  0.10057359287E+04  0.00000000000E+00 0.  1.
         22    1    3    3    0    0 -0.40416563505E+03  0.23964071971E+03 -0.65845253706E+03  0.80891116858E+03  0.00000000000E+00 0.  1.
</event>
<event>
 7    1  0.5213103E-005  0.5084383E+03  0.7818608E-02  0.1188600E+00
          2   -1    0    0  502    0  0.00000000000E+00  0.00000000000E+00  0.65605751525E+03  0.65605751525E+03  0.00000000000E+00 0. -1.
          1   -1    0    0  501    0 -0.00000000000E+00 -0.00000000000E+00 -0.89079797084E+03  0.89079797084E+03  0.00000000000E+00 0. -1.
         25    2    1    2    0    0 -0.52631208008E+03  0.70972264170E+02 -0.34755326238E+03  0.64688499284E+03  0.12500182338E+03 0.  0.
          2    1    1    2  501    0  0.48392992946E+03 -0.43689506865E+02 -0.24114198613E+03  0.54244484247E+03  0.00000000000E+00 0. -1.
          1    1    1    2  502    0  0.42382150618E+02 -0.27282757304E+02  0.35395479292E+03  0.35752565079E+03  0.00000000000E+00 0. -1.
         22    1    3    3    0    0 -0.22139714965E+03  0.66424070263E+02 -0.21020002908E+03  0.31243064383E+03  0.00000000000E+00 0. -1.
         22    1    3    3    0    0 -0.30491493044E+03  0.45481939064E+01 -0.13735323330E+03  0.33445434901E+03  0.00000000000E+00 0. -1.
</event>
<event>
 7    1  0.5213103E-005  0.8169129E+03  0.7818608E-02  0.1151733E+00
          2   -1    0    0  502    0  0.00000000000E+00  0.00000000000E+00  0.15356051646E+04  0.15356051646E+04  0.00000000000E+00 0. -1.
          1   -1    0    0  501    0 -0.00000000000E+00 -0.00000000000E+00 -0.21999060646E+04  0.21999060646E+04  0.00000000000E+00 0. -1.
         25    2    1    2    0    0  0.70219570031E+03  0.43254330006E+03 -0.16955842901E+04  0.18896569227E+04  0.12499877005E+03 0.  0.
          2    1    1    2  501    0 -0.65453168938E+03 -0.43643878853E+03 -0.26353030969E+02  0.78713723757E+03  0.00000000000E+00 0. -1.
          1    1    1    2  502    0 -0.47664010938E+02  0.38954884686E+01  0.10576364211E+04  0.10587170690E+04  0.00000000000E+00 0. -1.
         22    1    3    3    0    0  0.69006212221E+03  0.40571729644E+03 -0.15913496465E+04  0.17813438619E+04  0.00000000000E+00 0.  1.
         22    1    3    3    0    0  0.12133578105E+02  0.26826003617E+02 -0.10423464365E+03  0.10831306073E+03  0.00000000000E+00 0.  1.
</event>
<event>
 7    1  0.5213103E-005  0.3848593E+03  0.7818608E-02  0.1208914E+00
          2   -1    0    0  502    0  0.00000000000E+00  0.00000000000E+00  0.27441767218E+03  0.27441767218E+03  0.00000000000E+00 0. -1.
          1   -1    0    0  501    0 -0.00000000000E+00 -0.00000000000E+00 -0.25552106988E+04  0.25552106988E+04  0.00000000000E+00 0. -1.
         25    2    1    2    0    0  0.22321038251E+03  0.34894726385E+03 -0.26857812165E+03  0.50926074068E+03  0.12500090704E+03 0.  0.
          2    1    1    2  501    0 -0.32064921885E+01 -0.53284557752E+02 -0.19450253414E+04  0.19457577198E+04  0.00000000000E+00 0. -1.
          1    1    1    2  502    0 -0.22000389032E+03 -0.29566270610E+03 -0.67189563549E+02  0.37460991042E+03  0.00000000000E+00 0. -1.
         22    1    3    3    0    0  0.18511031465E+03  0.33582427020E+03 -0.26992997791E+03  0.46894132044E+03  0.00000000000E+00 0.  1.
         22    1    3    3    0    0  0.38100067855E+02  0.13122993654E+02  0.13518562594E+01  0.40319420238E+02  0.00000000000E+00 0.  1.
</event>
<event>
 7    1  0.5213103E-005  0.2970489E+03  0.7818608E-02  0.1335665E+00
          2   -1    0    0  502    0  0.00000000000E+00  0.00000000000E+00  0.38371145756E+03  0.38371145756E+03  0.00000000000E+00 0. -1.
          1   -1    0    0  501    0 -0.00000000000E+00 -0.00000000000E+00 -0.12353117940E+04  0.12353117940E+04  0.00000000000E+00 0. -1.
         25    2    1    2    0    0  0.30569432434E+03  0.27254010491E+02  0.10319793807E+03  0.34708244161E+03  0.12499842332E+03 0.  0.
          2    1    1    2  501    0 -0.20251660511E+02 -0.18038330255E+01 -0.98370182657E+03  0.98391192043E+03  0.00000000000E+00 0. -1.
          1    1    1    2  502    0 -0.28544266382E+03 -0.25450177466E+02  0.28903552086E+02  0.28802888950E+03  0.00000000000E+00 0. -1.
         22    1    3    3    0    0  0.26999607838E+03  0.92013475667E+01  0.41167331751E+02  0.27327147005E+03  0.00000000000E+00 0. -1.
         22    1    3    3    0    0  0.35698245954E+02  0.18052662924E+02  0.62030606315E+02  0.73810971560E+02  0.00000000000E+00 0. -1.
</event>
<event>
 7    1  0.5213103E-005  0.3699510E+03  0.7818608E-02  0.1281047E+00
          2   -1    0    0  502    0  0.00000000000E+00  0.00000000000E+00  0.18673534661E+04  0.18673534661E+04  0.00000000000E+00 0. -1.
          1   -1    0    0  501    0 -0.00000000000E+00 -0.00000000000E+00 -0.13866483212E+04  0.13866483212E+04  0.00000000000E+00 0. -1.
         25    2    1    2    0    0  0.33710966566E+02  0.34465022572E+03  0.81643399087E+02  0.37710822218E+03  0.12499903708E+03 0.  0.
          2    1    1    2  501    0 -0.40334044242E+02 -0.37065851956E+03 -0.12107498679E+04  0.12668582462E+04  0.00000000000E+00 0. -1.
          1    1    1    2  502    0  0.66230776763E+01  0.26008293842E+02  0.16098116137E+04  0.16100353189E+04  0.00000000000E+00 0. -1.
         22    1    3    3    0    0  0.50900832329E+02  0.33319705578E+03  0.97710180020E+02  0.35093938507E+03  0.00000000000E+00 0. -1.
         22    1    3    3    0    0 -0.17189865763E+02  0.11453169936E+02 -0.16066780933E+02  0.26168837117E+02  0.00000000000E+00 0. -1.
</event>
<event>
 7    1  0.5213103E-005  0.4651943E+03  0.7818608E-02  0.1234384E+00
          2   -1    0    0  502    0  0.00000000000E+00  0.00000000000E+00  0.22148599870E+04  0.22148599870E+04  0.00000000000E+00 0. -1.
          1   -1    0    0  501    0 -0.00000000000E+00 -0.00000000000E+00 -0.10925792657E+04  0.10925792657E+04  0.00000000000E+00 0. -1.
         25    2    1    2    0    0  0.10523636764E+03  0.47841937786E+03  0.25325495311E+03  0.56543940721E+03  0.12499543097E+03 0.  0.
          2    1    1    2  501    0 -0.11705941709E+03 -0.44672814035E+03 -0.87938028009E+03  0.99326663868E+03  0.00000000000E+00 0. -1.
          1    1    1    2  502    0  0.11823049448E+02 -0.31691237511E+02  0.17484060482E+04  0.17487332068E+04  0.00000000000E+00 0. -1.
         22    1    3    3    0    0 -0.63968860960E+01  0.25856320118E+03  0.13995934779E+03  0.29408241734E+03  0.00000000000E+00 0. -1.
         22    1    3    3    0    0  0.11163325374E+03  0.21985617668E+03  0.11329560532E+03  0.27135698987E+03  0.00000000000E+00 0. -1.
</event>
<event>
 7    1  0.5657706E-005  0.3783112E+03  0.7818608E-02  0.1288022E+00
          2   -1    0    0  502    0  0.00000000000E+00  0.00000000000E+00  0.18460825939E+04  0.18460825939E+04  0.00000000000E+00 0. -1.
          1   -1    0    0  501    0 -0.00000000000E+00 -0.00000000000E+00 -0.21397729799E+04  0.21397729799E+04  0.00000000000E+00 0. -1.
         25    2    1    2    0    0 -0.33936622581E+03  0.10953672927E+03 -0.14627748358E+04  0.15107955217E+04  0.12500063100E+03 0.  0.
          2    1    1    2  501    0 -0.24237893233E+02 -0.40364216331E+01 -0.63307996301E+03  0.63355663341E+03  0.00000000000E+00 0. -1.
          1    1    1    2  502    0  0.36360411905E+03 -0.10550030764E+03  0.18021644129E+04  0.18415034187E+04  0.00000000000E+00 0. -1.
         22    1    3    3    0    0 -0.27497802687E+03  0.10111447657E+03 -0.95625995503E+03  0.10001350680E+04  0.00000000000E+00 0.  1.
         22    1    3    3    0    0 -0.64388198944E+02  0.84222527070E+01 -0.50651488081E+03  0.51066045371E+03  0.00000000000E+00 0.  1.
</event>
<event>
 7    1  0.5213103E-005  0.3804737E+03  0.7818608E-02  0.1086127E+00
          2   -1    0    0  502    0  0.00000000000E+00  0.00000000000E+00  0.12074115787E+04  0.12074115787E+04  0.00000000000E+00 0. -1.
          1   -1    0    0  501    0 -0.00000000000E+00 -0.00000000000E+00 -0.99232065262E+03  0.99232065262E+03  0.00000000000E+00 0. -1.
         25    2    1    2    0    0 -0.46511070118E+03 -0.21918389929E+03  0.46785686089E+03  0.70631892018E+03  0.12500731441E+03 0.  0.
          2    1    1    2  501    0  0.12960479832E+03  0.19455374123E+03 -0.80969545074E+03  0.84276644744E+03  0.00000000000E+00 0. -1.
          1    1    1    2  502    0  0.33550590286E+03  0.24630158054E+02  0.55692951597E+03  0.65064686374E+03  0.00000000000E+00 0. -1.
         22    1    3    3    0    0 -0.15856704686E+02 -0.34730449196E+02  0.11432377006E+02  0.39853963778E+02  0.00000000000E+00 0.  1.
         22    1    3    3    0    0 -0.44925399650E+03 -0.18445345009E+03  0.45642448389E+03  0.66646495640E+03  0.00000000000E+00 0.  1.
</event>
<event>
 7    1  0.5213103E-005  0.6070264E+03  0.7818608E-02  0.1027634E+00
          2   -1    0    0  502    0  0.00000000000E+00  0.00000000000E+00  0.41245682857E+03  0.41245682857E+03  0.00000000000E+00 0. -1.
          1   -1    0    0  501    0 -0.00000000000E+00 -0.00000000000E+00 -0.22273732462E+04  0.22273732462E+04  0.00000000000E+00 0. -1.
         25    2    1    2    0    0  0.76298284008E+03 -0.25538262285E+03 -0.54928838105E+03  0.98219466576E+03  0.12500215028E+03 0.  0.
          2    1    1    2  501    0 -0.44099261282E+03  0.34426413624E+03 -0.11902907504E+04  0.13152126637E+04  0.00000000000E+00 0. -1.
          1    1    1    2  502    0 -0.32199022726E+03 -0.88881513383E+02 -0.75337286169E+02  0.34242274539E+03  0.00000000000E+00 0. -1.
         22    1    3    3    0    0  0.44700073277E+03 -0.10247254117E+03 -0.25899582714E+03  0.52667742999E+03  0.00000000000E+00 0. -1.
         22    1    3    3    0    0  0.31598210731E+03 -0.15291008169E+03 -0.29029255391E+03  0.45551723577E+03  0.00000000000E+00 0. -1.
</event>
<event>
 7    1  0.5213103E-005  0.3648125E+03  0.7818608E-02  0.1255546E+00
          2   -1    0    0  502    0  0.00000000000E+00  0.00000000000E+00  0.31359675340E+03  0.31359675340E+03  0.00000000000E+00 0. -1.
          1   -1    0    0  501    0 -0.00000000000E+00 -0.00000000000E+00 -0.14335280471E+04  0.14335280471E+04  0.00000000000E+00 0. -1.
         25    2    1    2    0    0  0.33537714487E+02 -0.36990143191E+03 -0.16960043661E+03  0.42701160255E+03  0.12499101164E+03 0.  0.
          2    1    1    2  501    0  0.31745562811E+02  0.14383192006E+02 -0.95793691405E+03  0.95857070072E+03  0.00000000000E+00 0. -1.
          1    1    1    2  502    0 -0.65283277297E+02  0.35551823991E+03  0.76060569580E+01  0.36154249723E+03  0.00000000000E+00 0. -1.
         22    1    3    3    0    0  0.58162987204E+02 -0.12475313391E+03 -0.10261484384E+03  0.17168600315E+03  0.00000000000E+00 0.  1.
         22    1    3    3    0    0 -0.24625272717E+02 -0.24514829800E+03 -0.66985592763E+02  0.25532559939E+03  0.00000000000E+00 0.  1.
</event>
<event>
 7    1  0.5213103E-005  0.1792525E+03  0.7818608E-02  0.1279567E+00
          2   -1    0    0  502    0  0.00000000000E+00  0.00000000000E+00  0.47054583159E+03  0.47054583159E+03  0.00000000000E+00 0. -1.
          1   -1    0    0  501    0 -0.00000000000E+00 -0.00000000000E+00 -0.96660960855E+03  0.96660960855E+03  0.00000000000E+00 0. -1.
         25    2    1    2    0    0  0.21535622910E+03  0.59217132044E+02 -0.43274672656E+03  0.50277133887E+03  0.12499726278E+03 0.  0.
          2    1    1    2  501    0 -0.38669242448E+02 -0.40748065031E+02 -0.47902536083E+03  0.48230800474E+03  0.00000000000E+00 0. -1.
          1    1    1    2  502    0 -0.17668698666E+03 -0.18469067013E+02  0.41570831043E+03  0.45207609653E+03  0.00000000000E+00 0. -1.
         22    1    3    3    0    0  0.50062217448E+02  0.12315234228E+02 -0.23597705115E+03  0.24154307955E+03  0.00000000000E+00 0. -1.
         22    1    3    3    0    0  0.16529401166E+03  0.46901897816E+02 -0.19676967541E+03  0.26122825933E+03  0.00000000000E+00 0. -1.
</event>
<event>
 7    1  0.5213103E-005  0.7508029E+03  0.7818608E-02  0.1140615E+00
          2   -1    0    0  502    0  0.00000000000E+00  0.00000000000E+00  0.17517811334E+04  0.17517811334E+04  0.00000000000E+00 0. -1.
          1   -1    0    0  501    0 -0.00000000000E+00 -0.00000000000E+00 -0.13293108369E+04  0.13293108369E+04  0.00000000000E+00 0. -1.
         25    2    1    2    0    0  0.24545456170E+03  0.66600745632E+03  0.39212165872E+03  0.82048490493E+03  0.12498884048E+03 0.  0.
          2    1    1    2  501    0 -0.29377141333E+03 -0.70058199112E+03 -0.98477638473E+03  0.12437448683E+04  0.00000000000E+00 0. -1.
          1    1    1    2  502    0  0.48316851637E+02  0.34574534800E+02  0.10151250224E+04  0.10168621971E+04  0.00000000000E+00 0. -1.
         22    1    3    3    0    0  0.11326590991E+03  0.22729821222E+03  0.80666282554E+02  0.26645955184E+03  0.00000000000E+00 0.  1.
         22    1    3    3    0    0  0.13218865179E+03  0.43870924409E+03  0.31145537617E+03  0.55402535308E+03  0.00000000000E+00 0.  1.
</event>
<event>
 7    1  0.5213103E-005  0.9759413E+03  0.7818608E-02  0.1110634E+00
          2   -1    0    0  502    0  0.00000000000E+00  0.00000000000E+00  0.24710979713E+04  0.24710979713E+04  0.00000000000E+00 0. -1.
          1   -1    0    0  501    0 -0.00000000000E+00 -0.00000000000E+00 -0.10912938317E+04  0.10912938317E+04  0.00000000000E+00 0. -1.
         25    2    1    2    0    0  0.86990742167E+03  0.31825346814E+03  0.16021954147E+04  0.18549068136E+04  0.12499979204E+03 0.  0.
          2    1    1    2  501    0 -0.93478058531E+03 -0.30482591855E+03 -0.71165981202E+03  0.12137517338E+04  0.00000000000E+00 0. -1.
          1    1    1    2  502    0  0.64873163642E+02 -0.13427549592E+02  0.48926853690E+03  0.49373325557E+03  0.00000000000E+00 0. -1.
         22    1    3    3    0    0  0.33432560467E+03  0.11875066164E+03  0.73746493829E+03  0.81837024921E+03  0.00000000000E+00 0.  1.
         22    1    3    3    0    0  0.53558181700E+03  0.19950280650E+03  0.86473047641E+03  0.10365365644E+04  0.00000000000E+00 0.  1.
</event>
<event>
 7    1  0.5213103E-005  0.4113632E+03  0.7818608E-02  0.1170592E+00
          2   -1    0    0  502    0  0.00000000000E+00  0.00000000000E+00  0.16505627607E+04  0.16505627607E+04  0.00000000000E+00 0. -1.
          1   -1    0    0  501    0 -0.00000000000E+00 -0.00000000000E+00 -0.24188687073E+04  0.24188687073E+04  0.00000000000E+00 0. -1.
         25    2    1    2    0    0  0.26867103565E+03  0.30276017271E+03  0.64986007592E+03  0.77575176261E+03  0.12499932538E+03 0.  0.
          2    1    1    2  501    0  0.61734842603E+02 -0.44814932131E+02 -0.23084197757E+04  0.23096799409E+04  0.00000000000E+00 0. -1.
          1    1    1    2  502    0 -0.33040587825E+03 -0.25794524058E+03  0.89025375307E+03  0.98399976442E+03  0.00000000000E+00 0. -1.
         22    1    3    3    0    0  0.21694752642E+03  0.28902284127E+03  0.50235457669E+03  0.61883806664E+03  0.00000000000E+00 0. -1.
         22    1    3    3    0    0  0.51723509230E+02  0.13737331437E+02  0.14750549923E+03  0.15691369598E+03  0.00000000000E+00 0. -1.
</event>
<event>
 7    1  0.5213103E-005  0.1000558E+04  0.7818608E-02  0.1141742E+00
          2   -1    0    0  502    0  0.00000000000E+00  0.00000000000E+00  0.13296763853E+04  0.13296763853E+04  0.00000000000E+00 0. -1.
          1   -1    0    0  501    0 -0.00000000000E+00 -0.00000000000E+00 -0.13004376752E+04  0.13004376752E+04  0.00000000000E+00 0. -1.
         25    2    1    2    0    0 -0.93457166226E+03  0.31683486834E+03  0.39159972735E+01  0.99471078810E+03  0.12500276489E+03 0.  0.
          2    1    1    2  501    0  0.94319951835E+03 -0.35996241921E+03 -0.48722239478E+03  0.11209745477E+04  0.00000000000E+00 0. -1.
          1    1    1    2  502    0 -0.86278560921E+01  0.43127550871E+02  0.51254510754E+03  0.51442872472E+03  0.00000000000E+00 0. -1.
         22    1    3    3    0    0 -0.53931763007E+03  0.13129626379E+03 -0.36122392952E+02  0.55624368963E+03  0.00000000000E+00 0.  1.
         22    1    3    3    0    0 -0.39525403220E+03  0.18553860455E+03  0.40038390226E+02  0.43846709847E+03  0.00000000000E+00 0.  1.
</event>
<event>
 7    1  0.5213103E-005  0.5736401E+03  0.7818608E-02  0.1130145E+00
          2   -1    0    0  502    0  0.00000000000E+00  0.00000000000E+00  0.21091192883E+04  0.21091192883E+04  0.00000000000E+00 0. -1.
          1   -1    0    0  501    0 -0.00000000000E+00 -0.00000000000E+00 -0.22300144387E+04  0.22300144387E+04  0.00000000000E+00 0. -1.
         25    2    1    2    0    0  0.24921565307E+03 -0.56947185485E+03 -0.10241431489E+04  0.12045333641E+04  0.12499920283E+03 0.  0.
          2    1    1    2  501    0 -0.18854637942E+03  0.50528483344E+03 -0.10494433290E+04  0.11799126243E+04  0.00000000000E+00 0. -1.
          1    1    1    2  502    0 -0.60669273652E+02  0.64187021406E+02  0.19526913276E+04  0.19546877386E+04  0.00000000000E+00 0. -1.
         22    1    3    3    0    0  0.16084411682E+03 -0.29014566108E+03 -0.44011597250E+03  0.55114190896E+03  0.00000000000E+00 0.  1.
         22    1    3    3    0    0  0.88371536250E+02 -0.27932619377E+03 -0.58402717638E+03  0.65339145518E+03  0.00000000000E+00 0.  1.
</event>
<event>
 7    1  0.5213103E-005  0.4345347E+03  0.7818608E-02  0.1134197E+00
          2   -1    0    0  502    0  0.00000000000E+00  0.00000000000E+00  0.95039492007E+03  0.95039492007E+03  0.00000000000E+00 0. -1.
          1   -1    0    0  501    0 -0.00000000000E+00 -0.00000000000E+00 -0.14230331992E+04  0.14230331992E+04  0.00000000000E+00 0. -1.
         25    2    1    2    0    0 -0.19089295616E+03  0.49660539261E+03 -0.24561259160E+03  0.59918077608E+03  0.12504007592E+03 0.  0.
          2    1    1    2  501    0  0.44939566381E+02 -0.10145051490E+03 -0.93978508509E+03  0.94631272725E+03  0.00000000000E+00 0. -1.
          1    1    1    2  502    0  0.14595338978E+03 -0.39515487771E+03  0.71275939759E+03  0.82793461591E+03  0.00000000000E+00 0. -1.
         22    1    3    3    0    0 -0.12929460288E+03  0.42408768154E+03 -0.23931480108E+03  0.50382440392E+03  0.00000000000E+00 0.  1.
         22    1    3    3    0    0 -0.61598353279E+02  0.72517711071E+02 -0.62977905195E+01  0.95356372158E+02  0.00000000000E+00 0.  1.
</event>
<event>
 7    1  0.5213103E-005  0.2660422E+03  0.7818608E-02  0.1128862E+00
          2   -1    0    0  502    0  0.00000000000E+00  0.00000000000E+00  0.68731298229E+03  0.68731298229E+03  0.00000000000E+00 0. -1.
          1   -1    0    0  501    0 -0.00000000000E+00 -0.00000000000E+00 -0.13388839805E+04  0.13388839805E+04  0.00000000000E+00 0. -1.
         25    2    1    2    0    0 -0.39007842044E+03 -0.21178948315E+03 -0.89241878843E+03  0.10045160496E+04  0.12500096238E+03 0.  0.
          2    1    1    2  501    0  0.18765692557E+03  0.47051789107E+02 -0.33646300215E+03  0.38811898226E+03  0.00000000000E+00 0. -1.
          1    1    1    2  502    0  0.20242149487E+03  0.16473769405E+03  0.57731079236E+03  0.63356193099E+03  0.00000000000E+00 0. -1.
         22    1    3    3    0    0 -0.16487981045E+03 -0.24267324924E+02 -0.36220034107E+03  0.39870207176E+03  0.00000000000E+00 0. -1.
         22    1    3    3    0    0 -0.22519860999E+03 -0.18752215823E+03 -0.53021844736E+03  0.60581397779E+03  0.00000000000E+00 0. -1.
</event>
<event>
 7    1  0.5213103E-005  0.4281261E+03  0.7818608E-02  0.1072049E+00
          2   -1    0    0  502    0  0.00000000000E+00  0.00000000000E+00  0.76758260232E+03  0.76758260232E+03  0.00000000000E+00 0. -1.
          1   -1    0    0  501    0 -0.00000000000E+00 -0.00000000000E+00 -0.25132383196E+04  0.25132383196E+04  0.00000000000E+00 0. -1.
         25    2    1    2    0    0 -0.34974774044E+03  0.49006632521E+03  0.22155426604E+03  0.65360544703E+03  0.12500121014E+03 0.  0.
          2    1    1    2  501    0  0.13695762869E+03 -0.21059167943E+03 -0.21944989953E+04  0.22088304797E+04  0.00000000000E+00 0. -1.
          1    1    1    2  502    0  0.21279011175E+03 -0.27947464578E+03  0.22728901196E+03  0.41838499525E+03  0.00000000000E+00 0. -1.
         22    1    3    3    0    0 -0.19566112962E+03  0.20857679672E+03  0.52041504392E+02  0.29068174341E+03  0.00000000000E+00 0.  1.
         22    1    3    3    0    0 -0.15408661082E+03  0.28148952849E+03  0.16951276165E+03  0.36292370362E+03  0.00000000000E+00 0.  1.
</event>
<event>
 7    1  0.5213103E-005  0.5128557E+03  0.7818608E-02  0.1141941E+00
          2   -1    0    0  502    0  0.00000000000E+00  0.00000000000E+00  0.37424111517E+04  0.37424111517E+04  0.00000000000E+00 0. -1.
          1   -1    0    0  501    0 -0.00000000000E+00 -0.00000000000E+00 -0.93571762333E+03  0.93571762333E+03  0.00000000000E+00 0. -1.
         25    2    1    2    0    0  0.42694707310E+03 -0.39640395668E+03  0.15077446485E+04  0.16212151990E+04  0.12499958429E+03 0.  0.
          2    1    1    2  501    0 -0.40070360224E+03  0.31492398369E+03 -0.80416305839E+03  0.95206024853E+03  0.00000000000E+00 0. -1.
          1    1    1    2  502    0 -0.26243470863E+02  0.81479972986E+02  0.21031119382E+04  0.21048533275E+04  0.00000000000E+00 0. -1.
         22    1    3    3    0    0  0.28403145254E+03 -0.25526203035E+03  0.81672302724E+03  0.90159252071E+03  0.00000000000E+00 0. -1.
         22    1    3    3    0    0  0.14291562057E+03 -0.14114192632E+03  0.69102162128E+03  0.71962267824E+03  0.00000000000E+00 0. -1.
</event>
<event>
 7    1  0.5213103E-005  0.4651879E+03  0.7818608E-02  0.1123150E+00
          2   -1    0    0  502    0  0.00000000000E+00  0.00000000000E+00  0.12112374490E+04  0.12112374490E+04  0.00000000000E+00 0. -1.
          1   -1    0    0  501    0 -0.00000000000E+00 -0.00000000000E+00 -0.51480291480E+03  0.51480291480E+03  0.00000000000E+00 0. -1.
         25    2    1    2    0    0  0.13621675727E+03 -0.48306953025E+03  0.62624090185E+03  0.81222822673E+03  0.12500339647E+03 0.  0.
          2    1    1    2  501    0 -0.10668725115E+03  0.52134416752E+02 -0.31401564666E+03  0.33571713289E+03  0.00000000000E+00 0. -1.
          1    1    1    2  502    0 -0.29529506124E+02  0.43093511350E+03  0.38420927906E+03  0.57809500421E+03  0.00000000000E+00 0. -1.
         22    1    3    3    0    0 -0.42020218793E+01 -0.11438893712E+02  0.63587178826E+02  0.64744378816E+02  0.00000000000E+00 0.  1.
         22    1    3    3    0    0  0.14041877915E+03 -0.47163063654E+03  0.56265372302E+03  0.74748384792E+03  0.00000000000E+00 0.  1.
</event>
<event>
 7    1  0.5213103E-005  0.9630489E+03  0.7818608E-02  0.1091330E+00
          2   -1    0    0  502    0  0.00000000000E+00  0.00000000000E+00  0.12338653147E+04  0.12338653147E+04  0.00000000000E+00 0. -1.
          1   -1    0    0  501    0 -0.00000000000E+00 -0.00000000000E+00 -0.16763692729E+04  0.16763692729E+04  0.00000000000E+00 0. -1.
         25    2    1    2    0    0  0.36554214906E+03 -0.89799804859E+03  0.46941347837E+03  0.10844334619E+04  0.12500144653E+03 0.  0.
          2    1    1    2  501    0 -0.44056622673E+03  0.85554154314E+03 -0.11924547797E+04  0.15323179610E+04  0.00000000000E+00 0. -1.
          1    1    1    2  502    0  0.75024077663E+02  0.42456505448E+02  0.28053734308E+03  0.29348316467E+03  0.00000000000E+00 0. -1.
         22    1    3    3    0    0  0.10628400559E+03 -0.16523898477E+03  0.13438370722E+03  0.23803191529E+03  0.00000000000E+00 0. -1.
         22    1    3    3    0    0  0.25925814348E+03 -0.73275906382E+03  0.33502977114E+03  0.84640154662E+03  0.00000000000E+00 0. -1.
</event>
<event>
 7    1  0.5213103E-005  0.4440585E+03  0.7818608E-02  0.1154493E+00
          2   -1    0    0  502    0  0.00000000000E+00  0.00000000000E+00  0.88789996517E+03  0.88789996517E+03  0.00000000000E+00 0. -1.
          1   -1    0    0  501    0 -0.00000000000E+00 -0.00000000000E+00 -0.14115692045E+04  0.14115692045E+04  0.00000000000E+00 0. -1.
         25    2    1    2    0    0  0.30298681852E+02 -0.49799638832E+03  0.31549258378E+03  0.60339050531E+03  0.12500447423E+03 0.  0.
          2    1    1    2  501    0  0.30856870032E+02  0.43872838313E+03 -0.12246835295E+04  0.13012626515E+04  0.00000000000E+00 0. -1.
          1    1    1    2  502    0 -0.61155551885E+02  0.59268005188E+02  0.38552170639E+03  0.39481601293E+03  0.00000000000E+00 0. -1.
         22    1    3    3    0    0  0.22817627216E+02 -0.61555456887E+02  0.14667067894E+01  0.65664827824E+02  0.00000000000E+00 0. -1.
         22    1    3    3    0    0  0.74810546360E+01 -0.43644093143E+03  0.31402587699E+03  0.53772567748E+03  0.00000000000E+00 0. -1.
</event>
<event>
 7    1  0.5213103E-005  0.1627388E+03  0.7818608E-02  0.1356380E+00
          2   -1    0    0  502    0  0.00000000000E+00  0.00000000000E+00  0.20676873012E+03  0.20676873012E+03  0.00000000000E+00 0. -1.
          1   -1    0    0  501    0 -0.00000000000E+00 -0.00000000000E+00 -0.83305666375E+03  0.83305666375E+03  0.00000000000E+00 0. -1.
         25    2    1    2    0    0  0.14257808226E+03  0.11732892835E+03 -0.42603293928E+03  0.48085704128E+03  0.12499936733E+03 0.  0.
          2    1    1    2  501    0 -0.70650978247E+01 -0.30252522870E+02 -0.34260111009E+03  0.34400676066E+03  0.00000000000E+00 0. -1.
          1    1    1    2  502    0 -0.13551298443E+03 -0.87076405475E+02  0.14234611573E+03  0.21496159193E+03  0.00000000000E+00 0. -1.
         22    1    3    3    0    0  0.13832232326E+03  0.13151970169E+03 -0.31118144700E+03  0.36505395491E+03  0.00000000000E+00 0.  1.
         22    1    3    3    0    0  0.42557589999E+01 -0.14190773343E+02 -0.11485149229E+03  0.11580308637E+03  0.00000000000E+00 0.  1.
</event>
<event>
 7    1  0.5213103E-005  0.1689389E+04  0.7818608E-02  0.1119348E+00
          2   -1    0    0  502    0  0.00000000000E+00  0.00000000000E+00  0.12191949400E+04  0.12191949400E+04  0.00000000000E+00 0. -1.
          1   -1    0    0  501    0 -0.00000000000E+00 -0.00000000000E+00 -0.40052818178E+04  0.40052818178E+04  0.00000000000E+00 0. -1.
         25    2    1    2    0    0 -0.16336467158E+04  0.38805518074E+03 -0.25175057527E+04  0.30286706614E+04  0.12498938050E+03 0.  0.
          2    1    1    2  501    0  0.16672206827E+04 -0.39500287439E+03 -0.63539252082E+03  0.18273958879E+04  0.00000000000E+00 0. -1.
          1    1    1    2  502    0 -0.33573966909E+02  0.69476936512E+01  0.36681139571E+03  0.36841020849E+03  0.00000000000E+00 0. -1.
         22    1    3    3    0    0 -0.55639955915E+03  0.85064252445E+02 -0.77664156824E+03  0.95916032131E+03  0.00000000000E+00 0.  1.
         22    1    3    3    0    0 -0.10772471566E+04  0.30299092829E+03 -0.17408641845E+04  0.20695103401E+04  0.00000000000E+00 0.  1.
</event>
<event>
 7    1  0.5213103E-005  0.1260503E+03  0.7818608E-02  0.1238455E+00
          2   -1    0    0  502    0  0.00000000000E+00  0.00000000000E+00  0.13018931684E+04  0.13018931684E+04  0.00000000000E+00 0. -1.
          1   -1    0    0  501    0 -0.00000000000E+00 -0.00000000000E+00 -0.71405127617E+03  0.71405127617E+03  0.00000000000E+00 0. -1.
         25    2    1    2    0    0  0.83263977907E+02  0.74095927302E+02  0.46331187513E+02  0.17376168871E+03  0.12499379611E+03 0.  0.
          2    1    1    2  501    0  0.40641674119E+02 -0.11263865052E+03 -0.64124510517E+03  0.65233005156E+03  0.00000000000E+00 0. -1.
          1    1    1    2  502    0 -0.12390565203E+03  0.38542723219E+02  0.11827558099E+04  0.11898527043E+04  0.00000000000E+00 0. -1.
         22    1    3    3    0    0  0.56604636644E+02  0.78676816908E+02  0.83404643203E+02  0.12786892084E+03  0.00000000000E+00 0. -1.
         22    1    3    3    0    0  0.26659341264E+02 -0.45808896057E+01 -0.37073455690E+02  0.45892767872E+02  0.00000000000E+00 0. -1.
</event>
<event>
 7    1  0.5213103E-005  0.3953018E+03  0.7818608E-02  0.1303405E+00
          2   -1    0    0  502    0  0.00000000000E+00  0.00000000000E+00  0.12710081815E+04  0.12710081815E+04  0.00000000000E+00 0. -1.
          1   -1    0    0  501    0 -0.00000000000E+00 -0.00000000000E+00 -0.96977853802E+03  0.96977853802E+03  0.00000000000E+00 0. -1.
         25    2    1    2    0    0 -0.26387299245E+03 -0.28194265415E+03 -0.38388116419E+03  0.55866811488E+03  0.12499879191E+03 0.  0.
          2    1    1    2  501    0  0.28339399157E+03  0.28782126127E+03 -0.41657266518E+03  0.58024651508E+03  0.00000000000E+00 0. -1.
          1    1    1    2  502    0 -0.19520999114E+02 -0.58786071126E+01  0.11016834729E+04  0.11018720896E+04  0.00000000000E+00 0. -1.
         22    1    3    3    0    0 -0.24797300772E+03 -0.26408362021E+03 -0.39167680574E+03  0.53351803266E+03  0.00000000000E+00 0.  1.
         22    1    3    3    0    0 -0.15899984736E+02 -0.17859033944E+02  0.77956415529E+01  0.25150082211E+02  0.00000000000E+00 0.  1.
</event>
<event>
 7    1  0.5213103E-005  0.5620433E+03  0.7818608E-02  0.1160035E+00
          2   -1    0    0  502    0  0.00000000000E+00  0.00000000000E+00  0.16114101916E+04  0.16114101916E+04  0.00000000000E+00 0. -1.
          1   -1    0    0  501    0 -0.00000000000E+00 -0.00000000000E+00 -0.79885504477E+03  0.79885504477E+03  0.00000000000E+00 0. -1.
         25    2    1    2    0    0  0.99711348969E+02  0.59765184708E+03  0.60115667186E+03  0.86263862403E+03  0.12500387236E+03 0.  0.
          2    1    1    2  501    0 -0.12667366483E+03 -0.54064406933E+03 -0.55120955655E+03  0.78241561992E+03  0.00000000000E+00 0. -1.
          1    1    1    2  502    0  0.26962315862E+02 -0.57007777753E+02  0.76260803150E+03  0.76521099241E+03  0.00000000000E+00 0. -1.
         22    1    3    3    0    0  0.10157378725E+03  0.34006524551E+03  0.28738711598E+03  0.45667599005E+03  0.00000000000E+00 0. -1.
         22    1    3    3    0    0 -0.18624382772E+01  0.25758660157E+03  0.31376955588E+03  0.40596263397E+03  0.00000000000E+00 0. -1.
</event>
<event>
 7    1  0.5213103E-005  0.2760306E+03  0.7818608E-02  0.1282542E+00
          2   -1    0    0  502    0  0.00000000000E+00  0.00000000000E+00  0.11083946297E+04  0.11083946297E+04  0.00000000000E+00 0. -1.
          1   -1    0    0  501    0 -0.00000000000E+00 -0.00000000000E+00 -0.20243282930E+03  0.20243282930E+03  0.00000000000E+00 0. -1.
         25    2    1    2    0    0  0.21149099700E+03 -0.16166322229E+03  0.79453218373E+02  0.30463593894E+03  0.12500720833E+03 0.  0.
          2    1    1    2  501    0 -0.21093842687E+03  0.19712241128E+03  0.14375556750E+03  0.32251810514E+03  0.00000000000E+00 0. -1.
          1    1    1    2  502    0 -0.55257012619E+00 -0.35459188989E+02  0.68275301454E+03  0.68367341493E+03  0.00000000000E+00 0. -1.
         22    1    3    3    0    0  0.49280063245E+02  0.13973463126E+01  0.54174372403E+02  0.73248480089E+02  0.00000000000E+00 0. -1.
         22    1    3    3    0    0  0.16221093376E+03 -0.16306056860E+03  0.25278845970E+02  0.23138745885E+03  0.00000000000E+00 0. -1.
</event>
<event>
 7    1  0.5213103E-005  0.7943089E+03  0.7818608E-02  0.1092561E+00
          2   -1    0    0  502    0  0.00000000000E+00  0.00000000000E+00  0.11235855967E+04  0.11235855967E+04  0.00000000000E+00 0. -1.
          1   -1    0    0  501    0 -0.00000000000E+00 -0.00000000000E+00 -0.15446538759E+04  0.15446538759E+04  0.00000000000E+00 0. -1.
         25    2    1    2    0    0 -0.52761474599E+03 -0.59230421740E+03 -0.11679143284E+04  0.14173389761E+04  0.12499715395E+03 0.  0.
          2    1    1    2  501    0  0.60815675779E+03  0.52836564402E+03  0.42055040069E+03  0.90878354703E+03  0.00000000000E+00 0. -1.
          1    1    1    2  502    0 -0.80542011803E+02  0.63938573380E+02  0.32629564853E+03  0.34211694942E+03  0.00000000000E+00 0. -1.
         22    1    3    3    0    0 -0.48486478952E+03 -0.47791860044E+03 -0.99777750614E+03  0.12079155618E+04  0.00000000000E+00 0.  1.
         22    1    3    3    0    0 -0.42749956468E+02 -0.11438561696E+03 -0.17013682230E+03  0.20942341428E+03  0.00000000000E+00 0.  1.
</event>
<event>
 7    1  0.5213103E-005  0.4275642E+02  0.7818608E-02  0.1489176E+00
          2   -1    0    0  502    0  0.00000000000E+00  0.00000000000E+00  0.38545928232E+02  0.38545928232E+02  0.00000000000E+00 0. -1.
          1   -1    0    0  501    0 -0.00000000000E+00 -0.00000000000E+00 -0.24938347480E+04  0.24938347480E+04  0.00000000000E+00 0. -1.
         25    2    1    2    0    0  0.17277549520E+01 -0.20356413102E+00 -0.54160744614E+03  0.55584894651E+03  0.12500559607E+03 0.  0.
          2    1    1    2  501    0 -0.31581454453E+02  0.30811863246E+02 -0.19301934542E+04  0.19306976796E+04  0.00000000000E+00 0. -1.
          1    1    1    2  502    0  0.29853699501E+02 -0.30608299115E+02  0.16512080585E+02  0.45834050158E+02  0.00000000000E+00 0. -1.
         22    1    3    3    0    0 -0.42821340002E+02  0.31089795572E+02 -0.12557186768E+03  0.13626641736E+03  0.00000000000E+00 0.  1.
         22    1    3    3    0    0  0.44549094954E+02 -0.31293359703E+02 -0.41603557846E+03  0.41958252915E+03  0.00000000000E+00 0.  1.
</event>
<event>
 7    1  0.5213103E-005  0.1228135E+03  0.7818608E-02  0.1269243E+00
          2   -1    0    0  502    0  0.00000000000E+00  0.00000000000E+00  0.22174238529E+04  0.22174238529E+04  0.00000000000E+00 0. -1.
          1   -1    0    0  501    0 -0.00000000000E+00 -0.00000000000E+00 -0.47666168369E+03  0.47666168369E+03  0.00000000000E+00 0. -1.
         25    2    1    2    0    0 -0.92144252539E+02  0.55864357501E+02 -0.34917402625E+03  0.38621021257E+03  0.12499775188E+03 0.  0.
          2    1    1    2  501    0  0.17911624894E+03 -0.81013225396E+02 -0.18538807202E+02  0.19745749085E+03  0.00000000000E+00 0. -1.
          1    1    1    2  502    0 -0.86971996397E+02  0.25148867895E+02  0.21084750027E+04  0.21104178332E+04  0.00000000000E+00 0. -1.
         22    1    3    3    0    0 -0.21293658201E+02 -0.20187987430E+02 -0.21242903574E+03  0.21444596043E+03  0.00000000000E+00 0.  1.
         22    1    3    3    0    0 -0.70850594338E+02  0.76052344931E+02 -0.13674499050E+03  0.17176425214E+03  0.00000000000E+00 0.  1.
</event>
<event>
 7    1  0.5213103E-005  0.1026108E+04  0.7818608E-02  0.1093215E+00
          2   -1    0    0  502    0  0.00000000000E+00  0.00000000000E+00  0.35969286615E+04  0.35969286615E+04  0.00000000000E+00 0. -1.
          1   -1    0    0  501    0 -0.00000000000E+00 -0.00000000000E+00 -0.39512959217E+04  0.39512959217E+04  0.00000000000E+00 0. -1.
         25    2    1    2    0    0  0.70805944906E+03  0.82875240509E+03 -0.50260121809E+03  0.12068185461E+04  0.12499714599E+03 0.  0.
          2    1    1    2  501    0 -0.65598711552E+03 -0.76944498789E+03 -0.30135408083E+04  0.31786463925E+04  0.00000000000E+00 0. -1.
          1    1    1    2  502    0 -0.52072333536E+02 -0.59307417206E+02  0.31617747661E+04  0.31627596446E+04  0.00000000000E+00 0. -1.
         22    1    3    3    0    0  0.36046926690E+02  0.31172541193E+02 -0.52470045405E+02  0.70881689547E+02  0.00000000000E+00 0.  1.
         22    1    3    3    0    0  0.67201252237E+03  0.79757986390E+03 -0.45013117269E+03  0.11359368566E+04  0.00000000000E+00 0.  1.
</event>
<event>
 7    1  0.5213103E-005  0.4224501E+03  0.7818608E-02  0.1249011E+00
          2   -1    0    0  502    0  0.00000000000E+00  0.00000000000E+00  0.59724807981E+03  0.59724807981E+03  0.00000000000E+00 0. -1.
          1   -1    0    0  501    0 -0.00000000000E+00 -0.00000000000E+00 -0.10948612205E+04  0.10948612205E+04  0.00000000000E+00 0. -1.
         25    2    1    2    0    0  0.31019756943E+03  0.29208783635E+03 -0.87975188492E+02  0.45265928067E+03  0.12499181719E+03 0.  0.
          2    1    1    2  501    0 -0.25941335912E+02  0.18939051696E+02 -0.71711612807E+03  0.71783506582E+03  0.00000000000E+00 0. -1.
          1    1    1    2  502    0 -0.28425623352E+03 -0.31102688804E+03  0.30747817588E+03  0.52161495380E+03  0.00000000000E+00 0. -1.
         22    1    3    3    0    0  0.26304738186E+03  0.17059413177E+03 -0.68053700074E+02  0.32082329870E+03  0.00000000000E+00 0. -1.
         22    1    3    3    0    0  0.47150187569E+02  0.12149370458E+03 -0.19921488418E+02  0.13183598197E+03  0.00000000000E+00 0. -1.
</event>
<event>
 7    1  0.5213103E-005  0.7464914E+03  0.7818608E-02  0.1072215E+00
          2   -1    0    0  502    0  0.00000000000E+00  0.00000000000E+00  0.19198743498E+04  0.19198743498E+04  0.00000000000E+00 0. -1.
          1   -1    0    0  501    0 -0.00000000000E+00 -0.00000000000E+00 -0.14186719199E+04  0.14186719199E+04  0.00000000000E+00 0. -1.
         25    2    1    2    0    0 -0.65700418112E+03  0.55766165906E+03  0.13820104250E+03  0.88168422244E+03  0.12500607972E+03 0.  0.
          2    1    1    2  501    0  0.11077240987E+03 -0.91609646085E+02 -0.94975190963E+03  0.96056834421E+03  0.00000000000E+00 0. -1.
          1    1    1    2  502    0  0.54623177124E+03 -0.46605201297E+03  0.13127532971E+04  0.14962937030E+04  0.00000000000E+00 0. -1.
         22    1    3    3    0    0 -0.24622538240E+03  0.20182680676E+03  0.11230478572E+03  0.33759941316E+03  0.00000000000E+00 0. -1.
         22    1    3    3    0    0 -0.41077879872E+03  0.35583485230E+03  0.25896256781E+02  0.54408480929E+03  0.00000000000E+00 0. -1.
</event>
<event>
 7    1  0.5213103E-005  0.3062352E+03  0.7818608E-02  0.1147356E+00
          2   -1    0    0  502    0  0.00000000000E+00  0.00000000000E+00  0.25500329846E+04  0.25500329846E+04  0.00000000000E+00 0. -1.
          1   -1    0    0  501    0 -0.00000000000E+00 -0.00000000000E+00 -0.60634617477E+03  0.60634617477E+03  0.00000000000E+00 0. -1.
         25    2    1    2    0    0 -0.39386854775E+03 -0.46390645642E+02 -0.10230974572E+03  0.42822489074E+03  0.12499899226E+03 0.  0.
          2    1    1    2  501    0  0.27592202989E+03 -0.17980242746E+02 -0.28278219546E+03  0.39550224497E+03  0.00000000000E+00 0. -1.
          1    1    1    2  502    0  0.11794651786E+03  0.64370888388E+02  0.23287787510E+04  0.23326520236E+04  0.00000000000E+00 0. -1.
         22    1    3    3    0    0 -0.25338282649E+01 -0.22153041757E+02  0.23256159218E+01  0.22418430681E+02  0.00000000000E+00 0.  1.
         22    1    3    3    0    0 -0.39133471948E+03 -0.24237603885E+02 -0.10463536165E+03  0.40580646006E+03  0.00000000000E+00 0.  1.
</event>
<event>
 7    1  0.5213103E-005  0.3786581E+03  0.7818608E-02  0.1215511E+00
          2   -1    0    0  502    0  0.00000000000E+00  0.00000000000E+00  0.12115046337E+04  0.12115046337E+04  0.00000000000E+00 0. -1.
          1   -1    0    0  501    0 -0.00000000000E+00 -0.00000000000E+00 -0.10376509211E+04  0.10376509211E+04  0.00000000000E+00 0. -1.
         25    2    1    2    0    0  0.31512386355E+03  0.25456094003E+03  0.14400549666E+02  0.42419010730E+03  0.12500219891E+03 0.  0.
          2    1    1    2  501    0 -0.49680371550E+02  0.94901199761E+01 -0.79660455254E+03  0.79820862864E+03  0.00000000000E+00 0. -1.
          1    1    1    2  502    0 -0.26544349200E+03 -0.26405106001E+03  0.95605771549E+03  0.10267568189E+04  0.00000000000E+00 0. -1.
         22    1    3    3    0    0  0.58757852900E+02 -0.71428524658E+00  0.20836505094E+02  0.62347056269E+02  0.00000000000E+00 0. -1.
         22    1    3    3    0    0  0.25636601065E+03  0.25527522528E+03 -0.64359554284E+01  0.36184305103E+03  0.00000000000E+00 0. -1.
</event>
<event>
 7    1  0.5213103E-005  0.1470066E+03  0.7818608E-02  0.1409352E+00
          2   -1    0    0  502    0  0.00000000000E+00  0.00000000000E+00  0.39650998186E+02  0.39650998186E+02  0.00000000000E+00 0. -1.
          1   -1    0    0  501    0 -0.00000000000E+00 -0.00000000000E+00 -0.85674320229E+03  0.85674320229E+03  0.00000000000E+00 0. -1.
         25    2    1    2    0    0 -0.15200301944E+03  0.53946318051E+02 -0.48216815163E+03  0.52357060080E+03  0.12499969771E+03 0.  0.
          2    1    1    2  501    0  0.21711397665E+02 -0.53652095281E+01 -0.71990855777E+02  0.75384703869E+02  0.00000000000E+00 0. -1.
          1    1    1    2  502    0  0.13029162178E+03 -0.48581108523E+02 -0.26293319670E+03  0.29743889580E+03  0.00000000000E+00 0. -1.
         22    1    3    3    0    0 -0.11654219957E+03 -0.21080906819E+02 -0.32375906391E+03  0.34474109180E+03  0.00000000000E+00 0. -1.
         22    1    3    3    0    0 -0.35460819878E+02  0.75027224870E+02 -0.15840908772E+03  0.17882950900E+03  0.00000000000E+00 0. -1.
</event>
<event>
 7    1  0.5213103E-005  0.2522628E+03  0.7818608E-02  0.1132993E+00
          2   -1    0    0  502    0  0.00000000000E+00  0.00000000000E+00  0.52939940029E+03  0.52939940029E+03  0.00000000000E+00 0. -1.
          1   -1    0    0  501    0 -0.00000000000E+00 -0.00000000000E+00 -0.51057747548E+03  0.51057747548E+03  0.00000000000E+00 0. -1.
         25    2    1    2    0    0 -0.36543452298E+01 -0.24212198425E+03  0.60983286717E+02  0.27926046613E+03  0.12502414642E+03 0.  0.
          2    1    1    2  501    0  0.19114921204E+03  0.19246926888E+03 -0.32149700607E+03  0.42064565330E+03  0.00000000000E+00 0. -1.
          1    1    1    2  502    0 -0.18749486681E+03  0.49652715373E+02  0.27933564416E+03  0.34007075635E+03  0.00000000000E+00 0. -1.
         22    1    3    3    0    0 -0.49618105677E+02 -0.19522272475E+03  0.69413334925E+02  0.21305417089E+03  0.00000000000E+00 0.  1.
         22    1    3    3    0    0  0.45963760448E+02 -0.46899259505E+02 -0.84300482087E+01  0.66206295240E+02  0.00000000000E+00 0.  1.
</event>
<event>
 7    1  0.5213103E-005  0.7000885E+02  0.7818608E-02  0.1390383E+00
          2   -1    0    0  502    0  0.00000000000E+00  0.00000000000E+00  0.15463240676E+04  0.15463240676E+04  0.00000000000E+00 0. -1.
          1   -1    0    0  501    0 -0.00000000000E+00 -0.00000000000E+00 -0.89657762127E+02  0.89657762127E+02  0.00000000000E+00 0. -1.
         25    2    1    2    0    0 -0.68795612821E+01 -0.75738921657E+02  0.29795710451E+03  0.33194435447E+03  0.12499962288E+03 0.  0.
          2    1    1    2  501    0  0.50733563330E+02  0.20110604185E+02 -0.61242882902E+02  0.82030613523E+02  0.00000000000E+00 0. -1.
          1    1    1    2  502    0 -0.43854002048E+02  0.55628317472E+02  0.12199520838E+04  0.12220068617E+04  0.00000000000E+00 0. -1.
         22    1    3    3    0    0  0.52473721869E+02 -0.54784384644E+01  0.13294021821E+03  0.14302659331E+03  0.00000000000E+00 0.  1.
         22    1    3    3    0    0 -0.59353283151E+02 -0.70260483192E+02  0.16501688630E+03  0.18891776116E+03  0.00000000000E+00 0.  1.
</event>
<event>
 7    1  0.5213103E-005  0.5361903E+03  0.7818608E-02  0.1202466E+00
          2   -1    0    0  502    0  0.00000000000E+00  0.00000000000E+00  0.52184311810E+03  0.52184311810E+03  0.00000000000E+00 0. -1.
          1   -1    0    0  501    0 -0.00000000000E+00 -0.00000000000E+00 -0.11400445786E+04  0.11400445786E+04  0.00000000000E+00 0. -1.
         25    2    1    2    0    0 -0.50963220683E+03 -0.24876749609E+03 -0.19716858187E+02  0.58105404798E+03  0.12499919531E+03 0.  0.
          2    1    1    2  501    0  0.47744529692E+03  0.22326355661E+03 -0.75401836118E+03  0.91996973660E+03  0.00000000000E+00 0. -1.
          1    1    1    2  502    0  0.32186909911E+02  0.25503939486E+02  0.15553375883E+03  0.16086391216E+03  0.00000000000E+00 0. -1.
         22    1    3    3    0    0 -0.42925302846E+02  0.73292547301E+01 -0.21794294164E+02  0.48695901855E+02  0.00000000000E+00 0.  1.
         22    1    3    3    0    0 -0.46670690399E+03 -0.25609675082E+03  0.20774359773E+01  0.53235814613E+03  0.00000000000E+00 0.  1.
</event>
<event>
 7    1  0.5213103E-005  0.3722471E+03  0.7818608E-02  0.1199227E+00
          2   -1    0    0  502    0  0.00000000000E+00  0.00000000000E+00  0.54246588305E+03  0.54246588305E+03  0.00000000000E+00 0. -1.
          1   -1    0    0  501    0 -0.00000000000E+00 -0.00000000000E+00 -0.80453508892E+03  0.80453508892E+03  0.00000000000E+00 0. -1.
         25    2    1    2    0    0  0.12389680867E+02 -0.41526713486E+03  0.11487929575E+03  0.44880188462E+03  0.12500232621E+03 0.  0.
          2    1    1    2  501    0 -0.42578229994E+02  0.36195342633E+03 -0.58061352779E+03  0.68551823984E+03  0.00000000000E+00 0. -1.
          1    1    1    2  502    0  0.30188549127E+02  0.53313708522E+02  0.20366502617E+03  0.21268084751E+03  0.00000000000E+00 0. -1.
         22    1    3    3    0    0 -0.90632415142E+01 -0.39709750029E+03  0.82062356805E+02  0.40558944450E+03  0.00000000000E+00 0. -1.
         22    1    3    3    0    0  0.21452922381E+02 -0.18169634563E+02  0.32816938947E+02  0.43212440114E+02  0.00000000000E+00 0. -1.
</event>
<event>
 7    1  0.5213103E-005  0.2006845E+03  0.7818608E-02  0.1262351E+00
          2   -1    0    0  502    0  0.00000000000E+00  0.00000000000E+00  0.13158845146E+04  0.13158845146E+04  0.00000000000E+00 0. -1.
          1   -1    0    0  501    0 -0.00000000000E+00 -0.00000000000E+00 -0.28015608995E+04  0.28015608995E+04  0.00000000000E+00 0. -1.
         25    2    1    2    0    0  0.18894673828E+03  0.32256535533E-01  0.11355800264E+04  0.11579588419E+04  0.12500324819E+03 0.  0.
          2    1    1    2  501    0 -0.19183669470E+03  0.59147365314E+02 -0.27814509437E+04  0.27886859057E+04  0.00000000000E+00 0. -1.
          1    1    1    2  502    0  0.28899564281E+01 -0.59179621849E+02  0.16019453242E+03  0.17080066659E+03  0.00000000000E+00 0. -1.
         22    1    3    3    0    0  0.88417046359E+02 -0.57971855553E+02  0.66040569365E+03  0.66881536340E+03  0.00000000000E+00 0.  1.
         22    1    3    3    0    0  0.10052969192E+03  0.58004112088E+02  0.47517433279E+03  0.48914347846E+03  0.00000000000E+00 0.  1.
</event>
<event>
 7    1  0.5213103E-005  0.4961441E+03  0.7818608E-02  0.1081520E+00
          2   -1    0    0  502    0  0.00000000000E+00  0.00000000000E+00  0.83176001413E+03  0.83176001413E+03  0.00000000000E+00 0. -1.
          1   -1    0    0  501    0 -0.00000000000E+00 -0.00000000000E+00 -0.12895460650E+04  0.12895460650E+04  0.00000000000E+00 0. -1.
         25    2    1    2    0    0 -0.61036937727E+03  0.19992526015E+03 -0.38034053855E+02  0.65543309754E+03  0.12500027897E+03 0.  0.
          2    1    1    2  501    0  0.18740890517E+03 -0.35053469861E+02 -0.83145157328E+03  0.85303139578E+03  0.00000000000E+00 0. -1.
          1    1    1    2  502    0  0.42296047209E+03 -0.16487179029E+03  0.41169957626E+03  0.61284158580E+03  0.00000000000E+00 0. -1.
         22    1    3    3    0    0 -0.28719245840E+03  0.95327150888E+02  0.44534417651E+02  0.30585958905E+03  0.00000000000E+00 0. -1.
         22    1    3    3    0    0 -0.32317691886E+03  0.10459810926E+03 -0.82568471505E+02  0.34957350848E+03  0.00000000000E+00 0. -1.
</event>
<event>
 7    1  0.5213103E-005  0.1864121E+03  0.7818608E-02  0.1250000E+00
          2   -1    0    0  502    0  0.00000000000E+00  0.00000000000E+00  0.28989917919E+03  0.28989917919E+03  0.00000000000E+00 0. -1.
          1   -1    0    0  501    0 -0.00000000000E+00 -0.00000000000E+00 -0.99584838938E+03  0.99584838938E+03  0.00000000000E+00 0. -1.
         25    2    1    2    0    0 -0.16849952598E+03  0.18645015534E+03 -0.84316804380E+03  0.88865823268E+03  0.12500141496E+03 0.  0.
          2    1    1    2  501    0  0.29732388193E+02 -0.65654139397E+02 -0.83136211059E+02  0.11002777157E+03  0.00000000000E+00 0. -1.
          1    1    1    2  502    0  0.13876713779E+03 -0.12079601595E+03  0.22035504467E+03  0.28706156432E+03  0.00000000000E+00 0. -1.
         22    1    3    3    0    0 -0.18301897324E+03  0.18846157765E+03 -0.75787581471E+03  0.80211561594E+03  0.00000000000E+00 0.  1.
         22    1    3    3    0    0  0.14519447267E+02 -0.20114223063E+01 -0.85292229085E+02  0.86542616732E+02  0.00000000000E+00 0.  1.
</event>
<event>
 7    1  0.5213103E-005  0.4201864E+03  0.7818608E-02  0.1160096E+00
          2   -1    0    0  502    0  0.00000000000E+00  0.00000000000E+00  0.26422395483E+04  0.26422395483E+04  0.00000000000E+00 0. -1.
          1   -1    0    0  501    0 -0.00000000000E+00 -0.00000000000E+00 -0.43611269173E+04  0.43611269173E+04  0.00000000000E+00 0. -1.
         25    2    1    2    0    0 -0.59910759950E+02 -0.45227414264E+03 -0.20484576255E+04  0.21023660844E+04  0.12499324088E+03 0.  0.
          2    1    1    2  501    0  0.77691450717E+02  0.32701610501E+02 -0.22680687701E+04  0.22696346188E+04  0.00000000000E+00 0. -1.
          1    1    1    2  502    0 -0.17780690767E+02  0.41957253214E+03  0.25976390266E+04  0.26313657624E+04  0.00000000000E+00 0. -1.
         22    1    3    3    0    0 -0.81238004955E+02 -0.26232105301E+03 -0.13829798616E+04  0.14099805836E+04  0.00000000000E+00 0. -1.
         22    1    3    3    0    0  0.21327245006E+02 -0.18995308963E+03 -0.66547776385E+03  0.69238550087E+03  0.00000000000E+00 0. -1.
</event>
<event>
 7    1  0.5213103E-005  0.3789679E+02  0.7818608E-02  0.1572775E+00
          2   -1    0    0  502    0  0.00000000000E+00  0.00000000000E+00  0.12802935161E+04  0.12802935161E+04  0.00000000000E+00 0. -1.
          1   -1    0    0  501    0 -0.00000000000E+00 -0.00000000000E+00 -0.58202609193E+03  0.58202609193E+03  0.00000000000E+00 0. -1.
         25    2    1    2    0    0  0.21943294325E+02  0.51983839432E+02  0.60128603433E+03  0.61672743882E+03  0.12499604388E+03 0.  0.
          2    1    1    2  501    0 -0.23318813393E+02 -0.15017428063E+02 -0.57346033789E+03  0.57413069012E+03  0.00000000000E+00 0. -1.
          1    1    1    2  502    0  0.13755190688E+01 -0.36966411369E+02  0.67044172777E+03  0.67146147913E+03  0.00000000000E+00 0. -1.
         22    1    3    3    0    0  0.14542036379E+02  0.93511370360E+02  0.43494564826E+03  0.44512196547E+03  0.00000000000E+00 0. -1.
         22    1    3    3    0    0  0.74012579451E+01 -0.41527530929E+02  0.16634038607E+03  0.17160547335E+03  0.00000000000E+00 0. -1.
</event>
<event>
 7    1  0.5213103E-005  0.5969370E+03  0.7818608E-02  0.1173014E+00
          2   -1    0    0  502    0  0.00000000000E+00  0.00000000000E+00  0.15241916312E+04  0.15241916312E+04  0.00000000000E+00 0. -1.
          1   -1    0    0  501    0 -0.00000000000E+00 -0.00000000000E+00 -0.49680149303E+03  0.49680149303E+03  0.00000000000E+00 0. -1.
         25    2    1    2    0    0  0.46190036786E+03  0.39970920533E+03 -0.10496407795E+03  0.63227034983E+03  0.12501575487E+03 0.  0.
          2    1    1    2  501    0 -0.43956988205E+03 -0.35370314138E+03  0.49871540739E+03  0.75302367227E+03  0.00000000000E+00 0. -1.
          1    1    1    2  502    0 -0.22330485811E+02 -0.46006063951E+02  0.63363880870E+03  0.63569910209E+03  0.00000000000E+00 0. -1.
         22    1    3    3    0    0  0.42594081879E+03  0.31037333820E+03 -0.94042884474E+02  0.53535152404E+03  0.00000000000E+00 0. -1.
         22    1    3    3    0    0  0.35959549064E+02  0.89335867129E+02 -0.10921193481E+02  0.96918825785E+02  0.00000000000E+00 0. -1.
</event>
<event>
 7    1  0.5213103E-005  0.5097377E+03  0.7818608E-02  0.1146691E+00
          2   -1    0    0  502    0  0.00000000000E+00  0.00000000000E+00  0.17005418751E+04  0.17005418751E+04  0.00000000000E+00 0. -1.
          1   -1    0    0  501    0 -0.00000000000E+00 -0.00000000000E+00 -0.60056502612E+03  0.60056502612E+03  0.00000000000E+00 0. -1.
         25    2    1    2    0    0 -0.48282678465E+03  0.13148144830E+03 -0.23889054567E+03  0.56842078834E+03  0.12499769828E+03 0.  0.
          2    1    1    2  501    0  0.48998621867E+03 -0.21253234136E+03  0.16928981802E+03  0.56028165515E+03  0.00000000000E+00 0. -1.
          1    1    1    2  502    0 -0.71594340166E+01  0.81050893059E+02  0.11695775766E+04  0.11724044577E+04  0.00000000000E+00 0. -1.
         22    1    3    3    0    0 -0.38507889754E+02  0.47341297244E+02 -0.47674339740E+02  0.77439645323E+02  0.00000000000E+00 0.  1.
         22    1    3    3    0    0 -0.44431889490E+03  0.84140151060E+02 -0.19121620593E+03  0.49098114301E+03  0.00000000000E+00 0.  1.
</event>
<event>
 7    1  0.5213103E-005  0.4783101E+03  0.7818608E-02  0.1260446E+00
          2   -1    0    0  502    0  0.00000000000E+00  0.00000000000E+00  0.15825280059E+04  0.15825280059E+04  0.00000000000E+00 0. -1.
          1   -1    0    0  501    0 -0.00000000000E+00 -0.00000000000E+00 -0.49879475058E+03  0.49879475058E+03  0.00000000000E+00 0. -1.
         25    2    1    2    0    0 -0.46136333685E+03 -0.18734868464E+03  0.43900009803E+02  0.51527423908E+03  0.12499868949E+03 0.  0.
          2    1    1    2  501    0  0.17910804620E+02  0.17908571835E+02 -0.21911323648E+03  0.22057226541E+03  0.00000000000E+00 0. -1.
          1    1    1    2  502    0  0.44345253223E+03  0.16944011281E+03  0.12589464820E+04  0.13454762520E+04  0.00000000000E+00 0. -1.
         22    1    3    3    0    0 -0.23155640261E+02 -0.15552825934E+02 -0.27545656309E+02  0.39202515887E+02  0.00000000000E+00 0.  1.
         22    1    3    3    0    0 -0.43820769659E+03 -0.17179585871E+03  0.71445666111E+02  0.47607172320E+03  0.00000000000E+00 0.  1.
</event>
<event>
 7    1  0.5213103E-005  0.5121904E+03  0.7818608E-02  0.1036182E+00
          2   -1    0    0  502    0  0.00000000000E+00  0.00000000000E+00  0.27074327545E+04  0.27074327545E+04  0.00000000000E+00 0. -1.
          1   -1    0    0  501    0 -0.00000000000E+00 -0.00000000000E+00 -0.78071842761E+03  0.78071842761E+03  0.00000000000E+00 0. -1.
         25    2    1    2    0    0  0.70358848766E+03 -0.29596777765E+02 -0.18979944898E+03  0.73997411013E+03  0.12500049438E+03 0.  0.
          2    1    1    2  501    0 -0.39918384800E+03 -0.14087861708E+03 -0.15441961469E+03  0.45059954134E+03  0.00000000000E+00 0. -1.
          1    1    1    2  502    0 -0.30440463966E+03  0.17047539485E+03  0.22709333906E+04  0.22975775306E+04  0.00000000000E+00 0. -1.
         22    1    3    3    0    0  0.65578181535E+03 -0.11458625103E+02 -0.20405671852E+03  0.68689171913E+03  0.00000000000E+00 0. -1.
         22    1    3    3    0    0  0.47806672314E+02 -0.18138152662E+02  0.14257269533E+02  0.53082391000E+02  0.00000000000E+00 0. -1.
</event>
<event>
 7    1  0.5213103E-005  0.6779610E+03  0.7818608E-02  0.1130613E+00
          2   -1    0    0  502    0  0.00000000000E+00  0.00000000000E+00  0.13024671800E+04  0.13024671800E+04  0.00000000000E+00 0. -1.
          1   -1    0    0  501    0 -0.00000000000E+00 -0.00000000000E+00 -0.17716180290E+04  0.17716180290E+04  0.00000000000E+00 0. -1.
         25    2    1    2    0    0  0.45350261805E+03  0.49371072200E+03 -0.19452753660E+03  0.70914171621E+03  0.12500443822E+03 0.  0.
          2    1    1    2  501    0  0.58715000819E+02 -0.45535996065E+02 -0.12077174549E+04  0.12100010038E+04  0.00000000000E+00 0. -1.
          1    1    1    2  502    0 -0.51221761887E+03 -0.44817472594E+03  0.93309414251E+03  0.11549424890E+04  0.00000000000E+00 0. -1.
         22    1    3    3    0    0  0.19735567262E+03  0.28469576340E+03 -0.14202471913E+03  0.37439545945E+03  0.00000000000E+00 0. -1.
         22    1    3    3    0    0  0.25614694543E+03  0.20901495860E+03 -0.52502817475E+02  0.33474625676E+03  0.00000000000E+00 0. -1.
</event>
<event>
 7    1  0.5213103E-005  0.6879387E+02  0.7818608E-02  0.1412453E+00
          2   -1    0    0  502    0  0.00000000000E+00  0.00000000000E+00  0.45249506545E+03  0.45249506545E+03  0.00000000000E+00 0. -1.
          1   -1    0    0  501    0 -0.00000000000E+00 -0.00000000000E+00 -0.27232945174E+03  0.27232945174E+03  0.00000000000E+00 0. -1.
         25    2    1    2    0    0 -0.72747562161E+02 -0.26829062341E+02  0.15003243036E+03  0.21010943133E+03  0.12499694632E+03 0.  0.
          2    1    1    2  501    0  0.60639545518E+01  0.46253985234E+02 -0.23553891871E+03  0.24011410813E+03  0.00000000000E+00 0. -1.
          1    1    1    2  502    0  0.66683607610E+02 -0.19424922893E+02  0.26567210207E+03  0.27460097773E+03  0.00000000000E+00 0. -1.
         22    1    3    3    0    0 -0.69021815860E+02  0.66547885136E+01  0.15010759357E+02  0.70948010340E+02  0.00000000000E+00 0. -1.
         22    1    3    3    0    0 -0.37257463016E+01 -0.33483850854E+02  0.13502167100E+03  0.13916142099E+03  0.00000000000E+00 0. -1.
</event>
<event>
 7    1  0.5213103E-005  0.1113191E+03  0.7818608E-02  0.1313316E+00
          2   -1    0    0  502    0  0.00000000000E+00  0.00000000000E+00  0.93846583875E+03  0.93846583875E+03  0.00000000000E+00 0. -1.
          1   -1    0    0  501    0 -0.00000000000E+00 -0.00000000000E+00 -0.11869684971E+03  0.11869684971E+03  0.00000000000E+00 0. -1.
         25    2    1    2    0    0 -0.15734329985E+03  0.64463482684E+02  0.28219789656E+03  0.35237863937E+03  0.12499039186E+03 0.  0.
          2    1    1    2  501    0  0.61046191789E+02 -0.25487364534E+02 -0.65344020864E+02  0.92984323117E+02  0.00000000000E+00 0. -1.
          1    1    1    2  502    0  0.96297108059E+02 -0.38976118151E+02  0.60291511334E+03  0.61179972598E+03  0.00000000000E+00 0. -1.
         22    1    3    3    0    0 -0.83591157736E+02 -0.23801145326E+02  0.72396837642E+02  0.11311621577E+03  0.00000000000E+00 0.  1.
         22    1    3    3    0    0 -0.73752142112E+02  0.88264628010E+02  0.20980105892E+03  0.23926242360E+03  0.00000000000E+00 0.  1.
</event>
<event>
 7    1  0.5213103E-005  0.3417334E+03  0.7818608E-02  0.1216047E+00
          2   -1    0    0  502    0  0.00000000000E+00  0.00000000000E+00  0.13213806857E+04  0.13213806857E+04  0.00000000000E+00 0. -1.
          1   -1    0    0  501    0 -0.00000000000E+00 -0.00000000000E+00 -0.71008594241E+03  0.71008594241E+03  0.00000000000E+00 0. -1.
         25    2    1    2    0    0 -0.28744140401E+03  0.25774022742E+03  0.25609144196E+03  0.47984947706E+03  0.12498043217E+03 0.  0.
          2    1    1    2  501    0  0.40361181153E+02 -0.38424891572E+02 -0.56818241874E+03  0.57090871267E+03  0.00000000000E+00 0. -1.
          1    1    1    2  502    0  0.24708022286E+03 -0.21931533585E+03  0.92338572005E+03  0.98070843835E+03  0.00000000000E+00 0. -1.
         22    1    3    3    0    0 -0.16060346718E+03  0.17394466827E+03  0.86397095802E+02  0.25202118850E+03  0.00000000000E+00 0.  1.
         22    1    3    3    0    0 -0.12683793683E+03  0.83795559148E+02  0.16969434616E+03  0.22782828857E+03  0.00000000000E+00 0.  1.
</event>
<event>
 7    1  0.5213103E-005  0.2516382E+03  0.7818608E-02  0.1194403E+00
          2   -1    0    0  502    0  0.00000000000E+00  0.00000000000E+00  0.22121900904E+04  0.22121900904E+04  0.00000000000E+00 0. -1.
          1   -1    0    0  501    0 -0.00000000000E+00 -0.00000000000E+00 -0.83427493145E+03  0.83427493145E+03  0.00000000000E+00 0. -1.
         25    2    1    2    0    0 -0.32412390333E+03 -0.10360013501E+03 -0.55357791723E+03  0.66171178858E+03  0.12499875210E+03 0.  0.
          2    1    1    2  501    0  0.78351764042E+02  0.54660098980E+02 -0.20891667826E+03  0.22972353777E+03  0.00000000000E+00 0. -1.
          1    1    1    2  502    0  0.24577213928E+03  0.48940036032E+02  0.21404097544E+04  0.21550296955E+04  0.00000000000E+00 0. -1.
         22    1    3    3    0    0 -0.23071893514E+02  0.21721969504E+02 -0.86005153049E+02  0.91657201465E+02  0.00000000000E+00 0. -1.
         22    1    3    3    0    0 -0.30105200981E+03 -0.12532210452E+03 -0.46757276418E+03  0.57005458712E+03  0.00000000000E+00 0. -1.
</event>
<event>
 7    1  0.5213103E-005  0.3729150E+03  0.7818608E-02  0.1293412E+00
          2   -1    0    0  502    0  0.00000000000E+00  0.00000000000E+00  0.16117051347E+04  0.16117051347E+04  0.00000000000E+00 0. -1.
          1   -1    0    0  501    0 -0.00000000000E+00 -0.00000000000E+00 -0.94287915419E+03  0.94287915419E+03  0.00000000000E+00 0. -1.
         25    2    1    2    0    0 -0.11718058308E+03 -0.35938506193E+03 -0.24592312256E+03  0.46796628861E+03  0.12500141309E+03 0.  0.
          2    1    1    2  501    0  0.13577337429E+03  0.34468574570E+03 -0.52727015105E+03  0.64440397628E+03  0.00000000000E+00 0. -1.
          1    1    1    2  502    0 -0.18592791212E+02  0.14699316231E+02  0.14420192541E+04  0.14422140240E+04  0.00000000000E+00 0. -1.
         22    1    3    3    0    0 -0.80620360741E+02 -0.73078706445E+02 -0.79851441235E+02  0.13496811686E+03  0.00000000000E+00 0.  1.
         22    1    3    3    0    0 -0.36560222341E+02 -0.28630635548E+03 -0.16607168133E+03  0.33299817175E+03  0.00000000000E+00 0.  1.
</event>
<event>
 7    1  0.5213103E-005  0.4424014E+02  0.7818608E-02  0.1482273E+00
          2   -1    0    0  502    0  0.00000000000E+00  0.00000000000E+00  0.10192282089E+03  0.10192282089E+03  0.00000000000E+00 0. -1.
          1   -1    0    0  501    0 -0.00000000000E+00 -0.00000000000E+00 -0.78040535160E+03  0.78040535160E+03  0.00000000000E+00 0. -1.
         25    2    1    2    0    0 -0.28352285539E+02  0.24260536735E+02 -0.14345863958E+03  0.19390001901E+03  0.12499764143E+03 0.  0.
          2    1    1    2  501    0  0.41863067636E+02  0.16849592486E+02 -0.60471422609E+03  0.60639567976E+03  0.00000000000E+00 0. -1.
          1    1    1    2  502    0 -0.13510782097E+02 -0.41110129221E+02  0.69690334963E+02  0.82032473720E+02  0.00000000000E+00 0. -1.
         22    1    3    3    0    0 -0.15698130310E+02 -0.78998740908E+00  0.21465522963E+02  0.26604962909E+02  0.00000000000E+00 0.  1.
         22    1    3    3    0    0 -0.12654155229E+02  0.25050524144E+02 -0.16492416255E+03  0.16729505610E+03  0.00000000000E+00 0.  1.
</event>
<event>
 7    1  0.5213103E-005  0.7278485E+03  0.7818608E-02  0.1111484E+00
          2   -1    0    0  502    0  0.00000000000E+00  0.00000000000E+00  0.44518160027E+04  0.44518160027E+04  0.00000000000E+00 0. -1.
          1   -1    0    0  501    0 -0.00000000000E+00 -0.00000000000E+00 -0.83322931964E+03  0.83322931964E+03  0.00000000000E+00 0. -1.
         25    2    1    2    0    0 -0.61945855965E+03  0.43502973169E+03  0.17749527154E+04  0.19336655400E+04  0.12500201662E+03 0.  0.
          2    1    1    2  501    0  0.82128405497E+02  0.31255214256E+02 -0.70236910298E+03  0.70784484192E+03  0.00000000000E+00 0. -1.
          1    1    1    2  502    0  0.53733015416E+03 -0.46628494594E+03  0.25460030706E+04  0.26435349404E+04  0.00000000000E+00 0. -1.
         22    1    3    3    0    0 -0.46719221193E+03  0.35547232163E+03  0.14822629558E+04  0.15942812187E+04  0.00000000000E+00 0. -1.
         22    1    3    3    0    0 -0.15226634773E+03  0.79557410060E+02  0.29268975961E+03  0.33938432127E+03  0.00000000000E+00 0. -1.
</event>
<event>
 7    1  0.5213103E-005  0.6711817E+03  0.7818608E-02  0.1106425E+00
          2   -1    0    0  502    0  0.00000000000E+00  0.00000000000E+00  0.31318790844E+04  0.31318790844E+04  0.00000000000E+00 0. -1.
          1   -1    0    0  501    0 -0.00000000000E+00 -0.00000000000E+00 -0.61396752738E+03  0.61396752738E+03  0.00000000000E+00 0. -1.
         25    2    1    2    0    0 -0.12490311119E+03  0.67440295652E+03  0.18929932264E+03  0.72241201815E+03  0.12499902190E+03 0.  0.
          2    1    1    2  501    0  0.10153016762E+03 -0.49245050995E+01 -0.29689572132E+03  0.31381474634E+03  0.00000000000E+00 0. -1.
          1    1    1    2  502    0  0.23372943570E+02 -0.66947845142E+03  0.26255079557E+04  0.27096198473E+04  0.00000000000E+00 0. -1.
         22    1    3    3    0    0 -0.17835373941E+02  0.61720217121E+01 -0.24150408086E+01  0.19027002858E+02  0.00000000000E+00 0. -1.
         22    1    3    3    0    0 -0.10706773725E+03  0.66823093480E+03  0.19171436345E+03  0.70338501529E+03  0.00000000000E+00 0. -1.
</event>
<event>
 7    1  0.5213103E-005  0.1219961E+03  0.7818608E-02  0.1342436E+00
          2   -1    0    0  502    0  0.00000000000E+00  0.00000000000E+00  0.46715422197E+02  0.46715422197E+02  0.00000000000E+00 0. -1.
          1   -1    0    0  501    0 -0.00000000000E+00 -0.00000000000E+00 -0.11040050512E+04  0.11040050512E+04  0.00000000000E+00 0. -1.
         25    2    1    2    0    0 -0.10886076051E+03 -0.12098840906E+03 -0.29528936846E+03  0.35959694477E+03  0.12500116502E+03 0.  0.
          2    1    1    2  501    0  0.78122367301E+02  0.85854845863E+02 -0.71682213629E+03  0.72615985424E+03  0.00000000000E+00 0. -1.
          1    1    1    2  502    0  0.30738393212E+02  0.35133563198E+02 -0.45178124284E+02  0.64963674419E+02  0.00000000000E+00 0. -1.
         22    1    3    3    0    0 -0.16643924715E+02 -0.25873949181E+02 -0.18406526498E+03  0.18661860371E+03  0.00000000000E+00 0.  1.
         22    1    3    3    0    0 -0.92216835798E+02 -0.95114459880E+02 -0.11122410347E+03  0.17297834106E+03  0.00000000000E+00 0.  1.
</event>
<event>
 7    1  0.5213103E-005  0.1705283E+03  0.7818608E-02  0.1241550E+00
          2   -1    0    0  502    0  0.00000000000E+00  0.00000000000E+00  0.48270245794E+03  0.48270245794E+03  0.00000000000E+00 0. -1.
          1   -1    0    0  501    0 -0.00000000000E+00 -0.00000000000E+00 -0.42456409388E+03  0.42456409388E+03  0.00000000000E+00 0. -1.
         25    2    1    2    0    0 -0.18178219083E+03 -0.30469656724E+02  0.35137422982E+03  0.41600708527E+03  0.12499952293E+03 0.  0.
          2    1    1    2  501    0  0.57784754538E+02 -0.63390117836E+02 -0.32189341595E+03  0.33312573621E+03  0.00000000000E+00 0. -1.
          1    1    1    2  502    0  0.12399743629E+03  0.93859774560E+02  0.28657550182E+02  0.15813373033E+03  0.00000000000E+00 0. -1.
         22    1    3    3    0    0 -0.50936187234E+02 -0.29429315735E+02  0.24150740538E+02  0.63591179130E+02  0.00000000000E+00 0. -1.
         22    1    3    3    0    0 -0.13084600359E+03 -0.10403409886E+01  0.32722348928E+03  0.35241590614E+03  0.00000000000E+00 0. -1.
</event>
<event>
 7    1  0.5213103E-005  0.6199911E+03  0.7818608E-02  0.1180296E+00
          2   -1    0    0  502    0  0.00000000000E+00  0.00000000000E+00  0.10192282123E+04  0.10192282123E+04  0.00000000000E+00 0. -1.
          1   -1    0    0  501    0 -0.00000000000E+00 -0.00000000000E+00 -0.28776292437E+04  0.28776292437E+04  0.00000000000E+00 0. -1.
         25    2    1    2    0    0  0.64892225002E+03  0.11745008596E+02  0.44835960332E+02  0.66247579472E+03  0.12500353376E+03 0.  0.
          2    1    1    2  501    0 -0.41902540782E+02 -0.17333977692E+02 -0.24301375296E+04  0.24305605737E+04  0.00000000000E+00 0. -1.
          1    1    1    2  502    0 -0.60701970924E+03  0.55889690955E+01  0.52690053788E+03  0.80382108756E+03  0.00000000000E+00 0. -1.
         22    1    3    3    0    0  0.37866042404E+03 -0.54009929231E+02  0.36100580621E+02  0.38419271351E+03  0.00000000000E+00 0. -1.
         22    1    3    3    0    0  0.27026182598E+03  0.65754937828E+02  0.87353797115E+01  0.27828308121E+03  0.00000000000E+00 0. -1.
</event>
<event>
 7    1  0.5213103E-005  0.3303465E+03  0.7818608E-02  0.1124601E+00
          2   -1    0    0  502    0  0.00000000000E+00  0.00000000000E+00  0.31377921498E+03  0.31377921498E+03  0.00000000000E+00 0. -1.
          1   -1    0    0  501    0 -0.00000000000E+00 -0.00000000000E+00 -0.61583416911E+03  0.61583416911E+03  0.00000000000E+00 0. -1.
         25    2    1    2    0    0  0.19760562794E+03  0.37339595922E+03 -0.15290035069E+03  0.46635706753E+03  0.12505147197E+03 0.  0.
          2    1    1    2  501    0 -0.16123331718E+03 -0.21324687450E+03 -0.51707864824E+02  0.27229417059E+03  0.00000000000E+00 0. -1.
          1    1    1    2  502    0 -0.36372310765E+02 -0.16014908472E+03 -0.97446738620E+02  0.19096214598E+03  0.00000000000E+00 0. -1.
         22    1    3    3    0    0  0.97902806721E+02  0.28257223765E+03 -0.67030629193E+02  0.30647207753E+03  0.00000000000E+00 0.  1.
         22    1    3    3    0    0  0.99702821219E+02  0.90823721568E+02 -0.85869721494E+02  0.15988499000E+03  0.00000000000E+00 0.  1.
</event>
<event>
 7    1  0.5213103E-005  0.7209816E+03  0.7818608E-02  0.1083262E+00
          2   -1    0    0  502    0  0.00000000000E+00  0.00000000000E+00  0.77660741245E+03  0.77660741245E+03  0.00000000000E+00 0. -1.
          1   -1    0    0  501    0 -0.00000000000E+00 -0.00000000000E+00 -0.19751677001E+04  0.19751677001E+04  0.00000000000E+00 0. -1.
         25    2    1    2    0    0 -0.70490616223E+03 -0.21148616862E+03 -0.83698866614E+03  0.11215144498E+04  0.12500214676E+03 0.  0.
          2    1    1    2  501    0  0.70778791715E+03  0.83345366355E+02 -0.85924981042E+03  0.11163424306E+04  0.00000000000E+00 0. -1.
          1    1    1    2  502    0 -0.28817549249E+01  0.12814080227E+03  0.49767818886E+03  0.51391823219E+03  0.00000000000E+00 0. -1.
         22    1    3    3    0    0 -0.35886626309E+03 -0.14387201567E+03 -0.35939306061E+03  0.52787074525E+03  0.00000000000E+00 0. -1.
         22    1    3    3    0    0 -0.34603989914E+03 -0.67614152953E+02 -0.47759560553E+03  0.59364370450E+03  0.00000000000E+00 0. -1.
</event>
<event>
 7    1  0.5213103E-005  0.7907856E+02  0.7818608E-02  0.1461205E+00
          2   -1    0    0  502    0  0.00000000000E+00  0.00000000000E+00  0.18690685450E+03  0.18690685450E+03  0.00000000000E+00 0. -1.
          1   -1    0    0  501    0 -0.00000000000E+00 -0.00000000000E+00 -0.19740351577E+04  0.19740351577E+04  0.00000000000E+00 0. -1.
         25    2    1    2    0    0  0.97946405003E+02 -0.13543013544E+00  0.45384058261E+02  0.16516113352E+03  0.12499988275E+03 0.  0.
          2    1    1    2  501    0 -0.76726282723E+02  0.18620365261E+02 -0.19108815476E+04  0.19125119423E+04  0.00000000000E+00 0. -1.
          1    1    1    2  502    0 -0.21220122281E+02 -0.18484935126E+02  0.78369186186E+02  0.83268936343E+02  0.00000000000E+00 0. -1.
         22    1    3    3    0    0  0.99078671536E+02  0.28874072749E+02 -0.89187467571E+01  0.10358493749E+03  0.00000000000E+00 0.  1.
         22    1    3    3    0    0 -0.11322665334E+01 -0.29009502885E+02  0.54302805018E+02  0.61576196033E+02  0.00000000000E+00 0.  1.
</event>
<event>
 7    1  0.5213103E-005  0.3252171E+03  0.7818608E-02  0.1191555E+00
          2   -1    0    0  502    0  0.00000000000E+00  0.00000000000E+00  0.87335134549E+03  0.87335134549E+03  0.00000000000E+00 0. -1.
          1   -1    0    0  501    0 -0.00000000000E+00 -0.00000000000E+00 -0.20744117316E+03  0.20744117316E+03  0.00000000000E+00 0. -1.
         25    2    1    2    0    0  0.21748244980E+03  0.28445992172E+03  0.24712922067E+03  0.45267404243E+03  0.12499949579E+03 0.  0.
          2    1    1    2  501    0  0.13110682517E+02 -0.75135618766E+02 -0.29919922618E+02  0.81929561044E+02  0.00000000000E+00 0. -1.
          1    1    1    2  502    0 -0.23059313231E+03 -0.20932430295E+03  0.44870087428E+03  0.54618891517E+03  0.00000000000E+00 0. -1.
         22    1    3    3    0    0  0.15531212021E+03  0.12838864557E+03  0.18501188149E+03  0.27355967409E+03  0.00000000000E+00 0.  1.
         22    1    3    3    0    0  0.62170329584E+02  0.15607127615E+03  0.62117339187E+02  0.17911436834E+03  0.00000000000E+00 0.  1.
</event>
<event>
 7    1  0.5213103E-005  0.9241298E+03  0.7818608E-02  0.1121657E+00
          2   -1    0    0  502    0  0.00000000000E+00  0.00000000000E+00  0.31974500195E+04  0.31974500195E+04  0.00000000000E+00 0. -1.
          1   -1    0    0  501    0 -0.00000000000E+00 -0.00000000000E+00 -0.15807867054E+04  0.15807867054E+04  0.00000000000E+00 0. -1.
         25    2    1    2    0    0  0.95115667618E+03 -0.32648679956E+02  0.43926148827E+03  0.10556232094E+04  0.12499898478E+03 0.  0.
          2    1    1    2  501    0 -0.91808217518E+03 -0.18480887553E+02 -0.11064995728E+04  0.14379004584E+04  0.00000000000E+00 0. -1.
          1    1    1    2  502    0 -0.33074500992E+02  0.51129567509E+02  0.22839013985E+04  0.22847130572E+04  0.00000000000E+00 0. -1.
         22    1    3    3    0    0  0.32719689093E+03  0.46130150969E+02  0.13448138682E+03  0.35675066876E+03  0.00000000000E+00 0.  1.
         22    1    3    3    0    0  0.62395978525E+03 -0.78778830925E+02  0.30478010145E+03  0.69887254063E+03  0.00000000000E+00 0.  1.
</event>
<event>
 7    1  0.5213103E-005  0.6216895E+02  0.7818608E-02  0.1408693E+00
          2   -1    0    0  502    0  0.00000000000E+00  0.00000000000E+00  0.14644399764E+04  0.14644399764E+04  0.00000000000E+00 0. -1.
          1   -1    0    0  501    0 -0.00000000000E+00 -0.00000000000E+00 -0.86599741895E+02  0.86599741895E+02  0.00000000000E+00 0. -1.
         25    2    1    2    0    0  0.39131794971E+02  0.51110604031E+01  0.49309410733E+02  0.14005120421E+03  0.12500200597E+03 0.  0.
          2    1    1    2  501    0 -0.45340564334E+02 -0.57903821884E+02 -0.74780866178E+01  0.73922534740E+02  0.00000000000E+00 0. -1.
          1    1    1    2  502    0  0.62087693637E+01  0.52792761481E+02  0.13360089104E+04  0.13370659793E+04  0.00000000000E+00 0. -1.
         22    1    3    3    0    0  0.54247310905E+02 -0.35871850629E+02  0.66586529718E+02  0.93076991506E+02  0.00000000000E+00 0. -1.
         22    1    3    3    0    0 -0.15115515934E+02  0.40982911032E+02 -0.17277118984E+02  0.46974212703E+02  0.00000000000E+00 0. -1.
</event>
<event>
 7    1  0.5213103E-005  0.2293879E+03  0.7818608E-02  0.1273225E+00
          2   -1    0    0  502    0  0.00000000000E+00  0.00000000000E+00  0.29609298010E+03  0.29609298010E+03  0.00000000000E+00 0. -1.
          1   -1    0    0  501    0 -0.00000000000E+00 -0.00000000000E+00 -0.29764623592E+03  0.29764623592E+03  0.00000000000E+00 0. -1.
         25    2    1    2    0    0  0.16365106596E+03  0.17146282362E+03  0.12731261765E+03  0.29667259615E+03  0.12499982167E+03 0.  0.
          2    1    1    2  501    0  0.13116263443E+02 -0.44762673680E+02 -0.42361427554E+02  0.63009712474E+02  0.00000000000E+00 0. -1.
          1    1    1    2  502    0 -0.17676732941E+03 -0.12670014994E+03 -0.86504445913E+02  0.23405690740E+03  0.00000000000E+00 0. -1.
         22    1    3    3    0    0  0.10899102563E+03  0.10887468221E+03  0.11975644216E+02  0.15451911256E+03  0.00000000000E+00 0. -1.
         22    1    3    3    0    0  0.54660040338E+02  0.62588141415E+02  0.11533697343E+03  0.14215348359E+03  0.00000000000E+00 0. -1.
</event>
<event>
 7    1  0.5213103E-005  0.6378287E+03  0.7818608E-02  0.1241424E+00
          2   -1    0    0  502    0  0.00000000000E+00  0.00000000000E+00  0.20816891511E+04  0.20816891511E+04  0.00000000000E+00 0. -1.
          1   -1    0    0  501    0 -0.00000000000E+00 -0.00000000000E+00 -0.47280056464E+03  0.47280056464E+03  0.00000000000E+00 0. -1.
         25    2    1    2    0    0 -0.61046522645E+03 -0.19430781732E+03  0.87312259768E+03  0.10901337516E+04  0.12500082090E+03 0.  0.
          2    1    1    2  501    0 -0.16150971760E+01  0.22905119181E+02 -0.27195284363E+03  0.27292050524E+03  0.00000000000E+00 0. -1.
          1    1    1    2  502    0  0.61208032362E+03  0.17140269814E+03  0.10077188324E+04  0.11914354588E+04  0.00000000000E+00 0. -1.
         22    1    3    3    0    0 -0.21527935503E+03 -0.31415498449E+02  0.37700966230E+03  0.43527970285E+03  0.00000000000E+00 0. -1.
         22    1    3    3    0    0 -0.39518587142E+03 -0.16289231887E+03  0.49611293538E+03  0.65485404875E+03  0.00000000000E+00 0. -1.
</event>
<event>
 7    1  0.5213103E-005  0.5687362E+03  0.7818608E-02  0.1178963E+00
          2   -1    0    0  502    0  0.00000000000E+00  0.00000000000E+00  0.79268413272E+03  0.79268413272E+03  0.00000000000E+00 0. -1.
          1   -1    0    0  501    0 -0.00000000000E+00 -0.00000000000E+00 -0.10233162108E+04  0.10233162108E+04  0.00000000000E+00 0. -1.
         25    2    1    2    0    0 -0.41383887624E+02  0.57112041099E+03 -0.42221993088E+03  0.72234764079E+03  0.12500117646E+03 0.  0.
          2    1    1    2  501    0  0.89852287831E+02 -0.55812818876E+03 -0.27200686531E+03  0.62735017613E+03  0.00000000000E+00 0. -1.
          1    1    1    2  502    0 -0.48468400208E+02 -0.12992222227E+02  0.46359471810E+03  0.46630252660E+03  0.00000000000E+00 0. -1.
         22    1    3    3    0    0  0.20303366934E+02  0.20781515580E+03 -0.21441896288E+03  0.29929059011E+03  0.00000000000E+00 0. -1.
         22    1    3    3    0    0 -0.61687254557E+02  0.36330525519E+03 -0.20780096801E+03  0.42305705068E+03  0.00000000000E+00 0. -1.
</event>
<event>
 7    1  0.5213103E-005  0.9519225E+03  0.7818608E-02  0.1163524E+00
          2   -1    0    0  502    0  0.00000000000E+00  0.00000000000E+00  0.41882501899E+04  0.41882501899E+04  0.00000000000E+00 0. -1.
          1   -1    0    0  501    0 -0.00000000000E+00 -0.00000000000E+00 -0.81415756378E+03  0.81415756378E+03  0.00000000000E+00 0. -1.
         25    2    1    2    0    0 -0.47294344371E+03  0.80037668503E+03  0.12990103586E+04  0.16022892883E+04  0.12499885093E+03 0.  0.
          2    1    1    2  501    0  0.50669312274E+03 -0.81218795728E+03 -0.31651764569E+03  0.10082512676E+04  0.00000000000E+00 0. -1.
          1    1    1    2  502    0 -0.33749679027E+02  0.11811272256E+02  0.23915999133E+04  0.23918671978E+04  0.00000000000E+00 0. -1.
         22    1    3    3    0    0 -0.43577091414E+03  0.70855290871E+03  0.10914402547E+04  0.13722920038E+04  0.00000000000E+00 0.  1.
         22    1    3    3    0    0 -0.37172529567E+02  0.91823776312E+02  0.20757010385E+03  0.22999728446E+03  0.00000000000E+00 0.  1.
</event>
<event>
 7    1  0.5213103E-005  0.4085447E+03  0.7818608E-02  0.1094053E+00
          2   -1    0    0  502    0  0.00000000000E+00  0.00000000000E+00  0.17369328759E+04  0.17369328759E+04  0.00000000000E+00 0. -1.
          1   -1    0    0  501    0 -0.00000000000E+00 -0.00000000000E+00 -0.18076429732E+04  0.18076429732E+04  0.00000000000E+00 0. -1.
         25    2    1    2    0    0  0.31007178821E+03  0.29960835672E+03  0.15949193508E+04  0.16568955747E+04  0.12500211424E+03 0.  0.
          2    1    1    2  501    0 -0.19190922770E+03 -0.40111731846E+02 -0.15769277771E+04  0.15890686948E+04  0.00000000000E+00 0. -1.
          1    1    1    2  502    0 -0.11816256051E+03 -0.25949662487E+03 -0.88701671000E+02  0.29861157959E+03  0.00000000000E+00 0. -1.
         22    1    3    3    0    0  0.11208590684E+02  0.33858065753E+02  0.28674760092E+03  0.28895706905E+03  0.00000000000E+00 0.  1.
         22    1    3    3    0    0  0.29886319752E+03  0.26575029097E+03  0.13081717499E+04  0.13679385056E+04  0.00000000000E+00 0.  1.
</event>
<event>
 7    1  0.5213103E-005  0.2654314E+03  0.7818608E-02  0.1181756E+00
          2   -1    0    0  502    0  0.00000000000E+00  0.00000000000E+00  0.18545916570E+04  0.18545916570E+04  0.00000000000E+00 0. -1.
          1   -1    0    0  501    0 -0.00000000000E+00 -0.00000000000E+00 -0.44067531390E+03  0.44067531390E+03  0.00000000000E+00 0. -1.
         25    2    1    2    0    0  0.20487203435E+03 -0.48801843326E+02  0.15690066717E+04  0.15880052466E+04  0.12499822815E+03 0.  0.
          2    1    1    2  501    0 -0.21992521662E+03  0.15190697604E+03 -0.37698140724E+03  0.46212315640E+03  0.00000000000E+00 0. -1.
          1    1    1    2  502    0  0.15053182269E+02 -0.10310513272E+03  0.22189107863E+03  0.24513856788E+03  0.00000000000E+00 0. -1.
         22    1    3    3    0    0  0.11517888202E+03 -0.58037837985E+02  0.12457490865E+04  0.12524078217E+04  0.00000000000E+00 0.  1.
         22    1    3    3    0    0  0.89693152327E+02  0.92359946593E+01  0.32325758524E+03  0.33559742488E+03  0.00000000000E+00 0.  1.
</event>
<event>
 7    1  0.5213103E-005  0.2636641E+03  0.7818608E-02  0.1133365E+00
          2   -1    0    0  502    0  0.00000000000E+00  0.00000000000E+00  0.21816522766E+04  0.21816522766E+04  0.00000000000E+00 0. -1.
          1   -1    0    0  501    0 -0.00000000000E+00 -0.00000000000E+00 -0.99785613364E+03  0.99785613364E+03  0.00000000000E+00 0. -1.
         25    2    1    2    0    0 -0.20869874170E+03  0.35001252829E+03  0.10668881251E+04  0.11488858233E+04  0.12499771521E+03 0.  0.
          2    1    1    2  501    0  0.94569505686E+02 -0.15868850459E+03 -0.93617816953E+03  0.95423005507E+03  0.00000000000E+00 0. -1.
          1    1    1    2  502    0  0.11412923601E+03 -0.19132402370E+03  0.10530861873E+04  0.10763925318E+04  0.00000000000E+00 0. -1.
         22    1    3    3    0    0 -0.22203122617E+03  0.29351784166E+03  0.91022080347E+03  0.98181082691E+03  0.00000000000E+00 0. -1.
         22    1    3    3    0    0  0.13332484474E+02  0.56494686624E+02  0.15666732165E+03  0.16707499643E+03  0.00000000000E+00 0. -1.
</event>
<event>
 7    1  0.5213103E-005  0.1738642E+03  0.7818608E-02  0.1197596E+00
          2   -1    0    0  502    0  0.00000000000E+00  0.00000000000E+00  0.72588175575E+03  0.72588175575E+03  0.00000000000E+00 0. -1.
          1   -1    0    0  501    0 -0.00000000000E+00 -0.00000000000E+00 -0.11292556263E+04  0.11292556263E+04  0.00000000000E+00 0. -1.
         25    2    1    2    0    0 -0.26437865248E+03 -0.12113802942E+03  0.24333189581E+01  0.31654648001E+03  0.12500103562E+03 0.  0.
          2    1    1    2  501    0  0.13176848570E+03  0.10553459627E+03 -0.95683602434E+03  0.97161497638E+03  0.00000000000E+00 0. -1.
          1    1    1    2  502    0  0.13261016679E+03  0.15603433146E+02  0.55102883483E+03  0.56697592566E+03  0.00000000000E+00 0. -1.
         22    1    3    3    0    0 -0.15596129371E+03 -0.13594683894E+03  0.71818600585E+01  0.20701943693E+03  0.00000000000E+00 0.  1.
         22    1    3    3    0    0 -0.10841735878E+03  0.14808809525E+02 -0.47485411004E+01  0.10952704308E+03  0.00000000000E+00 0.  1.
</event>
<event>
 7    1  0.5213103E-005  0.1798120E+03  0.7818608E-02  0.1230235E+00
          2   -1    0    0  502    0  0.00000000000E+00  0.00000000000E+00  0.18138187039E+03  0.18138187039E+03  0.00000000000E+00 0. -1.
          1   -1    0    0  501    0 -0.00000000000E+00 -0.00000000000E+00 -0.44002195885E+03  0.44002195885E+03  0.00000000000E+00 0. -1.
         25    2    1    2    0    0 -0.56592751516E+02 -0.22830075257E+03 -0.97990499414E+02  0.28381504260E+03  0.12499946913E+03 0.  0.
          2    1    1    2  501    0 -0.74105172198E+01  0.16315774815E+03 -0.18123854157E+03  0.24397289911E+03  0.00000000000E+00 0. -1.
          1    1    1    2  502    0  0.64003268735E+02  0.65143004417E+02  0.20588952526E+02  0.93615887537E+02  0.00000000000E+00 0. -1.
         22    1    3    3    0    0 -0.11600567179E+02  0.47358064680E+00 -0.42621084135E+02  0.44174135536E+02  0.00000000000E+00 0. -1.
         22    1    3    3    0    0 -0.44992184336E+02 -0.22877433322E+03 -0.55369415278E+02  0.23964090706E+03  0.00000000000E+00 0. -1.
</event>
<event>
 7    1  0.5213103E-005  0.2064880E+03  0.7818608E-02  0.1341314E+00
          2   -1    0    0  502    0  0.00000000000E+00  0.00000000000E+00  0.28512021265E+03  0.28512021265E+03  0.00000000000E+00 0. -1.
          1   -1    0    0  501    0 -0.00000000000E+00 -0.00000000000E+00 -0.11691930629E+04  0.11691930629E+04  0.00000000000E+00 0. -1.
         25    2    1    2    0    0 -0.37432039473E+01  0.23082324532E+03 -0.25895045082E+03  0.36874602739E+03  0.12499965832E+03 0.  0.
          2    1    1    2  501    0  0.97352120628E+00 -0.27832056132E+02 -0.81030549939E+03  0.81078392524E+03  0.00000000000E+00 0. -1.
          1    1    1    2  502    0  0.27696827410E+01 -0.20299118919E+03  0.18518309998E+03  0.27478332291E+03  0.00000000000E+00 0. -1.
         22    1    3    3    0    0  0.24025040144E+02  0.21257563013E+03 -0.25846639236E+03  0.33551524117E+03  0.00000000000E+00 0. -1.
         22    1    3    3    0    0 -0.27768244092E+02  0.18247615192E+02 -0.48405846054E+00  0.33230786219E+02  0.00000000000E+00 0. -1.
</event>
<event>
 7    1  0.5213103E-005  0.4476882E+03  0.7818608E-02  0.1156194E+00
          2   -1    0    0  502    0  0.00000000000E+00  0.00000000000E+00  0.18182435669E+04  0.18182435669E+04  0.00000000000E+00 0. -1.
          1   -1    0    0  501    0 -0.00000000000E+00 -0.00000000000E+00 -0.46685584476E+03  0.46685584476E+03  0.00000000000E+00 0. -1.
         25    2    1    2    0    0 -0.44476897808E+03  0.16884301673E+03  0.11518835180E+04  0.12525128453E+04  0.12500152172E+03 0.  0.
          2    1    1    2  501    0  0.80183811262E+02  0.20660933603E+02 -0.34253984631E+03  0.35240582299E+03  0.00000000000E+00 0. -1.
          1    1    1    2  502    0  0.36458516681E+03 -0.18950395033E+03  0.54204405050E+03  0.68018074343E+03  0.00000000000E+00 0. -1.
         22    1    3    3    0    0 -0.14021051983E+03  0.95053894759E+02  0.29569009548E+03  0.34077392116E+03  0.00000000000E+00 0.  1.
         22    1    3    3    0    0 -0.30455845825E+03  0.73789121968E+02  0.85619342252E+03  0.91173892413E+03  0.00000000000E+00 0.  1.
</event>
<event>
 7    1  0.5213103E-005  0.4970314E+03  0.7818608E-02  0.1114121E+00
          2   -1    0    0  502    0  0.00000000000E+00  0.00000000000E+00  0.72110418174E+03  0.72110418174E+03  0.00000000000E+00 0. -1.
          1   -1    0    0  501    0 -0.00000000000E+00 -0.00000000000E+00 -0.25698453627E+04  0.25698453627E+04  0.00000000000E+00 0. -1.
         25    2    1    2    0    0 -0.46623611551E+03 -0.33205652799E+03 -0.42638150967E+03  0.72461331462E+03  0.12500244298E+03 0.  0.
          2    1    1    2  501    0  0.43461418852E+03  0.21168521506E+03 -0.19578107116E+04  0.20166117389E+04  0.00000000000E+00 0. -1.
          1    1    1    2  502    0  0.31621926986E+02  0.12037131294E+03  0.53545104034E+03  0.54972449085E+03  0.00000000000E+00 0. -1.
         22    1    3    3    0    0 -0.20571426548E+03 -0.18381325845E+03 -0.27213326360E+03  0.38750765949E+03  0.00000000000E+00 0. -1.
         22    1    3    3    0    0 -0.26052185003E+03 -0.14824326954E+03 -0.15424824607E+03  0.33710565513E+03  0.00000000000E+00 0. -1.
</event>
<event>
 7    1  0.5213103E-005  0.2296368E+03  0.7818608E-02  0.1148749E+00
          2   -1    0    0  502    0  0.00000000000E+00  0.00000000000E+00  0.10796411511E+04  0.10796411511E+04  0.00000000000E+00 0. -1.
          1   -1    0    0  501    0 -0.00000000000E+00 -0.00000000000E+00 -0.36777445130E+03  0.36777445130E+03  0.00000000000E+00 0. -1.
         25    2    1    2    0    0 -0.20979781652E+02 -0.21710727539E+03  0.46801634475E+03  0.53126277520E+03  0.12500046839E+03 0.  0.
          2    1    1    2  501    0  0.18331902951E+03  0.14848710354E+03 -0.27843083187E+03  0.36493563081E+03  0.00000000000E+00 0. -1.
          1    1    1    2  502    0 -0.16233924786E+03  0.68620171848E+02  0.52228118696E+03  0.55121719642E+03  0.00000000000E+00 0. -1.
         22    1    3    3    0    0 -0.32283383856E+02 -0.20691122973E+03  0.31978880332E+03  0.38225561158E+03  0.00000000000E+00 0. -1.
         22    1    3    3    0    0  0.11303602203E+02 -0.10196045659E+02  0.14822754144E+03  0.14900716362E+03  0.00000000000E+00 0. -1.
</event>
<event>
 7    1  0.5213103E-005  0.2821859E+03  0.7818608E-02  0.1194277E+00
          2   -1    0    0  502    0  0.00000000000E+00  0.00000000000E+00  0.52892801808E+03  0.52892801808E+03  0.00000000000E+00 0. -1.
          1   -1    0    0  501    0 -0.00000000000E+00 -0.00000000000E+00 -0.14033142721E+04  0.14033142721E+04  0.00000000000E+00 0. -1.
         25    2    1    2    0    0 -0.33527221345E+03  0.89266014247E+02 -0.24587130091E+03  0.44321935511E+03  0.12495928028E+03 0.  0.
          2    1    1    2  501    0  0.83180929520E+02  0.18939277349E+02 -0.10130641095E+04  0.10166497200E+04  0.00000000000E+00 0. -1.
          1    1    1    2  502    0  0.25209128393E+03 -0.10820529160E+03  0.38454915642E+03  0.47237321502E+03  0.00000000000E+00 0. -1.
         22    1    3    3    0    0 -0.24385607359E+03  0.93646703685E+02 -0.11967181647E+03  0.28732704954E+03  0.00000000000E+00 0.  1.
         22    1    3    3    0    0 -0.91416139858E+02 -0.43806894372E+01 -0.12619948444E+03  0.15589230558E+03  0.00000000000E+00 0.  1.
</event>
<event>
 7    1  0.5213103E-005  0.4500888E+03  0.7818608E-02  0.1186347E+00
          2   -1    0    0  502    0  0.00000000000E+00  0.00000000000E+00  0.10784433339E+03  0.10784433339E+03  0.00000000000E+00 0. -1.
          1   -1    0    0  501    0 -0.00000000000E+00 -0.00000000000E+00 -0.27144707587E+04  0.27144707587E+04  0.00000000000E+00 0. -1.
         25    2    1    2    0    0  0.19287509176E+02 -0.46796150150E+03 -0.11613096293E+04  0.12584218820E+04  0.12500241312E+03 0.  0.
          2    1    1    2  501    0 -0.49887835009E+02  0.30321301632E+02 -0.67413262654E+03  0.67665572899E+03  0.00000000000E+00 0. -1.
          1    1    1    2  502    0  0.30600325833E+02  0.43764019986E+03 -0.77118416952E+03  0.88723748106E+03  0.00000000000E+00 0. -1.
         22    1    3    3    0    0  0.70068080215E+02 -0.33133692733E+03 -0.79020561565E+03  0.85972007670E+03  0.00000000000E+00 0.  1.
         22    1    3    3    0    0 -0.50780571039E+02 -0.13662457417E+03 -0.37110401360E+03  0.39870180533E+03  0.00000000000E+00 0.  1.
</event>
<event>
 7    1  0.5213103E-005  0.2454224E+03  0.7818608E-02  0.1139476E+00
          2   -1    0    0  502    0  0.00000000000E+00  0.00000000000E+00  0.18007152267E+04  0.18007152267E+04  0.00000000000E+00 0. -1.
          1   -1    0    0  501    0 -0.00000000000E+00 -0.00000000000E+00 -0.23952228104E+03  0.23952228104E+03  0.00000000000E+00 0. -1.
         25    2    1    2    0    0 -0.35496129060E+03  0.13864740698E+03  0.13263949763E+03  0.42241145163E+03  0.12497030385E+03 0.  0.
          2    1    1    2  501    0  0.11712077128E+03 -0.14226517272E+03  0.15536003437E+02  0.18492707167E+03  0.00000000000E+00 0. -1.
          1    1    1    2  502    0  0.23784051933E+03  0.36177657374E+01  0.14130174446E+04  0.14328989845E+04  0.00000000000E+00 0. -1.
         22    1    3    3    0    0 -0.22260794511E+03  0.11121270891E+03  0.14272733492E+03  0.28686870861E+03  0.00000000000E+00 0.  1.
         22    1    3    3    0    0 -0.13235334550E+03  0.27434698070E+02 -0.10087837293E+02  0.13554274302E+03  0.00000000000E+00 0.  1.
</event>
<event>
 7    1  0.5213103E-005  0.9115431E+03  0.7818608E-02  0.1128543E+00
          2   -1    0    0  502    0  0.00000000000E+00  0.00000000000E+00  0.38024038580E+04  0.38024038580E+04  0.00000000000E+00 0. -1.
          1   -1    0    0  501    0 -0.00000000000E+00 -0.00000000000E+00 -0.13159552201E+04  0.13159552201E+04  0.00000000000E+00 0. -1.
         25    2    1    2    0    0 -0.40487573227E+03  0.78831295586E+03 -0.38317581636E+03  0.97355571485E+03  0.12500139484E+03 0.  0.
          2    1    1    2  501    0  0.41833784359E+03 -0.84337841387E+03 -0.28967915747E+03  0.98499122567E+03  0.00000000000E+00 0. -1.
          1    1    1    2  502    0 -0.13462111324E+02  0.55065458016E+02  0.31593036118E+04  0.31598121375E+04  0.00000000000E+00 0. -1.
         22    1    3    3    0    0 -0.27519470327E+03  0.63024525196E+03 -0.26224234320E+03  0.73601103856E+03  0.00000000000E+00 0. -1.
         22    1    3    3    0    0 -0.12968102900E+03  0.15806770390E+03 -0.12093347316E+03  0.23754467628E+03  0.00000000000E+00 0. -1.
</event>
<event>
 7    1  0.5213103E-005  0.3533008E+03  0.7818608E-02  0.1180599E+00
          2   -1    0    0  502    0  0.00000000000E+00  0.00000000000E+00  0.10708382599E+04  0.10708382599E+04  0.00000000000E+00 0. -1.
          1   -1    0    0  501    0 -0.00000000000E+00 -0.00000000000E+00 -0.14836125864E+04  0.14836125864E+04  0.00000000000E+00 0. -1.
         25    2    1    2    0    0 -0.37175869045E+03 -0.18510668825E+03 -0.23498242169E+03  0.49326441313E+03  0.12499613114E+03 0.  0.
          2    1    1    2  501    0  0.45011806444E+02  0.65294444832E+02 -0.10858392750E+04  0.10887315364E+04  0.00000000000E+00 0. -1.
          1    1    1    2  502    0  0.32674688400E+03  0.11981224341E+03  0.90804737011E+03  0.97245489676E+03  0.00000000000E+00 0. -1.
         22    1    3    3    0    0 -0.79427657160E+02  0.12904193706E+02 -0.48666825092E+02  0.94041112295E+02  0.00000000000E+00 0.  1.
         22    1    3    3    0    0 -0.29233103329E+03 -0.19801088195E+03 -0.18631559660E+03  0.39922330084E+03  0.00000000000E+00 0.  1.
</event>
<event>
 7    1  0.5213103E-005  0.1792811E+03  0.7818608E-02  0.1330238E+00
          2   -1    0    0  502    0  0.00000000000E+00  0.00000000000E+00  0.58702403600E+03  0.58702403600E+03  0.00000000000E+00 0. -1.
          1   -1    0    0  501    0 -0.00000000000E+00 -0.00000000000E+00 -0.16883283429E+03  0.16883283429E+03  0.00000000000E+00 0. -1.
         25    2    1    2    0    0  0.16858344622E+03 -0.15036232485E+02  0.30335345285E+03  0.36917891127E+03  0.12499313800E+03 0.  0.
          2    1    1    2  501    0  0.22724062603E+02  0.27048585503E+02 -0.95663946483E+02  0.10197842740E+03  0.00000000000E+00 0. -1.
          1    1    1    2  502    0 -0.19130750882E+03 -0.12012353018E+02  0.21050169535E+03  0.28469953161E+03  0.00000000000E+00 0. -1.
         22    1    3    3    0    0 -0.59511600570E+01  0.66400702544E+01 -0.77428214239E+01  0.11809238867E+02  0.00000000000E+00 0.  1.
         22    1    3    3    0    0  0.17453460628E+03 -0.21676302739E+02  0.31109627428E+03  0.35736967241E+03  0.00000000000E+00 0.  1.
</event>
<event>
 7    1  0.5213103E-005  0.4413423E+03  0.7818608E-02  0.1156817E+00
          2   -1    0    0  502    0  0.00000000000E+00  0.00000000000E+00  0.71560265712E+03  0.71560265712E+03  0.00000000000E+00 0. -1.
          1   -1    0    0  501    0 -0.00000000000E+00 -0.00000000000E+00 -0.13389412966E+04  0.13389412966E+04  0.00000000000E+00 0. -1.
         25    2    1    2    0    0  0.87954852386E+01 -0.50597585498E+03 -0.16920469906E+03  0.54803127391E+03  0.12497648024E+03 0.  0.
          2    1    1    2  501    0  0.19519113431E+02  0.81066258196E+02 -0.89189719250E+03  0.89578643437E+03  0.00000000000E+00 0. -1.
          1    1    1    2  502    0 -0.28314598670E+02  0.42490959679E+03  0.43776325211E+03  0.61072624542E+03  0.00000000000E+00 0. -1.
         22    1    3    3    0    0 -0.12111658932E+01 -0.48861712412E+03 -0.18505053712E+03  0.52248623158E+03  0.00000000000E+00 0.  1.
         22    1    3    3    0    0  0.10006651132E+02 -0.17358730862E+02  0.15845838052E+02  0.25545042329E+02  0.00000000000E+00 0.  1.
</event>
<event>
 7    1  0.5213103E-005  0.2025523E+03  0.7818608E-02  0.1343702E+00
          2   -1    0    0  502    0  0.00000000000E+00  0.00000000000E+00  0.15128112668E+04  0.15128112668E+04  0.00000000000E+00 0. -1.
          1   -1    0    0  501    0 -0.00000000000E+00 -0.00000000000E+00 -0.52824173072E+02  0.52824173072E+02  0.00000000000E+00 0. -1.
         25    2    1    2    0    0  0.67695142395E+02 -0.20465623933E+03  0.90764841975E+03  0.94123199383E+03  0.12500081494E+03 0.  0.
          2    1    1    2  501    0  0.29466855576E+01  0.27654422455E+02 -0.10843210091E+02  0.29850045932E+02  0.00000000000E+00 0. -1.
          1    1    1    2  502    0 -0.70641827953E+02  0.17700181688E+03  0.56318188403E+03  0.59455340007E+03  0.00000000000E+00 0. -1.
         22    1    3    3    0    0  0.19408787804E+02 -0.23586191729E+02  0.38124800992E+03  0.38246967795E+03  0.00000000000E+00 0. -1.
         22    1    3    3    0    0  0.48286354591E+02 -0.18107004760E+03  0.52640040984E+03  0.55876231589E+03  0.00000000000E+00 0. -1.
</event>
<event>
 7    1  0.5213103E-005  0.2602069E+03  0.7818608E-02  0.1258967E+00
          2   -1    0    0  502    0  0.00000000000E+00  0.00000000000E+00  0.74672492891E+03  0.74672492891E+03  0.00000000000E+00 0. -1.
          1   -1    0    0  501    0 -0.00000000000E+00 -0.00000000000E+00 -0.80505951483E+03  0.80505951483E+03  0.00000000000E+00 0. -1.
         25    2    1    2    0    0  0.23024117353E+03 -0.14924259958E+03  0.40932192446E+03  0.50838358208E+03  0.12500030867E+03 0.  0.
          2    1    1    2  501    0 -0.45224714775E+02 -0.13651583838E+02 -0.70181732656E+03  0.70340543105E+03  0.00000000000E+00 0. -1.
          1    1    1    2  502    0 -0.18501645876E+03  0.16289418342E+03  0.23416081618E+03  0.33999543061E+03  0.00000000000E+00 0. -1.
         22    1    3    3    0    0 -0.20482751505E+01 -0.46578418279E+02  0.49920699733E+02  0.68306813293E+02  0.00000000000E+00 0. -1.
         22    1    3    3    0    0  0.23228944868E+03 -0.10266418130E+03  0.35940122473E+03  0.44007676879E+03  0.00000000000E+00 0. -1.
</event>
<event>
 7    1  0.5213103E-005  0.5928591E+03  0.7818608E-02  0.1186920E+00
          2   -1    0    0  502    0  0.00000000000E+00  0.00000000000E+00  0.10894922545E+04  0.10894922545E+04  0.00000000000E+00 0. -1.
          1   -1    0    0  501    0 -0.00000000000E+00 -0.00000000000E+00 -0.20771592515E+04  0.20771592515E+04  0.00000000000E+00 0. -1.
         25    2    1    2    0    0 -0.51872240389E+02  0.57446099592E+03  0.22096537101E+03  0.63019624752E+03  0.12500180016E+03 0.  0.
          2    1    1    2  501    0  0.32883889781E+02  0.29294335031E+02 -0.17348082610E+04  0.17353671688E+04  0.00000000000E+00 0. -1.
          1    1    1    2  502    0  0.18988350608E+02 -0.60375533095E+03  0.52617589298E+03  0.80108808970E+03  0.00000000000E+00 0. -1.
         22    1    3    3    0    0 -0.67155821205E+02  0.46107927601E+03  0.12917619909E+03  0.48351886571E+03  0.00000000000E+00 0.  1.
         22    1    3    3    0    0  0.15283580815E+02  0.11338171991E+03  0.91789171914E+02  0.14667738181E+03  0.00000000000E+00 0.  1.
</event>
<event>
 7    1  0.5213103E-005  0.9666093E+03  0.7818608E-02  0.1081406E+00
          2   -1    0    0  502    0  0.00000000000E+00  0.00000000000E+00  0.43926491933E+04  0.43926491933E+04  0.00000000000E+00 0. -1.
          1   -1    0    0  501    0 -0.00000000000E+00 -0.00000000000E+00 -0.67574602054E+03  0.67574602054E+03  0.00000000000E+00 0. -1.
         25    2    1    2    0    0  0.24359691714E+03  0.94512637031E+03  0.11781671529E+04  0.15350263360E+04  0.12499879357E+03 0.  0.
          2    1    1    2  501    0 -0.14594372788E+03 -0.95351413876E+03 -0.27744625401E+02  0.96501738262E+03  0.00000000000E+00 0. -1.
          1    1    1    2  502    0 -0.97653189263E+02  0.83877684455E+01  0.25664806453E+04  0.25683514952E+04  0.00000000000E+00 0. -1.
         22    1    3    3    0    0  0.11912852486E+03  0.31478918497E+03  0.47955572758E+03  0.58588184155E+03  0.00000000000E+00 0.  1.
         22    1    3    3    0    0  0.12446839228E+03  0.63033718534E+03  0.69861142527E+03  0.94914449449E+03  0.00000000000E+00 0.  1.
</event>
<event>
 7    1  0.9498953E-005  0.5429020E+03  0.7818608E-02  0.1203566E+00
          2   -1    0    0  502    0  0.00000000000E+00  0.00000000000E+00  0.12055612561E+04  0.12055612561E+04  0.00000000000E+00 0. -1.
          1   -1    0    0  501    0 -0.00000000000E+00 -0.00000000000E+00 -0.11366376950E+04  0.11366376950E+04  0.00000000000E+00 0. -1.
         25    2    1    2    0    0  0.37358212860E+03 -0.39845653787E+03 -0.69998667800E+03  0.89662538972E+03  0.12499808289E+03 0.  0.
          2    1    1    2  501    0  0.25654950823E+02  0.30792819624E+02 -0.27025572838E+03  0.27321151689E+03  0.00000000000E+00 0. -1.
          1    1    1    2  502    0 -0.39923707943E+03  0.36766371825E+03  0.10391659675E+04  0.11723620445E+04  0.00000000000E+00 0. -1.
         22    1    3    3    0    0  0.61459396422E+02 -0.13985424395E+03 -0.15726094516E+03  0.21924295161E+03  0.00000000000E+00 0.  1.
         22    1    3    3    0    0  0.31212273218E+03 -0.25860229392E+03 -0.54272573284E+03  0.67738243810E+03  0.00000000000E+00 0.  1.
</event>
<event>
 7    1  0.5213103E-005  0.6439768E+03  0.7818608E-02  0.1080495E+00
          2   -1    0    0  502    0  0.00000000000E+00  0.00000000000E+00  0.23540151192E+04  0.23540151192E+04  0.00000000000E+00 0. -1.
          1   -1    0    0  501    0 -0.00000000000E+00 -0.00000000000E+00 -0.81601071322E+03  0.81601071322E+03  0.00000000000E+00 0. -1.
         25    2    1    2    0    0  0.77260708922E+02  0.74497023414E+03  0.43740212669E+03  0.87629474881E+03  0.12498799722E+03 0.  0.
          2    1    1    2  501    0 -0.77362172749E+02 -0.12726034105E+03 -0.52974775731E+03  0.55028427795E+03  0.00000000000E+00 0. -1.
          1    1    1    2  502    0  0.10146382660E+00 -0.61770989309E+03  0.16303500366E+04  0.17434468056E+04  0.00000000000E+00 0. -1.
         22    1    3    3    0    0  0.50789745797E+02  0.35908304049E+03  0.14145288964E+03  0.38926745077E+03  0.00000000000E+00 0. -1.
         22    1    3    3    0    0  0.26470963125E+02  0.38588719365E+03  0.29594923706E+03  0.48702729803E+03  0.00000000000E+00 0. -1.
</event>
<event>
 7    1  0.5213103E-005  0.3023144E+02  0.7818608E-02  0.1640437E+00
          2   -1    0    0  502    0  0.00000000000E+00  0.00000000000E+00  0.10749304905E+04  0.10749304905E+04  0.00000000000E+00 0. -1.
          1   -1    0    0  501    0 -0.00000000000E+00 -0.00000000000E+00 -0.37798652686E+03  0.37798652686E+03  0.00000000000E+00 0. -1.
         25    2    1    2    0    0 -0.28464544710E+02  0.37353607102E+02  0.56004719407E+02  0.14479043214E+03  0.12498887300E+03 0.  0.
          2    1    1    2  501    0  0.66508685008E+01 -0.29403636588E+02 -0.33277393587E+03  0.33413664913E+03  0.00000000000E+00 0. -1.
          1    1    1    2  502    0  0.21813676209E+02 -0.79499705139E+01  0.97371318013E+03  0.97398993612E+03  0.00000000000E+00 0. -1.
         22    1    3    3    0    0 -0.57518572871E+02 -0.58448317712E+01  0.70090737783E+02  0.90858460292E+02  0.00000000000E+00 0.  1.
         22    1    3    3    0    0  0.29054028162E+02  0.43198438873E+02 -0.14086018377E+02  0.53931971846E+02  0.00000000000E+00 0.  1.
</event>
<event>
 7    1  0.5213103E-005  0.5530120E+03  0.7818608E-02  0.1206855E+00
          2   -1    0    0  502    0  0.00000000000E+00  0.00000000000E+00  0.14090492969E+04  0.14090492969E+04  0.00000000000E+00 0. -1.
          1   -1    0    0  501    0 -0.00000000000E+00 -0.00000000000E+00 -0.77266066106E+03  0.77266066106E+03  0.00000000000E+00 0. -1.
         25    2    1    2    0    0  0.48508927326E+03 -0.29778938144E+03  0.52397689247E+03  0.78368794751E+03  0.12499958606E+03 0.  0.
          2    1    1    2  501    0 -0.11314420753E+02  0.36253752965E+02 -0.54511273640E+03  0.54643411873E+03  0.00000000000E+00 0. -1.
          1    1    1    2  502    0 -0.47377485250E+03  0.26153562847E+03  0.65752447983E+03  0.85158789176E+03  0.00000000000E+00 0. -1.
         22    1    3    3    0    0  0.26370389841E+03 -0.14214798990E+03  0.19388546129E+03  0.35684362005E+03  0.00000000000E+00 0.  1.
         22    1    3    3    0    0  0.22138537485E+03 -0.15564139154E+03  0.33009143117E+03  0.42684432747E+03  0.00000000000E+00 0.  1.
</event>
<event>
 7    1  0.5213103E-005  0.7280337E+03  0.7818608E-02  0.1138042E+00
          2   -1    0    0  502    0  0.00000000000E+00  0.00000000000E+00  0.24564986434E+04  0.24564986434E+04  0.00000000000E+00 0. -1.
          1   -1    0    0  501    0 -0.00000000000E+00 -0.00000000000E+00 -0.23549674594E+04  0.23549674594E+04  0.00000000000E+00 0. -1.
         25    2    1    2    0    0  0.11105680926E+03  0.68112179978E+03  0.73905265065E+03  0.10188653021E+04  0.12500864878E+03 0.  0.
          2    1    1    2  501    0  0.21173899634E+02  0.59553059987E+02 -0.21248545064E+04  0.21257943396E+04  0.00000000000E+00 0. -1.
          1    1    1    2  502    0 -0.13223070889E+03 -0.74067485977E+03  0.14873330397E+04  0.16668064612E+04  0.00000000000E+00 0. -1.
         22    1    3    3    0    0  0.25096580440E+02  0.43323153255E+03  0.40030407498E+03  0.59039203212E+03  0.00000000000E+00 0.  1.
         22    1    3    3    0    0  0.85960228819E+02  0.24789026723E+03  0.33874857567E+03  0.42847326993E+03  0.00000000000E+00 0.  1.
</event>
<event>
 7    1  0.5213103E-005  0.5619055E+03  0.7818608E-02  0.1166868E+00
          2   -1    0    0  502    0  0.00000000000E+00  0.00000000000E+00  0.11156859871E+04  0.11156859871E+04  0.00000000000E+00 0. -1.
          1   -1    0    0  501    0 -0.00000000000E+00 -0.00000000000E+00 -0.13291602364E+04  0.13291602364E+04  0.00000000000E+00 0. -1.
         25    2    1    2    0    0 -0.20672866112E+03  0.54973371564E+03 -0.44294125436E+03  0.74616758123E+03  0.12500082811E+03 0.  0.
          2    1    1    2  501    0  0.22810745267E+03 -0.49551219321E+03 -0.63221846492E+03  0.83502426969E+03  0.00000000000E+00 0. -1.
          1    1    1    2  502    0 -0.21378791554E+02 -0.54221522432E+02  0.86168546993E+03  0.86365437260E+03  0.00000000000E+00 0. -1.
         22    1    3    3    0    0 -0.10934727769E+03  0.43696787635E+03 -0.31349483257E+03  0.54879573809E+03  0.00000000000E+00 0.  1.
         22    1    3    3    0    0 -0.97381383433E+02  0.11276583929E+03 -0.12944642180E+03  0.19737184314E+03  0.00000000000E+00 0.  1.
</event>
<event>
 7    1  0.5213103E-005  0.2568236E+03  0.7818608E-02  0.1336314E+00
          2   -1    0    0  502    0  0.00000000000E+00  0.00000000000E+00  0.45894959020E+03  0.45894959020E+03  0.00000000000E+00 0. -1.
          1   -1    0    0  501    0 -0.00000000000E+00 -0.00000000000E+00 -0.33271063217E+03  0.33271063217E+03  0.00000000000E+00 0. -1.
         25    2    1    2    0    0  0.21241724481E+03 -0.14442485783E+03 -0.19009883365E+03  0.34313649028E+03  0.12500183581E+03 0.  0.
          2    1    1    2  501    0 -0.22521125884E+03  0.12485170887E+03  0.18992929761E+03  0.31997062117E+03  0.00000000000E+00 0. -1.
          1    1    1    2  502    0  0.12794014031E+02  0.19573148957E+02  0.12640849407E+03  0.12855311093E+03  0.00000000000E+00 0. -1.
         22    1    3    3    0    0  0.63255196261E+02  0.15116219387E+02 -0.62425720840E+02  0.90148158966E+02  0.00000000000E+00 0. -1.
         22    1    3    3    0    0  0.14916204855E+03 -0.15954107722E+03 -0.12767311281E+03  0.25298833132E+03  0.00000000000E+00 0. -1.
</event>
<event>
 7    1  0.5213103E-005  0.4853285E+03  0.7818608E-02  0.1201958E+00
          2   -1    0    0  502    0  0.00000000000E+00  0.00000000000E+00  0.10792879034E+04  0.10792879034E+04  0.00000000000E+00 0. -1.
          1   -1    0    0  501    0 -0.00000000000E+00 -0.00000000000E+00 -0.16589182967E+04  0.16589182967E+04  0.00000000000E+00 0. -1.
         25    2    1    2    0    0 -0.23682310550E+03  0.45535714870E+03  0.17232651610E+03  0.55565901097E+03  0.12500076860E+03 0.  0.
          2    1    1    2  501    0 -0.15225724755E+01 -0.45594898099E+02 -0.13882973849E+04  0.13890467386E+04  0.00000000000E+00 0. -1.
          1    1    1    2  502    0  0.23834567797E+03 -0.40976225060E+03  0.63634047557E+03  0.79350045059E+03  0.00000000000E+00 0. -1.
         22    1    3    3    0    0 -0.20822309987E+03  0.27483218757E+03  0.12598636983E+03  0.36709965408E+03  0.00000000000E+00 0. -1.
         22    1    3    3    0    0 -0.28600005629E+02  0.18052496114E+03  0.46340146262E+02  0.18855935689E+03  0.00000000000E+00 0. -1.
</event>
<event>
 7    1  0.5213103E-005  0.2065108E+03  0.7818608E-02  0.1177805E+00
          2   -1    0    0  502    0  0.00000000000E+00  0.00000000000E+00  0.10052365935E+03  0.10052365935E+03  0.00000000000E+00 0. -1.
          1   -1    0    0  501    0 -0.00000000000E+00 -0.00000000000E+00 -0.28788291413E+04  0.28788291413E+04  0.00000000000E+00 0. -1.
         25    2    1    2    0    0  0.11643847412E+03  0.21265632605E+03 -0.61915393290E+03  0.67657779180E+03  0.12500113785E+03 0.  0.
          2    1    1    2  501    0 -0.18567189049E+03 -0.90959543094E+02 -0.21527087854E+04  0.21626148072E+04  0.00000000000E+00 0. -1.
          1    1    1    2  502    0  0.69233416367E+02 -0.12169678296E+03 -0.64427636150E+01  0.14016020165E+03  0.00000000000E+00 0. -1.
         22    1    3    3    0    0 -0.19788956359E+02  0.84264513494E+01 -0.21243690287E+02  0.30230816283E+02  0.00000000000E+00 0.  1.
         22    1    3    3    0    0  0.13622743048E+03  0.20422987470E+03 -0.59791024262E+03  0.64634697552E+03  0.00000000000E+00 0.  1.
</event>
<event>
 7    1  0.5213103E-005  0.1993359E+03  0.7818608E-02  0.1162473E+00
          2   -1    0    0  502    0  0.00000000000E+00  0.00000000000E+00  0.21834046723E+04  0.21834046723E+04  0.00000000000E+00 0. -1.
          1   -1    0    0  501    0 -0.00000000000E+00 -0.00000000000E+00 -0.17127368469E+03  0.17127368469E+03  0.00000000000E+00 0. -1.
         25    2    1    2    0    0 -0.12212650061E+03  0.33507898863E+03  0.53007559551E+03  0.65099750926E+03  0.12499923732E+03 0.  0.
          2    1    1    2  501    0  0.71666872845E+02 -0.15728826345E+03 -0.34205740542E+02  0.17619810205E+03  0.00000000000E+00 0. -1.
          1    1    1    2  502    0  0.50459627766E+02 -0.17779072518E+03  0.15162611326E+04  0.15274827456E+04  0.00000000000E+00 0. -1.
         22    1    3    3    0    0 -0.62634404762E+02  0.29825835809E+03  0.46135531393E+03  0.55292842442E+03  0.00000000000E+00 0. -1.
         22    1    3    3    0    0 -0.59492095848E+02  0.36820630532E+02  0.68720281581E+02  0.98069084842E+02  0.00000000000E+00 0. -1.
</event>
<event>
 7    1  0.5213103E-005  0.1242609E+03  0.7818608E-02  0.1257115E+00
          2   -1    0    0  502    0  0.00000000000E+00  0.00000000000E+00  0.69268589541E+03  0.69268589541E+03  0.00000000000E+00 0. -1.
          1   -1    0    0  501    0 -0.00000000000E+00 -0.00000000000E+00 -0.28641807218E+03  0.28641807218E+03  0.00000000000E+00 0. -1.
         25    2    1    2    0    0 -0.15145957022E+03  0.22092783666E+02 -0.20332127130E+03  0.28353542738E+03  0.12499882685E+03 0.  0.
          2    1    1    2  501    0  0.70238365448E+02  0.72223425130E+02  0.33473737920E+02  0.10616092619E+03  0.00000000000E+00 0. -1.
          1    1    1    2  502    0  0.81221204776E+02 -0.94316208796E+02  0.57611535661E+03  0.58940761403E+03  0.00000000000E+00 0. -1.
         22    1    3    3    0    0 -0.13563708960E+03 -0.24688346475E+02 -0.10427038662E+03  0.17285614844E+03  0.00000000000E+00 0. -1.
         22    1    3    3    0    0 -0.15822480620E+02  0.46781130141E+02 -0.99050884681E+02  0.11067927894E+03  0.00000000000E+00 0. -1.
</event>
<event>
 7    1  0.5213103E-005  0.3503440E+03  0.7818608E-02  0.1163484E+00
          2   -1    0    0  502    0  0.00000000000E+00  0.00000000000E+00  0.33696373727E+04  0.33696373727E+04  0.00000000000E+00 0. -1.
          1   -1    0    0  501    0 -0.00000000000E+00 -0.00000000000E+00 -0.20807695337E+03  0.20807695337E+03  0.00000000000E+00 0. -1.
         25    2    1    2    0    0 -0.14882176599E+03 -0.28845006119E+03  0.56721837378E+03  0.66536734450E+03  0.12500265492E+03 0.  0.
          2    1    1    2  501    0  0.74406657765E+02 -0.62542200714E+02 -0.13120410395E+03  0.16328623482E+03  0.00000000000E+00 0. -1.
          1    1    1    2  502    0  0.74415108222E+02  0.35099226191E+03  0.27255461495E+04  0.27490607468E+04  0.00000000000E+00 0. -1.
         22    1    3    3    0    0 -0.35216945420E+02 -0.19886528819E+03  0.35717469859E+03  0.41031865836E+03  0.00000000000E+00 0. -1.
         22    1    3    3    0    0 -0.11360482057E+03 -0.89584773010E+02  0.21004367520E+03  0.25504868614E+03  0.00000000000E+00 0. -1.
</event>
<event>
 7    1  0.5213103E-005  0.6164940E+03  0.7818608E-02  0.1111839E+00
          2   -1    0    0  502    0  0.00000000000E+00  0.00000000000E+00  0.14564746121E+04  0.14564746121E+04  0.00000000000E+00 0. -1.
          1   -1    0    0  501    0 -0.00000000000E+00 -0.00000000000E+00 -0.19549802660E+04  0.19549802660E+04  0.00000000000E+00 0. -1.
         25    2    1    2    0    0  0.14553705378E+03  0.61841146176E+03  0.38101779123E+03  0.75127393344E+03  0.12499678306E+03 0.  0.
          2    1    1    2  501    0 -0.10268105286E+03 -0.11115203117E+02 -0.16639881941E+04  0.16671903480E+04  0.00000000000E+00 0. -1.
          1    1    1    2  502    0 -0.42856000922E+02 -0.60729625864E+03  0.78446474902E+03  0.99299059665E+03  0.00000000000E+00 0. -1.
         22    1    3    3    0    0  0.29142061443E+02  0.10294842784E+03  0.14051698781E+02  0.10791241253E+03  0.00000000000E+00 0.  1.
         22    1    3    3    0    0  0.11639499234E+03  0.51546303392E+03  0.36696609245E+03  0.64336152091E+03  0.00000000000E+00 0.  1.
</event>
<event>
 7    1  0.5213103E-005  0.1467432E+03  0.7818608E-02  0.1301204E+00
          2   -1    0    0  502    0  0.00000000000E+00  0.00000000000E+00  0.28707477340E+03  0.28707477340E+03  0.00000000000E+00 0. -1.
          1   -1    0    0  501    0 -0.00000000000E+00 -0.00000000000E+00 -0.31317767597E+03  0.31317767597E+03  0.00000000000E+00 0. -1.
         25    2    1    2    0    0 -0.17949937976E+03  0.31813392868E+02 -0.11852165616E+03  0.25080880809E+03  0.12500222372E+03 0.  0.
          2    1    1    2  501    0  0.12369228438E+03 -0.36924177374E+02 -0.90815589649E+02  0.15783107240E+03  0.00000000000E+00 0. -1.
          1    1    1    2  502    0  0.55807095381E+02  0.51107845059E+01  0.18323434324E+03  0.19161256889E+03  0.00000000000E+00 0. -1.
         22    1    3    3    0    0 -0.65222601637E+02  0.26741478691E+01  0.20577741872E+02  0.68444008443E+02  0.00000000000E+00 0.  1.
         22    1    3    3    0    0 -0.11427677812E+03  0.29139244999E+02 -0.13909939803E+03  0.18236479965E+03  0.00000000000E+00 0.  1.
</event>
<event>
 7    1  0.5213103E-005  0.1024327E+03  0.7818608E-02  0.1403753E+00
          2   -1    0    0  502    0  0.00000000000E+00  0.00000000000E+00  0.11155675971E+04  0.11155675971E+04  0.00000000000E+00 0. -1.
          1   -1    0    0  501    0 -0.00000000000E+00 -0.00000000000E+00 -0.50285372071E+03  0.50285372071E+03  0.00000000000E+00 0. -1.
         25    2    1    2    0    0  0.67579029352E+02 -0.42612095296E+02 -0.51306949293E+02  0.15696974851E+03  0.12499753208E+03 0.  0.
          2    1    1    2  501    0 -0.73905079914E+02  0.75547194051E+02 -0.39144101952E+03  0.40545703980E+03  0.00000000000E+00 0. -1.
          1    1    1    2  502    0  0.63260505615E+01 -0.32935098756E+02  0.10554618452E+04  0.10559945295E+04  0.00000000000E+00 0. -1.
         22    1    3    3    0    0  0.49834240654E+01 -0.26903835600E+02 -0.81317072930E+02  0.85796953532E+02  0.00000000000E+00 0.  1.
         22    1    3    3    0    0  0.62595605287E+02 -0.15708259695E+02  0.30010123638E+02  0.71172794976E+02  0.00000000000E+00 0.  1.
</event>
<event>
 7    1  0.5213103E-005  0.1127828E+03  0.7818608E-02  0.1398239E+00
          2   -1    0    0  502    0  0.00000000000E+00  0.00000000000E+00  0.59925744683E+03  0.59925744683E+03  0.00000000000E+00 0. -1.
          1   -1    0    0  501    0 -0.00000000000E+00 -0.00000000000E+00 -0.96882532380E+03  0.96882532380E+03  0.00000000000E+00 0. -1.
         25    2    1    2    0    0  0.11154399378E+03 -0.26773393430E+02 -0.47993899361E+03  0.50904529868E+03  0.12500720530E+03 0.  0.
          2    1    1    2  501    0 -0.13403477497E+02 -0.28855693774E+02 -0.46834713340E+03  0.46942660942E+03  0.00000000000E+00 0. -1.
          1    1    1    2  502    0 -0.98140516283E+02  0.55629087204E+02  0.57871825004E+03  0.58961086253E+03  0.00000000000E+00 0. -1.
         22    1    3    3    0    0 -0.91570165412E+01  0.28216534632E+02 -0.15958380223E+03  0.16231763217E+03  0.00000000000E+00 0.  1.
         22    1    3    3    0    0  0.12070101032E+03 -0.54989928062E+02 -0.32035519138E+03  0.34672766651E+03  0.00000000000E+00 0.  1.
</event>
<event>
 7    1  0.5213103E-005  0.6473914E+03  0.7818608E-02  0.1157358E+00
          2   -1    0    0  502    0  0.00000000000E+00  0.00000000000E+00  0.17645471683E+04  0.17645471683E+04  0.00000000000E+00 0. -1.
          1   -1    0    0  501    0 -0.00000000000E+00 -0.00000000000E+00 -0.66753368813E+03  0.66753368813E+03  0.00000000000E+00 0. -1.
         25    2    1    2    0    0  0.63749402446E+03  0.22452587936E+03  0.77120917658E+02  0.69165244390E+03  0.12499986195E+03 0.  0.
          2    1    1    2  501    0 -0.58189873032E+03 -0.23451635557E+03 -0.85866514262E+02  0.63322753545E+03  0.00000000000E+00 0. -1.
          1    1    1    2  502    0 -0.55595294141E+02  0.99904762115E+01  0.11057590768E+04  0.11072008771E+04  0.00000000000E+00 0. -1.
         22    1    3    3    0    0  0.16176908641E+03  0.71356265112E+02  0.74520917491E+02  0.19187058408E+03  0.00000000000E+00 0.  1.
         22    1    3    3    0    0  0.47572493805E+03  0.15316961424E+03  0.26000001668E+01  0.49978185982E+03  0.00000000000E+00 0.  1.
</event>
<event>
 7    1  0.5950708E-005  0.3464527E+03  0.7818608E-02  0.1230416E+00
          2   -1    0    0  502    0  0.00000000000E+00  0.00000000000E+00  0.23440913441E+04  0.23440913441E+04  0.00000000000E+00 0. -1.
          1   -1    0    0  501    0 -0.00000000000E+00 -0.00000000000E+00 -0.11235315369E+04  0.11235315369E+04  0.00000000000E+00 0. -1.
         25    2    1    2    0    0  0.35987012652E+03  0.11109493326E+03 -0.35290435064E+03  0.53104756578E+03  0.12498577625E+03 0.  0.
          2    1    1    2  501    0 -0.32256847603E+03 -0.81995676636E+02 -0.64065514289E+03  0.72195063878E+03  0.00000000000E+00 0. -1.
          1    1    1    2  502    0 -0.37301650485E+02 -0.29099256626E+02  0.22141193007E+04  0.22146246765E+04  0.00000000000E+00 0. -1.
         22    1    3    3    0    0  0.28970496688E+02 -0.20419464462E+02 -0.10290777556E+02  0.36907239263E+02  0.00000000000E+00 0. -1.
         22    1    3    3    0    0  0.33089962983E+03  0.13151439772E+03 -0.34261357308E+03  0.49414032652E+03  0.00000000000E+00 0. -1.
</event>
<event>
 7    1  0.5213103E-005  0.4405272E+03  0.7818608E-02  0.1231391E+00
          2   -1    0    0  502    0  0.00000000000E+00  0.00000000000E+00  0.13417061034E+03  0.13417061034E+03  0.00000000000E+00 0. -1.
          1   -1    0    0  501    0 -0.00000000000E+00 -0.00000000000E+00 -0.21433382557E+04  0.21433382557E+04  0.00000000000E+00 0. -1.
         25    2    1    2    0    0 -0.30563922037E+03  0.29852662838E+03 -0.84282763838E+03  0.95316122511E+03  0.12499764862E+03 0.  0.
          2    1    1    2  501    0  0.45424126923E+01  0.36553199776E+02 -0.59796021536E+03  0.59909363966E+03  0.00000000000E+00 0. -1.
          1    1    1    2  502    0  0.30109680768E+03 -0.33507982816E+03 -0.56837979161E+03  0.72525400126E+03  0.00000000000E+00 0. -1.
         22    1    3    3    0    0 -0.27723257160E+03  0.20657639764E+03 -0.70299493781E+03  0.78341150707E+03  0.00000000000E+00 0.  1.
         22    1    3    3    0    0 -0.28406648772E+02  0.91950230747E+02 -0.13983270057E+03  0.16974971805E+03  0.00000000000E+00 0.  1.
</event>
<event>
 7    1  0.5213103E-005  0.5808459E+03  0.7818608E-02  0.1129598E+00
          2   -1    0    0  502    0  0.00000000000E+00  0.00000000000E+00  0.32387312088E+03  0.32387312088E+03  0.00000000000E+00 0. -1.
          1   -1    0    0  501    0 -0.00000000000E+00 -0.00000000000E+00 -0.17221626566E+04  0.17221626566E+04  0.00000000000E+00 0. -1.
         25    2    1    2    0    0 -0.60060817743E+03 -0.11591754688E+03 -0.10272966441E+04  0.12021355892E+04  0.12499807728E+03 0.  0.
          2    1    1    2  501    0  0.51834630639E+03  0.14664819403E+03 -0.46761234437E+03  0.71333715084E+03  0.00000000000E+00 0. -1.
          1    1    1    2  502    0  0.82261871040E+02 -0.30730647142E+02  0.96619452744E+02  0.13056303745E+03  0.00000000000E+00 0. -1.
         22    1    3    3    0    0 -0.46776024225E+03 -0.37097528627E+02 -0.74896795243E+03  0.88381494931E+03  0.00000000000E+00 0. -1.
         22    1    3    3    0    0 -0.13284793518E+03 -0.78820018256E+02 -0.27832869167E+03  0.31832063987E+03  0.00000000000E+00 0. -1.
</event>
<event>
 7    1  0.5213103E-005  0.3302356E+03  0.7818608E-02  0.1298129E+00
          2   -1    0    0  502    0  0.00000000000E+00  0.00000000000E+00  0.98990427127E+03  0.98990427127E+03  0.00000000000E+00 0. -1.
          1   -1    0    0  501    0 -0.00000000000E+00 -0.00000000000E+00 -0.65973544616E+03  0.65973544616E+03  0.00000000000E+00 0. -1.
         25    2    1    2    0    0 -0.34960831729E+03  0.37255329861E+02 -0.54319844350E+03  0.65901704786E+03  0.12499994096E+03 0.  0.
          2    1    1    2  501    0  0.21195784790E+02 -0.14389105774E+02 -0.23796591196E+02  0.34965488848E+02  0.00000000000E+00 0. -1.
          1    1    1    2  502    0  0.32841253250E+03 -0.22866224087E+02  0.89716385980E+03  0.95565718071E+03  0.00000000000E+00 0. -1.
         22    1    3    3    0    0 -0.21043116001E+02 -0.11360233156E+02 -0.11309162782E+03  0.11559231770E+03  0.00000000000E+00 0. -1.
         22    1    3    3    0    0 -0.32856520129E+03  0.48615563017E+02 -0.43010681568E+03  0.54342473017E+03  0.00000000000E+00 0. -1.
</event>
<event>
 7    1  0.5213103E-005  0.4123669E+03  0.7818608E-02  0.1110844E+00
          2   -1    0    0  502    0  0.00000000000E+00  0.00000000000E+00  0.13791187213E+04  0.13791187213E+04  0.00000000000E+00 0. -1.
          1   -1    0    0  501    0 -0.00000000000E+00 -0.00000000000E+00 -0.31233834224E+03  0.31233834224E+03  0.00000000000E+00 0. -1.
         25    2    1    2    0    0 -0.26879894032E+02 -0.47713426004E+03  0.92395246081E+03  0.10477081396E+04  0.12499826028E+03 0.  0.
          2    1    1    2  501    0 -0.40010719028E+02  0.15116588503E+03 -0.13782241580E+03  0.20843944140E+03  0.00000000000E+00 0. -1.
          1    1    1    2  502    0  0.66890613060E+02  0.32596837501E+03  0.28065033410E+03  0.43530948261E+03  0.00000000000E+00 0. -1.
         22    1    3    3    0    0  0.44166598437E+02 -0.18478874542E+03  0.41623144271E+03  0.45754364027E+03  0.00000000000E+00 0. -1.
         22    1    3    3    0    0 -0.71046492469E+02 -0.29234551462E+03  0.50772101810E+03  0.59016449930E+03  0.00000000000E+00 0. -1.
</event>
<event>
 7    1  0.5213103E-005  0.9333053E+02  0.7818608E-02  0.1325679E+00
          2   -1    0    0  502    0  0.00000000000E+00  0.00000000000E+00  0.18945198455E+03  0.18945198455E+03  0.00000000000E+00 0. -1.
          1   -1    0    0  501    0 -0.00000000000E+00 -0.00000000000E+00 -0.34014550584E+03  0.34014550584E+03  0.00000000000E+00 0. -1.
         25    2    1    2    0    0 -0.63236000320E+02  0.14166612436E+03 -0.70466244069E+02  0.21133132830E+03  0.12500942460E+03 0.  0.
          2    1    1    2  501    0  0.29151038301E+02 -0.79785559266E+02 -0.17823993178E+03  0.19744617439E+03  0.00000000000E+00 0. -1.
          1    1    1    2  502    0  0.34084962019E+02 -0.61880565097E+02  0.98012654565E+02  0.12081998770E+03  0.00000000000E+00 0. -1.
         22    1    3    3    0    0 -0.15891896019E+02  0.73504336353E+01  0.31594048734E+02  0.36121533039E+02  0.00000000000E+00 0.  1.
         22    1    3    3    0    0 -0.47344104301E+02  0.13431569073E+03 -0.10206029280E+03  0.17520979526E+03  0.00000000000E+00 0.  1.
</event>
<event>
 7    1  0.5213103E-005  0.8523865E+03  0.7818608E-02  0.1186746E+00
          2   -1    0    0  502    0  0.00000000000E+00  0.00000000000E+00  0.11419184897E+04  0.11419184897E+04  0.00000000000E+00 0. -1.
          1   -1    0    0  501    0 -0.00000000000E+00 -0.00000000000E+00 -0.72589593197E+03  0.72589593197E+03  0.00000000000E+00 0. -1.
         25    2    1    2    0    0 -0.83671370158E+03 -0.21506683789E+01  0.42240065369E+02  0.84705624166E+03  0.12500243848E+03 0.  0.
          2    1    1    2  501    0 -0.26079359432E+02  0.16179044544E+02 -0.50569404374E+02  0.59153690751E+02  0.00000000000E+00 0. -1.
          1    1    1    2  502    0  0.86279306101E+03 -0.14028376165E+02  0.42435189669E+03  0.96160448922E+03  0.00000000000E+00 0. -1.
         22    1    3    3    0    0 -0.81677941130E+03 -0.73098970624E+01  0.20438371612E+02  0.81706778687E+03  0.00000000000E+00 0.  1.
         22    1    3    3    0    0 -0.19934290282E+02  0.51592286835E+01  0.21801693757E+02  0.29988454784E+02  0.00000000000E+00 0.  1.
</event>
<event>
 7    1  0.5213103E-005  0.2233924E+03  0.7818608E-02  0.1278539E+00
          2   -1    0    0  502    0  0.00000000000E+00  0.00000000000E+00  0.22339588750E+03  0.22339588750E+03  0.00000000000E+00 0. -1.
          1   -1    0    0  501    0 -0.00000000000E+00 -0.00000000000E+00 -0.23108149594E+04  0.23108149594E+04  0.00000000000E+00 0. -1.
         25    2    1    2    0    0 -0.20145391775E+03  0.35671541501E+02 -0.16540311681E+03  0.29127146854E+03  0.12499894993E+03 0.  0.
          2    1    1    2  501    0 -0.15946822515E+02  0.42635070610E+02 -0.19988943588E+04  0.19994125907E+04  0.00000000000E+00 0. -1.
          1    1    1    2  502    0  0.21740074026E+03 -0.78306612111E+02  0.76878403649E+02  0.24352678767E+03  0.00000000000E+00 0. -1.
         22    1    3    3    0    0 -0.16273617776E+03  0.52021488316E+02 -0.17866014316E+03  0.24720183161E+03  0.00000000000E+00 0. -1.
         22    1    3    3    0    0 -0.38717739990E+02 -0.16349946815E+02  0.13257026355E+02  0.44069636923E+02  0.00000000000E+00 0. -1.
</event>
<event>
 7    1  0.5213103E-005  0.6207375E+03  0.7818608E-02  0.1051495E+00
          2   -1    0    0  502    0  0.00000000000E+00  0.00000000000E+00  0.23937564998E+04  0.23937564998E+04  0.00000000000E+00 0. -1.
          1   -1    0    0  501    0 -0.00000000000E+00 -0.00000000000E+00 -0.17112874026E+04  0.17112874026E+04  0.00000000000E+00 0. -1.
         25    2    1    2    0    0 -0.65247980614E+03  0.26171827758E+03  0.17842977761E+03  0.73599484170E+03  0.12499946892E+03 0.  0.
          2    1    1    2  501    0  0.61247472861E+03 -0.34436958125E+02 -0.13593854046E+04  0.14913885730E+04  0.00000000000E+00 0. -1.
          1    1    1    2  502    0  0.40005077534E+02 -0.22728131945E+03  0.18634247242E+04  0.18776604877E+04  0.00000000000E+00 0. -1.
         22    1    3    3    0    0 -0.95445088698E+02 -0.29849485268E+01  0.42187736297E+02  0.10439578520E+03  0.00000000000E+00 0.  1.
         22    1    3    3    0    0 -0.55703471744E+03  0.26470322610E+03  0.13624204132E+03  0.63159905650E+03  0.00000000000E+00 0.  1.
</event>
<event>
 7    1  0.5213103E-005  0.3878663E+03  0.7818608E-02  0.1178459E+00
          2   -1    0    0  502    0  0.00000000000E+00  0.00000000000E+00  0.74312955422E+03  0.74312955422E+03  0.00000000000E+00 0. -1.
          1   -1    0    0  501    0 -0.00000000000E+00 -0.00000000000E+00 -0.23150207155E+04  0.23150207155E+04  0.00000000000E+00 0. -1.
         25    2    1    2    0    0 -0.28091747022E+03 -0.27101372742E+03  0.46172333938E+03  0.61739521241E+03  0.12500136262E+03 0.  0.
          2    1    1    2  501    0 -0.43397969555E+02  0.59936834868E+02 -0.20520286318E+04  0.20533624409E+04  0.00000000000E+00 0. -1.
          1    1    1    2  502    0  0.32431543978E+03  0.21107689255E+03  0.18414131119E+02  0.38739261644E+03  0.00000000000E+00 0. -1.
         22    1    3    3    0    0 -0.97707691582E+02 -0.24191357893E+02  0.14001593077E+03  0.17244267355E+03  0.00000000000E+00 0.  1.
         22    1    3    3    0    0 -0.18320977864E+03 -0.24682236952E+03  0.32170740861E+03  0.44495253886E+03  0.00000000000E+00 0.  1.
</event>
<event>
 7    1  0.5213103E-005  0.1275334E+03  0.7818608E-02  0.1244482E+00
          2   -1    0    0  502    0  0.00000000000E+00  0.00000000000E+00  0.51538032470E+03  0.51538032470E+03  0.00000000000E+00 0. -1.
          1   -1    0    0  501    0 -0.00000000000E+00 -0.00000000000E+00 -0.25428965205E+03  0.25428965205E+03  0.00000000000E+00 0. -1.
         25    2    1    2    0    0 -0.59650378892E+02 -0.22161484407E+03  0.28423681855E+02  0.26288251881E+03  0.12501202419E+03 0.  0.
          2    1    1    2  501    0  0.21263527707E+02  0.10929526524E+03 -0.10242761445E+03  0.15129113925E+03  0.00000000000E+00 0. -1.
          1    1    1    2  502    0  0.38386851185E+02  0.11231957882E+03  0.33509460525E+03  0.35549631868E+03  0.00000000000E+00 0. -1.
         22    1    3    3    0    0 -0.20311671073E+02 -0.77450731541E+02  0.71516459541E+02  0.10735820315E+03  0.00000000000E+00 0. -1.
         22    1    3    3    0    0 -0.39338707819E+02 -0.14416411253E+03 -0.43092777686E+02  0.15552431566E+03  0.00000000000E+00 0. -1.
</event>
<event>
 7    1  0.5213103E-005  0.9974768E+02  0.7818608E-02  0.1376650E+00
          2   -1    0    0  502    0  0.00000000000E+00  0.00000000000E+00  0.27481282645E+03  0.27481282645E+03  0.00000000000E+00 0. -1.
          1   -1    0    0  501    0 -0.00000000000E+00 -0.00000000000E+00 -0.71156326401E+03  0.71156326401E+03  0.00000000000E+00 0. -1.
         25    2    1    2    0    0  0.16191871771E+02 -0.13529954094E+03  0.20734661059E+03  0.27782349540E+03  0.12500054075E+03 0.  0.
          2    1    1    2  501    0  0.65273170412E+01  0.99006568406E+02 -0.65651512810E+03  0.66397064685E+03  0.00000000000E+00 0. -1.
          1    1    1    2  502    0 -0.22719188812E+02  0.36292972531E+02  0.12418079958E+02  0.44581948199E+02  0.00000000000E+00 0. -1.
         22    1    3    3    0    0 -0.31131501802E+02  0.65827976887E+01  0.59740374088E+02  0.67686157566E+02  0.00000000000E+00 0.  1.
         22    1    3    3    0    0  0.47323373572E+02 -0.14188233863E+03  0.14760623650E+03  0.21013733784E+03  0.00000000000E+00 0.  1.
</event>
<event>
 7    1  0.5213103E-005  0.6838308E+03  0.7818608E-02  0.1207650E+00
          2   -1    0    0  502    0  0.00000000000E+00  0.00000000000E+00  0.19148862659E+04  0.19148862659E+04  0.00000000000E+00 0. -1.
          1   -1    0    0  501    0 -0.00000000000E+00 -0.00000000000E+00 -0.35775492259E+03  0.35775492259E+03  0.00000000000E+00 0. -1.
         25    2    1    2    0    0 -0.17707097158E+03 -0.67945179449E+03  0.11575635499E+04  0.13596276195E+04  0.12500008660E+03 0.  0.
          2    1    1    2  501    0  0.18757844775E+03  0.65086998082E+03  0.19314903289E+03  0.70436067103E+03  0.00000000000E+00 0. -1.
          1    1    1    2  502    0 -0.10507476171E+02  0.28581813670E+02  0.20641876051E+03  0.20865289794E+03  0.00000000000E+00 0. -1.
         22    1    3    3    0    0 -0.73280810537E+02 -0.43264146895E+03  0.62648777397E+03  0.76487623103E+03  0.00000000000E+00 0. -1.
         22    1    3    3    0    0 -0.10379016104E+03 -0.24681032553E+03  0.53107577590E+03  0.59475138846E+03  0.00000000000E+00 0. -1.
</event>
<event>
 7    1  0.5213103E-005  0.3605311E+02  0.7818608E-02  0.1588330E+00
          2   -1    0    0  502    0  0.00000000000E+00  0.00000000000E+00  0.10711770959E+04  0.10711770959E+04  0.00000000000E+00 0. -1.
          1   -1    0    0  501    0 -0.00000000000E+00 -0.00000000000E+00 -0.54651464996E+02  0.54651464996E+02  0.00000000000E+00 0. -1.
         25    2    1    2    0    0 -0.79721757115E+01  0.11691882219E+02  0.25515544758E+03  0.28448222420E+03  0.12500231101E+03 0.  0.
          2    1    1    2  501    0  0.34422021896E+02 -0.13083542354E+02 -0.31241838086E+02  0.48291894961E+02  0.00000000000E+00 0. -1.
          1    1    1    2  502    0 -0.26449846185E+02  0.13916601350E+01  0.79261202139E+03  0.79305444172E+03  0.00000000000E+00 0. -1.
         22    1    3    3    0    0 -0.31563893855E+02  0.38748369220E+02  0.24061716998E+03  0.24575259511E+03  0.00000000000E+00 0.  1.
         22    1    3    3    0    0  0.23591718143E+02 -0.27056487001E+02  0.14538277602E+02  0.38729629090E+02  0.00000000000E+00 0.  1.
</event>
<event>
 7    1  0.5213103E-005  0.2852170E+03  0.7818608E-02  0.1116750E+00
          2   -1    0    0  502    0  0.00000000000E+00  0.00000000000E+00  0.36262938889E+03  0.36262938889E+03  0.00000000000E+00 0. -1.
          1   -1    0    0  501    0 -0.00000000000E+00 -0.00000000000E+00 -0.65168648485E+03  0.65168648485E+03  0.00000000000E+00 0. -1.
         25    2    1    2    0    0 -0.18341705899E+03  0.37658644197E+03 -0.30223824619E+03  0.53144366276E+03  0.12500097365E+03 0.  0.
          2    1    1    2  501    0  0.72134011320E+02 -0.19872101431E+03 -0.11129759151E+03  0.23891527995E+03  0.00000000000E+00 0. -1.
          1    1    1    2  502    0  0.11128304768E+03 -0.17786542766E+03  0.12447874173E+03  0.24395693104E+03  0.00000000000E+00 0. -1.
         22    1    3    3    0    0 -0.64833045454E+02  0.10301623678E+03 -0.24912358173E+02  0.12424288476E+03  0.00000000000E+00 0. -1.
         22    1    3    3    0    0 -0.11858401354E+03  0.27357020520E+03 -0.27732588802E+03  0.40720077800E+03  0.00000000000E+00 0. -1.
</event>
<event>
 7    1  0.5213103E-005  0.2647901E+03  0.7818608E-02  0.1269176E+00
          2   -1    0    0  502    0  0.00000000000E+00  0.00000000000E+00  0.96354167016E+03  0.96354167016E+03  0.00000000000E+00 0. -1.
          1   -1    0    0  501    0 -0.00000000000E+00 -0.00000000000E+00 -0.11672601914E+04  0.11672601914E+04  0.00000000000E+00 0. -1.
         25    2    1    2    0    0  0.21595477107E+03 -0.13726527471E+03 -0.50042044064E+03  0.57578166746E+03  0.12500276953E+03 0.  0.
          2    1    1    2  501    0  0.27407717963E+02  0.31849600016E+02 -0.60942834031E+03  0.61087517710E+03  0.00000000000E+00 0. -1.
          1    1    1    2  502    0 -0.24336248903E+03  0.10541567469E+03  0.90613025971E+03  0.94414501699E+03  0.00000000000E+00 0. -1.
         22    1    3    3    0    0  0.20645215985E+03 -0.12297406933E+03 -0.50390445689E+03  0.55826948484E+03  0.00000000000E+00 0. -1.
         22    1    3    3    0    0  0.95026112154E+01 -0.14291205373E+02  0.34840162478E+01  0.17512182621E+02  0.00000000000E+00 0. -1.
</event>
<event>
 7    1  0.5213103E-005  0.3878514E+03  0.7818608E-02  0.1087595E+00
          2   -1    0    0  502    0  0.00000000000E+00  0.00000000000E+00  0.44062650745E+03  0.44062650745E+03  0.00000000000E+00 0. -1.
          1   -1    0    0  501    0 -0.00000000000E+00 -0.00000000000E+00 -0.86873391566E+03  0.86873391566E+03  0.00000000000E+00 0. -1.
         25    2    1    2    0    0 -0.44523816191E+03 -0.17444300498E+03 -0.33742795909E+02  0.49540023978E+03  0.12496174810E+03 0.  0.
          2    1    1    2  501    0  0.98958003665E+02  0.20194799213E+03 -0.40848775814E+03  0.46630239820E+03  0.00000000000E+00 0. -1.
          1    1    1    2  502    0  0.34628015825E+03 -0.27504987148E+02  0.14123145850E+02  0.34765778513E+03  0.00000000000E+00 0. -1.
         22    1    3    3    0    0 -0.13119306947E+03 -0.10906838627E+03 -0.37139088624E+02  0.17460482887E+03  0.00000000000E+00 0.  1.
         22    1    3    3    0    0 -0.31404509244E+03 -0.65374618711E+02  0.33962927145E+01  0.32079541091E+03  0.00000000000E+00 0.  1.
</event>
<event>
 7    1  0.5213103E-005  0.8926827E+03  0.7818608E-02  0.1067535E+00
          2   -1    0    0  502    0  0.00000000000E+00  0.00000000000E+00  0.16389704965E+04  0.16389704965E+04  0.00000000000E+00 0. -1.
          1   -1    0    0  501    0 -0.00000000000E+00 -0.00000000000E+00 -0.17628163033E+04  0.17628163033E+04  0.00000000000E+00 0. -1.
         25    2    1    2    0    0 -0.48832899917E+03  0.67937782398E+03 -0.66839643032E+03  0.10781446829E+04  0.12499091973E+03 0.  0.
          2    1    1    2  501    0  0.57154659430E+03 -0.77687426932E+03 -0.62358006518E+03  0.11484995592E+04  0.00000000000E+00 0. -1.
          1    1    1    2  502    0 -0.83217595132E+02  0.97496445342E+02  0.11681306887E+04  0.11751425577E+04  0.00000000000E+00 0. -1.
         22    1    3    3    0    0 -0.25872588945E+03  0.25405667678E+03 -0.28375113161E+03  0.46043304136E+03  0.00000000000E+00 0. -1.
         22    1    3    3    0    0 -0.22960310972E+03  0.42532114720E+03 -0.38464529871E+03  0.61771164151E+03  0.00000000000E+00 0. -1.
</event>
<event>
 7    1  0.5213103E-005  0.1198671E+04  0.7818608E-02  0.1072336E+00
          2   -1    0    0  502    0  0.00000000000E+00  0.00000000000E+00  0.32507191033E+04  0.32507191033E+04  0.00000000000E+00 0. -1.
          1   -1    0    0  501    0 -0.00000000000E+00 -0.00000000000E+00 -0.22323893113E+04  0.22323893113E+04  0.00000000000E+00 0. -1.
         25    2    1    2    0    0 -0.29387268579E+03 -0.11016119070E+04  0.69029025274E+03  0.13386697503E+04  0.12500447297E+03 0.  0.
          2    1    1    2  501    0 -0.15431466679E+02 -0.88030134556E+02 -0.17380518889E+04  0.17403481845E+04  0.00000000000E+00 0. -1.
          1    1    1    2  502    0  0.30930415247E+03  0.11896420416E+04  0.20660914281E+04  0.24040904798E+04  0.00000000000E+00 0. -1.
         22    1    3    3    0    0 -0.30390718099E+03 -0.10482394827E+04  0.67025771048E+03  0.12807853006E+04  0.00000000000E+00 0. -1.
         22    1    3    3    0    0  0.10034495200E+02 -0.53372424321E+02  0.20032542263E+02  0.57884449737E+02  0.00000000000E+00 0. -1.
</event>
<event>
 7    1  0.5213103E-005  0.5038876E+03  0.7818608E-02  0.1053551E+00
          2   -1    0    0  502    0  0.00000000000E+00  0.00000000000E+00  0.64335650344E+03  0.64335650344E+03  0.00000000000E+00 0. -1.
          1   -1    0    0  501    0 -0.00000000000E+00 -0.00000000000E+00 -0.13512630567E+04  0.13512630567E+04  0.00000000000E+00 0. -1.
         25    2    1    2    0    0 -0.30789154772E+03 -0.59606004930E+03 -0.69466769265E+03  0.97379512225E+03  0.12501579652E+03 0.  0.
          2    1    1    2  501    0  0.13836872804E+03  0.37811207649E+03 -0.38544188979E+03  0.55738684744E+03  0.00000000000E+00 0. -1.
          1    1    1    2  502    0  0.16952281968E+03  0.21794797281E+03  0.37220302922E+03  0.46343759041E+03  0.00000000000E+00 0. -1.
         22    1    3    3    0    0 -0.21919362778E+03 -0.46064488233E+03 -0.59476195280E+03  0.78356961055E+03  0.00000000000E+00 0. -1.
         22    1    3    3    0    0 -0.88697919942E+02 -0.13541516697E+03 -0.99905739849E+02  0.19022551170E+03  0.00000000000E+00 0. -1.
</event>
<event>
 7    1  0.5213103E-005  0.4443839E+03  0.7818608E-02  0.1064535E+00
          2   -1    0    0  502    0  0.00000000000E+00  0.00000000000E+00  0.11463597183E+04  0.11463597183E+04  0.00000000000E+00 0. -1.
          1   -1    0    0  501    0 -0.00000000000E+00 -0.00000000000E+00 -0.38682821322E+03  0.38682821322E+03  0.00000000000E+00 0. -1.
         25    2    1    2    0    0  0.57982641590E+03  0.13333180877E+03  0.33092950565E+03  0.69218171441E+03  0.12500057697E+03 0.  0.
          2    1    1    2  501    0 -0.19309752168E+03 -0.18642772398E+03  0.99353569103E+01  0.26859013472E+03  0.00000000000E+00 0. -1.
          1    1    1    2  502    0 -0.38672889421E+03  0.53095915213E+02  0.41866664250E+03  0.57241608239E+03  0.00000000000E+00 0. -1.
         22    1    3    3    0    0  0.39145396813E+03  0.35324982189E+02  0.18414074677E+03  0.43404133231E+03  0.00000000000E+00 0. -1.
         22    1    3    3    0    0  0.18837244777E+03  0.98006826580E+02  0.14678875888E+03  0.25814038209E+03  0.00000000000E+00 0. -1.
</event>
<event>
 7    1  0.5213103E-005  0.4023757E+03  0.7818608E-02  0.1182708E+00
          2   -1    0    0  502    0  0.00000000000E+00  0.00000000000E+00  0.49331437467E+04  0.49331437467E+04  0.00000000000E+00 0. -1.
          1   -1    0    0  501    0 -0.00000000000E+00 -0.00000000000E+00 -0.35480185942E+03  0.35480185942E+03  0.00000000000E+00 0. -1.
         25    2    1    2    0    0  0.36491469453E+03  0.13739139135E+03  0.24154006311E+03  0.47540083660E+03  0.12500089860E+03 0.  0.
          2    1    1    2  501    0 -0.40226836299E+03 -0.80560954992E+02 -0.60521159551E+02  0.41469592967E+03  0.00000000000E+00 0. -1.
          1    1    1    2  502    0  0.37353668455E+02 -0.56830436360E+02  0.43973229837E+04  0.43978488399E+04  0.00000000000E+00 0. -1.
         22    1    3    3    0    0  0.28004671629E+03  0.78649263668E+02  0.23138791805E+03  0.37168836220E+03  0.00000000000E+00 0. -1.
         22    1    3    3    0    0  0.84867978244E+02  0.58742127684E+02  0.10152145061E+02  0.10371247440E+03  0.00000000000E+00 0. -1.
</event>
<event>
 7    1  0.5213103E-005  0.3980533E+03  0.7818608E-02  0.1121727E+00
          2   -1    0    0  502    0  0.00000000000E+00  0.00000000000E+00  0.24994135739E+04  0.24994135739E+04  0.00000000000E+00 0. -1.
          1   -1    0    0  501    0 -0.00000000000E+00 -0.00000000000E+00 -0.57484888173E+03  0.57484888173E+03  0.00000000000E+00 0. -1.
         25    2    1    2    0    0  0.24870952460E+03 -0.29753572783E+03  0.29418952916E+03  0.50254874414E+03  0.12499529674E+03 0.  0.
          2    1    1    2  501    0 -0.13512908477E+03  0.38150870579E+03 -0.38072331290E+03  0.55566087062E+03  0.00000000000E+00 0. -1.
          1    1    1    2  502    0 -0.11358043983E+03 -0.83972977965E+02  0.20110984760E+04  0.20160528409E+04  0.00000000000E+00 0. -1.
         22    1    3    3    0    0 -0.10453775496E+02 -0.82751871511E+01  0.30009124987E+02  0.32837596243E+02  0.00000000000E+00 0. -1.
         22    1    3    3    0    0  0.25916330009E+03 -0.28926054068E+03  0.26418040417E+03  0.46971114789E+03  0.00000000000E+00 0. -1.
</event>
<event>
 7    1  0.5213103E-005  0.4465913E+03  0.7818608E-02  0.1187776E+00
          2   -1    0    0  502    0  0.00000000000E+00  0.00000000000E+00  0.16452824545E+04  0.16452824545E+04  0.00000000000E+00 0. -1.
          1   -1    0    0  501    0 -0.00000000000E+00 -0.00000000000E+00 -0.14428165443E+04  0.14428165443E+04  0.00000000000E+00 0. -1.
         25    2    1    2    0    0 -0.26050795754E+02 -0.42955832125E+03  0.11877072717E+03  0.46360608382E+03  0.12500048004E+03 0.  0.
          2    1    1    2  501    0  0.82710844123E+02  0.44153021275E+03 -0.12300310534E+04  0.13094908953E+04  0.00000000000E+00 0. -1.
          1    1    1    2  502    0 -0.56660048369E+02 -0.11971891499E+02  0.13137262365E+04  0.13150020197E+04  0.00000000000E+00 0. -1.
         22    1    3    3    0    0 -0.89357199668E+00 -0.31772467094E+03  0.13970144811E+03  0.34708249682E+03  0.00000000000E+00 0. -1.
         22    1    3    3    0    0 -0.25157223758E+02 -0.11183365032E+03 -0.20930720939E+02  0.11652358701E+03  0.00000000000E+00 0. -1.
</event>
<event>
 7    1  0.5213103E-005  0.1821241E+03  0.7818608E-02  0.1255518E+00
          2   -1    0    0  502    0  0.00000000000E+00  0.00000000000E+00  0.35763252412E+04  0.35763252412E+04  0.00000000000E+00 0. -1.
          1   -1    0    0  501    0 -0.00000000000E+00 -0.00000000000E+00 -0.12032385363E+03  0.12032385363E+03  0.00000000000E+00 0. -1.
         25    2    1    2    0    0  0.49478821346E+02 -0.22256171694E+03  0.17185962949E+03  0.31167426269E+03  0.12499296845E+03 0.  0.
          2    1    1    2  501    0 -0.38758557177E+02  0.15355832792E+03  0.75283364855E+02  0.17535669606E+03  0.00000000000E+00 0. -1.
          1    1    1    2  502    0 -0.10720264169E+02  0.69003389019E+02  0.32088583932E+04  0.32096181361E+04  0.00000000000E+00 0. -1.
         22    1    3    3    0    0  0.89112708942E+02 -0.11955608577E+03  0.88883069754E+02  0.17359416070E+03  0.00000000000E+00 0. -1.
         22    1    3    3    0    0 -0.39633887596E+02 -0.10300563117E+03  0.82976559740E+02  0.13808010199E+03  0.00000000000E+00 0. -1.
</event>
<event>
 7    1  0.5213103E-005  0.2605262E+03  0.7818608E-02  0.1281227E+00
          2   -1    0    0  502    0  0.00000000000E+00  0.00000000000E+00  0.16547032092E+04  0.16547032092E+04  0.00000000000E+00 0. -1.
          1   -1    0    0  501    0 -0.00000000000E+00 -0.00000000000E+00 -0.11735551916E+04  0.11735551916E+04  0.00000000000E+00 0. -1.
         25    2    1    2    0    0  0.22573472668E+03 -0.19358223651E+03 -0.36147574758E+03  0.48447909842E+03  0.12500012638E+03 0.  0.
          2    1    1    2  501    0 -0.31492589671E+02  0.21346652974E+02 -0.73951009299E+03  0.74048810958E+03  0.00000000000E+00 0. -1.
          1    1    1    2  502    0 -0.19424213701E+03  0.17223558353E+03  0.15821338581E+04  0.16032911928E+04  0.00000000000E+00 0. -1.
         22    1    3    3    0    0  0.18213715844E+03 -0.20240992880E+03 -0.27370765480E+03  0.38608237989E+03  0.00000000000E+00 0. -1.
         22    1    3    3    0    0  0.43597568240E+02  0.88276922931E+01 -0.87768092777E+02  0.98396718530E+02  0.00000000000E+00 0. -1.
</event>
<event>
 7    1  0.5213103E-005  0.1432986E+04  0.7818608E-02  0.1113218E+00
          2   -1    0    0  502    0  0.00000000000E+00  0.00000000000E+00  0.32929210497E+04  0.32929210497E+04  0.00000000000E+00 0. -1.
          1   -1    0    0  501    0 -0.00000000000E+00 -0.00000000000E+00 -0.34117074227E+04  0.34117074227E+04  0.00000000000E+00 0. -1.
         25    2    1    2    0    0 -0.13687040777E+04 -0.33820360345E+03 -0.68210734958E+03  0.15711867706E+04  0.12499960831E+03 0.  0.
          2    1    1    2  501    0  0.14088373148E+04  0.32100478126E+03 -0.20564344901E+04  0.25133223950E+04  0.00000000000E+00 0. -1.
          1    1    1    2  502    0 -0.40133237071E+02  0.17198822192E+02  0.26197554667E+04  0.26201193067E+04  0.00000000000E+00 0. -1.
         22    1    3    3    0    0 -0.10918787758E+04 -0.31700732679E+03 -0.56895867753E+03  0.12713799129E+04  0.00000000000E+00 0. -1.
         22    1    3    3    0    0 -0.27682530197E+03 -0.21196276658E+02 -0.11314867205E+03  0.29980685773E+03  0.00000000000E+00 0. -1.
</event>
<event>
 7    1  0.5213103E-005  0.6161307E+03  0.7818608E-02  0.1204857E+00
          2   -1    0    0  502    0  0.00000000000E+00  0.00000000000E+00  0.10344834202E+04  0.10344834202E+04  0.00000000000E+00 0. -1.
          1   -1    0    0  501    0 -0.00000000000E+00 -0.00000000000E+00 -0.23970633342E+04  0.23970633342E+04  0.00000000000E+00 0. -1.
         25    2    1    2    0    0 -0.94800680244E+02 -0.61245400481E+03  0.13822054557E+03  0.64716446168E+03  0.12501937556E+03 0.  0.
          2    1    1    2  501    0  0.12812907065E+03  0.60234462502E+03 -0.20978236948E+04  0.21863440627E+04  0.00000000000E+00 0. -1.
          1    1    1    2  502    0 -0.33328390411E+02  0.10109379788E+02  0.59702323520E+03  0.59803822999E+03  0.00000000000E+00 0. -1.
         22    1    3    3    0    0 -0.69166555786E+02 -0.57976775572E+03  0.15210546744E+03  0.60336617095E+03  0.00000000000E+00 0.  1.
         22    1    3    3    0    0 -0.25634124458E+02 -0.32686249085E+02 -0.13884921872E+02  0.43798290736E+02  0.00000000000E+00 0.  1.
</event>
<event>
 7    1  0.5213103E-005  0.7339386E+03  0.7818608E-02  0.1213725E+00
          2   -1    0    0  502    0  0.00000000000E+00  0.00000000000E+00  0.19324028523E+04  0.19324028523E+04  0.00000000000E+00 0. -1.
          1   -1    0    0  501    0 -0.00000000000E+00 -0.00000000000E+00 -0.78719364120E+03  0.78719364120E+03  0.00000000000E+00 0. -1.
         25    2    1    2    0    0  0.25422594093E+03 -0.67749629818E+03  0.30095443559E+02  0.73495703419E+03  0.12499617311E+03 0.  0.
          2    1    1    2  501    0 -0.24313754695E+03  0.70166739030E+03 -0.11741488914E+03  0.75182394850E+03  0.00000000000E+00 0. -1.
          1    1    1    2  502    0 -0.11088393978E+02 -0.24171092118E+02  0.12325286567E+04  0.12328155108E+04  0.00000000000E+00 0. -1.
         22    1    3    3    0    0  0.55452986213E+02 -0.11997637902E+03 -0.42008198060E+02  0.13868689162E+03  0.00000000000E+00 0. -1.
         22    1    3    3    0    0  0.19877295472E+03 -0.55751991916E+03  0.72103641619E+02  0.59627014257E+03  0.00000000000E+00 0. -1.
</event>
<event>
 7    1  0.5213103E-005  0.1958776E+03  0.7818608E-02  0.1255332E+00
          2   -1    0    0  502    0  0.00000000000E+00  0.00000000000E+00  0.12669653728E+04  0.12669653728E+04  0.00000000000E+00 0. -1.
          1   -1    0    0  501    0 -0.00000000000E+00 -0.00000000000E+00 -0.10819352513E+04  0.10819352513E+04  0.00000000000E+00 0. -1.
         25    2    1    2    0    0  0.19326627966E+03  0.12162126739E+03  0.95017050455E+03  0.98518645421E+03  0.12499909721E+03 0.  0.
          2    1    1    2  501    0 -0.18720575735E+03 -0.56856856012E+02 -0.10517617325E+04  0.10698043932E+04  0.00000000000E+00 0. -1.
          1    1    1    2  502    0 -0.60605223177E+01 -0.64764411382E+02  0.28662134944E+03  0.29390977674E+03  0.00000000000E+00 0. -1.
         22    1    3    3    0    0  0.20830922650E+03  0.97699326607E+02  0.80227877322E+03  0.83461914801E+03  0.00000000000E+00 0.  1.
         22    1    3    3    0    0 -0.15042946835E+02  0.23921940788E+02  0.14789173133E+03  0.15056730620E+03  0.00000000000E+00 0.  1.
</event>
<event>
 7    1  0.5213103E-005  0.1177394E+04  0.7818608E-02  0.1123866E+00
          2   -1    0    0  502    0  0.00000000000E+00  0.00000000000E+00  0.12628676633E+04  0.12628676633E+04  0.00000000000E+00 0. -1.
          1   -1    0    0  501    0 -0.00000000000E+00 -0.00000000000E+00 -0.18166862333E+04  0.18166862333E+04  0.00000000000E+00 0. -1.
         25    2    1    2    0    0  0.40413705512E+03  0.11354075411E+04 -0.36656013198E+03  0.12658861562E+04  0.12499754581E+03 0.  0.
          2    1    1    2  501    0 -0.32743738817E+02 -0.33016359852E+02 -0.58305514721E+03  0.58490643451E+03  0.00000000000E+00 0. -1.
          1    1    1    2  502    0 -0.37139331630E+03 -0.11023911813E+04  0.39579670920E+03  0.12287613059E+04  0.00000000000E+00 0. -1.
         22    1    3    3    0    0  0.77457766914E+02  0.39236428170E+03 -0.11677484604E+03  0.41663629208E+03  0.00000000000E+00 0.  1.
         22    1    3    3    0    0  0.32667928821E+03  0.74304325940E+03 -0.24978528594E+03  0.84924986415E+03  0.00000000000E+00 0.  1.
</event>
<event>
 7    1  0.5213103E-005  0.2053765E+03  0.7818608E-02  0.1263052E+00
          2   -1    0    0  502    0  0.00000000000E+00  0.00000000000E+00  0.18559312672E+04  0.18559312672E+04  0.00000000000E+00 0. -1.
          1   -1    0    0  501    0 -0.00000000000E+00 -0.00000000000E+00 -0.19294496031E+03  0.19294496031E+03  0.00000000000E+00 0. -1.
         25    2    1    2    0    0 -0.22691620335E+03  0.54804203954E+02  0.13414049032E+04  0.13672919835E+04  0.12500315868E+03 0.  0.
          2    1    1    2  501    0  0.18273471698E+03 -0.91605365071E+02 -0.11949516032E+03  0.23677544855E+03  0.00000000000E+00 0. -1.
          1    1    1    2  502    0  0.44181486371E+02  0.36801161117E+02  0.44107656405E+03  0.44480879550E+03  0.00000000000E+00 0. -1.
         22    1    3    3    0    0 -0.20218898162E+03 -0.10634643642E+01  0.96423294073E+03  0.98520387699E+03  0.00000000000E+00 0. -1.
         22    1    3    3    0    0 -0.24727221725E+02  0.55867668318E+02  0.37717196243E+03  0.38208810646E+03  0.00000000000E+00 0. -1.
</event>
<event>
 7    1  0.5213103E-005  0.7279376E+02  0.7818608E-02  0.1455503E+00
          2   -1    0    0  502    0  0.00000000000E+00  0.00000000000E+00  0.29354155228E+03  0.29354155228E+03  0.00000000000E+00 0. -1.
          1   -1    0    0  501    0 -0.00000000000E+00 -0.00000000000E+00 -0.13878504166E+04  0.13878504166E+04  0.00000000000E+00 0. -1.
         25    2    1    2    0    0  0.58645923564E+02  0.14184105472E+02 -0.15325090206E+03  0.20676717746E+03  0.12500517386E+03 0.  0.
          2    1    1    2  501    0 -0.72058322435E+02  0.14723828503E+02 -0.12057652053E+04  0.12080061768E+04  0.00000000000E+00 0. -1.
          1    1    1    2  502    0  0.13412398871E+02 -0.28907933975E+02  0.26470724308E+03  0.26661861456E+03  0.00000000000E+00 0. -1.
         22    1    3    3    0    0  0.90306349370E+02 -0.15474840996E+01 -0.14440393992E+03  0.17032360173E+03  0.00000000000E+00 0. -1.
         22    1    3    3    0    0 -0.31660425806E+02  0.15731589571E+02 -0.88469621483E+01  0.36443575729E+02  0.00000000000E+00 0. -1.
</event>
<event>
 7    1  0.5213103E-005  0.6447834E+03  0.7818608E-02  0.1232263E+00
          2   -1    0    0  502    0  0.00000000000E+00  0.00000000000E+00  0.34683629599E+03  0.34683629599E+03  0.00000000000E+00 0. -1.
          1   -1    0    0  501    0 -0.00000000000E+00 -0.00000000000E+00 -0.14830173421E+04  0.14830173421E+04  0.00000000000E+00 0. -1.
         25    2    1    2    0    0 -0.71527791445E+02 -0.65028959670E+03 -0.34735528458E+03  0.75118149538E+03  0.12500064299E+03 0.  0.
          2    1    1    2  501    0  0.15072550744E+02  0.19871215666E+02 -0.23890949736E+03  0.24020781613E+03  0.00000000000E+00 0. -1.
          1    1    1    2  502    0  0.56455240701E+02  0.63041838104E+03 -0.54991626419E+03  0.83846432660E+03  0.00000000000E+00 0. -1.
         22    1    3    3    0    0 -0.50334208094E+02 -0.62051519988E+03 -0.35060486283E+03  0.71449031878E+03  0.00000000000E+00 0. -1.
         22    1    3    3    0    0 -0.21193583352E+02 -0.29774396828E+02  0.32495782573E+01  0.36691176604E+02  0.00000000000E+00 0. -1.
</event>
<event>
 7    1  0.5213103E-005  0.4971258E+03  0.7818608E-02  0.1240383E+00
          2   -1    0    0  502    0  0.00000000000E+00  0.00000000000E+00  0.10684013477E+04  0.10684013477E+04  0.00000000000E+00 0. -1.
          1   -1    0    0  501    0 -0.00000000000E+00 -0.00000000000E+00 -0.35375607527E+03  0.35375607527E+03  0.00000000000E+00 0. -1.
         25    2    1    2    0    0  0.47200340187E+03  0.10297395936E+03  0.28219080389E+03  0.57327790254E+03  0.12500022426E+03 0.  0.
          2    1    1    2  501    0  0.26866322773E+02 -0.12832563257E+02 -0.10554479774E+03  0.10966393349E+03  0.00000000000E+00 0. -1.
          1    1    1    2  502    0 -0.49886972464E+03 -0.90141396101E+02  0.53799926629E+03  0.73921558695E+03  0.00000000000E+00 0. -1.
         22    1    3    3    0    0  0.46202089325E+03  0.11888848936E+03  0.25711772849E+03  0.54194769582E+03  0.00000000000E+00 0. -1.
         22    1    3    3    0    0  0.99825086214E+01 -0.15914530001E+02  0.25073075400E+02  0.31330206726E+02  0.00000000000E+00 0. -1.
</event>
<event>
 7    1  0.5213103E-005  0.6675203E+03  0.7818608E-02  0.1214218E+00
          2   -1    0    0  502    0  0.00000000000E+00  0.00000000000E+00  0.20181482341E+04  0.20181482341E+04  0.00000000000E+00 0. -1.
          1   -1    0    0  501    0 -0.00000000000E+00 -0.00000000000E+00 -0.55040160221E+03  0.55040160221E+03  0.00000000000E+00 0. -1.
         25    2    1    2    0    0  0.45901962236E+03 -0.48900575885E+03 -0.19241425279E+03  0.70885373888E+03  0.12499893021E+03 0.  0.
          2    1    1    2  501    0 -0.46521697810E+03  0.46058697695E+03  0.97780132788E+03  0.11767168890E+04  0.00000000000E+00 0. -1.
          1    1    1    2  502    0  0.61973557460E+01  0.28418781904E+02  0.68235955680E+03  0.68297920843E+03  0.00000000000E+00 0. -1.
         22    1    3    3    0    0  0.14117371389E+03 -0.15325930441E+03 -0.12123594098E+03  0.24107381705E+03  0.00000000000E+00 0.  1.
         22    1    3    3    0    0  0.31784590847E+03 -0.33574645444E+03 -0.71178311812E+02  0.46777992183E+03  0.00000000000E+00 0.  1.
</event>
<event>
 7    1  0.5213103E-005  0.2688890E+03  0.7818608E-02  0.1317397E+00
          2   -1    0    0  502    0  0.00000000000E+00  0.00000000000E+00  0.18323435695E+04  0.18323435695E+04  0.00000000000E+00 0. -1.
          1   -1    0    0  501    0 -0.00000000000E+00 -0.00000000000E+00 -0.39671243971E+03  0.39671243971E+03  0.00000000000E+00 0. -1.
         25    2    1    2    0    0  0.12216124724E+03  0.23632084909E+03  0.17016950812E+04  0.17268936635E+04  0.12499864646E+03 0.  0.
          2    1    1    2  501    0 -0.14633732559E+03 -0.22571612437E+03 -0.33424549397E+03  0.42904828621E+03  0.00000000000E+00 0. -1.
          1    1    1    2  502    0  0.24176078348E+02 -0.10604724720E+02  0.68181542572E+02  0.73114059511E+02  0.00000000000E+00 0. -1.
         22    1    3    3    0    0  0.81166889160E+02  0.40480936853E+02  0.42067526491E+03  0.43034224596E+03  0.00000000000E+00 0. -1.
         22    1    3    3    0    0  0.40994358079E+02  0.19583991223E+03  0.12810198163E+04  0.12965514176E+04  0.00000000000E+00 0. -1.
</event>
<event>
 7    1  0.5213103E-005  0.4337879E+03  0.7818608E-02  0.1195043E+00
          2   -1    0    0  502    0  0.00000000000E+00  0.00000000000E+00  0.27235374564E+04  0.27235374564E+04  0.00000000000E+00 0. -1.
          1   -1    0    0  501    0 -0.00000000000E+00 -0.00000000000E+00 -0.12605917937E+04  0.12605917937E+04  0.00000000000E+00 0. -1.
         25    2    1    2    0    0  0.24705015687E+03 -0.36269088434E+03  0.13954798854E+03  0.47715192822E+03  0.12498745499E+03 0.  0.
          2    1    1    2  501    0 -0.28702869285E+03  0.32487277501E+03 -0.10484260237E+04  0.11345152787E+04  0.00000000000E+00 0. -1.
          1    1    1    2  502    0  0.39978535979E+02  0.37818109329E+02  0.23718236978E+04  0.23724620432E+04  0.00000000000E+00 0. -1.
         22    1    3    3    0    0  0.24939770479E+03 -0.29829445841E+03  0.99731851832E+02  0.40140408735E+03  0.00000000000E+00 0. -1.
         22    1    3    3    0    0 -0.23475479193E+01 -0.64396425929E+02  0.39816136711E+02  0.75747840869E+02  0.00000000000E+00 0. -1.
</event>
<event>
 7    1  0.5213103E-005  0.5204591E+03  0.7818608E-02  0.1252369E+00
          2   -1    0    0  502    0  0.00000000000E+00  0.00000000000E+00  0.30052742215E+04  0.30052742215E+04  0.00000000000E+00 0. -1.
          1   -1    0    0  501    0 -0.00000000000E+00 -0.00000000000E+00 -0.94776349936E+03  0.94776349936E+03  0.00000000000E+00 0. -1.
         25    2    1    2    0    0 -0.50145670679E+03  0.27835870192E+02 -0.15327622599E+03  0.53977106508E+03  0.12500214714E+03 0.  0.
          2    1    1    2  501    0 -0.20137910593E+02 -0.15168954828E+02 -0.57676056731E+03  0.57731134117E+03  0.00000000000E+00 0. -1.
          1    1    1    2  502    0  0.52159461738E+03 -0.12666915363E+02  0.27875475154E+04  0.28359553146E+04  0.00000000000E+00 0. -1.
         22    1    3    3    0    0 -0.11846910261E+03  0.31369290459E+02 -0.88885503736E+02  0.15139218418E+03  0.00000000000E+00 0. -1.
         22    1    3    3    0    0 -0.38298760418E+03 -0.35334202671E+01 -0.64390722250E+02  0.38837888089E+03  0.00000000000E+00 0. -1.
</event>
<event>
 7    1  0.5213103E-005  0.4957293E+03  0.7818608E-02  0.1208150E+00
          2   -1    0    0  502    0  0.00000000000E+00  0.00000000000E+00  0.22154947196E+04  0.22154947196E+04  0.00000000000E+00 0. -1.
          1   -1    0    0  501    0 -0.00000000000E+00 -0.00000000000E+00 -0.38104345751E+04  0.38104345751E+04  0.00000000000E+00 0. -1.
         25    2    1    2    0    0 -0.39470498190E+03 -0.30403110382E+03 -0.20637728194E+04  0.21267368978E+04  0.12499858995E+03 0.  0.
          2    1    1    2  501    0  0.36463386595E+03  0.33304005268E+03 -0.16794260090E+04  0.17505271356E+04  0.00000000000E+00 0. -1.
          1    1    1    2  502    0  0.30071115945E+02 -0.29008948857E+02  0.21482589729E+04  0.21486652614E+04  0.00000000000E+00 0. -1.
         22    1    3    3    0    0 -0.28294940702E+03 -0.25673483180E+03 -0.13630645193E+04  0.14155981155E+04  0.00000000000E+00 0. -1.
         22    1    3    3    0    0 -0.11175557487E+03 -0.47296272015E+02 -0.70070830009E+03  0.71113878228E+03  0.00000000000E+00 0. -1.
</event>
<event>
 7    1  0.5213103E-005  0.7050570E+03  0.7818608E-02  0.1147902E+00
          2   -1    0    0  502    0  0.00000000000E+00  0.00000000000E+00  0.13627471261E+04  0.13627471261E+04  0.00000000000E+00 0. -1.
          1   -1    0    0  501    0 -0.00000000000E+00 -0.00000000000E+00 -0.80832906323E+03  0.80832906323E+03  0.00000000000E+00 0. -1.
         25    2    1    2    0    0  0.71145171048E+03 -0.13011661843E+03 -0.24195183668E+03  0.77282562506E+03  0.12499953897E+03 0.  0.
          2    1    1    2  501    0 -0.13956628629E+02  0.56278951274E+02 -0.18394022277E+03  0.19286293939E+03  0.00000000000E+00 0. -1.
          1    1    1    2  502    0 -0.69749508185E+03  0.73837667157E+02  0.98031012231E+03  0.12053876249E+04  0.00000000000E+00 0. -1.
         22    1    3    3    0    0  0.66851904693E+02  0.24139683604E+02 -0.19726424693E+02  0.73763360259E+02  0.00000000000E+00 0.  1.
         22    1    3    3    0    0  0.64459980579E+03 -0.15425630204E+03 -0.22222541198E+03  0.69906226480E+03  0.00000000000E+00 0.  1.
</event>
<event>
 7    1  0.5213103E-005  0.8561323E+03  0.7818608E-02  0.1146833E+00
          2   -1    0    0  502    0  0.00000000000E+00  0.00000000000E+00  0.28309982697E+04  0.28309982697E+04  0.00000000000E+00 0. -1.
          1   -1    0    0  501    0 -0.00000000000E+00 -0.00000000000E+00 -0.84258704456E+03  0.84258704456E+03  0.00000000000E+00 0. -1.
         25    2    1    2    0    0  0.83010407770E+03 -0.16257812021E+03  0.91191748994E+03  0.12500888627E+04  0.12499692431E+03 0.  0.
          2    1    1    2  501    0  0.24445688740E+02  0.41730305179E+02 -0.56599856221E+03  0.56806107285E+03  0.00000000000E+00 0. -1.
          1    1    1    2  502    0 -0.85454976644E+03  0.12084781503E+03  0.16424922974E+04  0.18554353788E+04  0.00000000000E+00 0. -1.
         22    1    3    3    0    0  0.96644625392E+02  0.12968668636E+02  0.14271090657E+03  0.17284320304E+03  0.00000000000E+00 0. -1.
         22    1    3    3    0    0  0.73345945231E+03 -0.17554678885E+03  0.76920658337E+03  0.10772456596E+04  0.00000000000E+00 0. -1.
</event>
<event>
 7    1  0.5213103E-005  0.5822829E+02  0.7818608E-02  0.1519046E+00
          2   -1    0    0  502    0  0.00000000000E+00  0.00000000000E+00  0.30068457793E+03  0.30068457793E+03  0.00000000000E+00 0. -1.
          1   -1    0    0  501    0 -0.00000000000E+00 -0.00000000000E+00 -0.10409983618E+03  0.10409983618E+03  0.00000000000E+00 0. -1.
         25    2    1    2    0    0 -0.70044234990E+02 -0.36428785692E+02  0.17476675285E+03  0.22891612478E+03  0.12500369195E+03 0.  0.
          2    1    1    2  501    0  0.54959071456E+02  0.15817604698E+02 -0.64293555110E+02  0.86048575713E+02  0.00000000000E+00 0. -1.
          1    1    1    2  502    0  0.15085163534E+02  0.20611180993E+02  0.86111544019E+02  0.89819713616E+02  0.00000000000E+00 0. -1.
         22    1    3    3    0    0 -0.10497353525E+03 -0.16627137459E+02  0.11196772182E+03  0.15437835189E+03  0.00000000000E+00 0.  1.
         22    1    3    3    0    0  0.34929300258E+02 -0.19801648233E+02  0.62799031031E+02  0.74537772892E+02  0.00000000000E+00 0.  1.
</event>
<event>
 7    1  0.5213103E-005  0.8655281E+02  0.7818608E-02  0.1359083E+00
          2   -1    0    0  502    0  0.00000000000E+00  0.00000000000E+00  0.32087791914E+04  0.32087791914E+04  0.00000000000E+00 0. -1.
          1   -1    0    0  501    0 -0.00000000000E+00 -0.00000000000E+00 -0.88068933494E+01  0.88068933494E+01  0.00000000000E+00 0. -1.
         25    2    1    2    0    0 -0.49323114293E+01  0.27821662178E+01  0.91382372894E+03  0.92235056971E+03  0.12499879090E+03 0.  0.
          2    1    1    2  501    0  0.57962466019E+02 -0.71186785984E+02  0.61154899114E+03  0.61840065857E+03  0.00000000000E+00 0. -1.
          1    1    1    2  502    0 -0.53030154590E+02  0.68404619766E+02  0.16745995780E+04  0.16768348565E+04  0.00000000000E+00 0. -1.
         22    1    3    3    0    0  0.57036279632E+02  0.19200615963E+02  0.38938846084E+03  0.39401164231E+03  0.00000000000E+00 0.  1.
         22    1    3    3    0    0 -0.61968591061E+02 -0.16418449745E+02  0.52443526810E+03  0.52833892740E+03  0.00000000000E+00 0.  1.
</event>
<event>
 7    1  0.5213103E-005  0.5870804E+03  0.7818608E-02  0.1009037E+00
          2   -1    0    0  502    0  0.00000000000E+00  0.00000000000E+00  0.16257034674E+04  0.16257034674E+04  0.00000000000E+00 0. -1.
          1   -1    0    0  501    0 -0.00000000000E+00 -0.00000000000E+00 -0.11981747661E+04  0.11981747661E+04  0.00000000000E+00 0. -1.
         25    2    1    2    0    0 -0.28666987420E+03  0.90646190357E+03  0.45940462358E+03  0.10632626765E+04  0.12498844615E+03 0.  0.
          2    1    1    2  501    0  0.13215601534E+01 -0.54809308002E+03 -0.73778441849E+03  0.91909391199E+03  0.00000000000E+00 0. -1.
          1    1    1    2  502    0  0.28534831404E+03 -0.35836882355E+03  0.70590849617E+03  0.84152164499E+03  0.00000000000E+00 0. -1.
         22    1    3    3    0    0 -0.80884086875E+02  0.11280751284E+03  0.73923599908E+02  0.15726560045E+03  0.00000000000E+00 0. -1.
         22    1    3    3    0    0 -0.20578578732E+03  0.79365439073E+03  0.38548102367E+03  0.90599707604E+03  0.00000000000E+00 0. -1.
</event>
<event>
 7    1  0.5213103E-005  0.1266437E+04  0.7818608E-02  0.1120842E+00
          2   -1    0    0  502    0  0.00000000000E+00  0.00000000000E+00  0.31879172701E+04  0.31879172701E+04  0.00000000000E+00 0. -1.
          1   -1    0    0  501    0 -0.00000000000E+00 -0.00000000000E+00 -0.19245965260E+04  0.19245965260E+04  0.00000000000E+00 0. -1.
         25    2    1    2    0    0 -0.11990798984E+04 -0.48372973117E+03 -0.11132110358E+03  0.13037655488E+04  0.12500065018E+03 0.  0.
          2    1    1    2  501    0  0.11679583670E+04  0.45137998454E+03 -0.89470960703E+03  0.15389528642E+04  0.00000000000E+00 0. -1.
          1    1    1    2  502    0  0.31121531382E+02  0.32349746633E+02  0.22693514548E+04  0.22697953831E+04  0.00000000000E+00 0. -1.
         22    1    3    3    0    0 -0.72025264382E+03 -0.33883701359E+03 -0.10966922625E+03  0.80349345479E+03  0.00000000000E+00 0.  1.
         22    1    3    3    0    0 -0.47882725455E+03 -0.14489271758E+03 -0.16518773347E+01  0.50027209397E+03  0.00000000000E+00 0.  1.
</event>
<event>
 7    1  0.5213103E-005  0.4269413E+03  0.7818608E-02  0.1258090E+00
          2   -1    0    0  502    0  0.00000000000E+00  0.00000000000E+00  0.22729865771E+04  0.22729865771E+04  0.00000000000E+00 0. -1.
          1   -1    0    0  501    0 -0.00000000000E+00 -0.00000000000E+00 -0.12068944455E+04  0.12068944455E+04  0.00000000000E+00 0. -1.
         25    2    1    2    0    0  0.50762936453E+02 -0.41111189137E+03 -0.22323998251E+03  0.48687757246E+03  0.12499527124E+03 0.  0.
          2    1    1    2  501    0 -0.75874265606E+02  0.42569950997E+03 -0.79685337425E+03  0.90661583762E+03  0.00000000000E+00 0. -1.
          1    1    1    2  502    0  0.25111329153E+02 -0.14587618593E+02  0.20861854884E+04  0.20863876125E+04  0.00000000000E+00 0. -1.
         22    1    3    3    0    0  0.59058395427E+02 -0.40582934653E+03 -0.18956646362E+03  0.45179729604E+03  0.00000000000E+00 0.  1.
         22    1    3    3    0    0 -0.82954589746E+01 -0.52825448398E+01 -0.33673518893E+02  0.35080276427E+02  0.00000000000E+00 0.  1.
</event>
<event>
 7    1  0.5213103E-005  0.8446379E+02  0.7818608E-02  0.1342892E+00
          2   -1    0    0  502    0  0.00000000000E+00  0.00000000000E+00  0.77405571663E+02  0.77405571663E+02  0.00000000000E+00 0. -1.
          1   -1    0    0  501    0 -0.00000000000E+00 -0.00000000000E+00 -0.10880306245E+04  0.10880306245E+04  0.00000000000E+00 0. -1.
         25    2    1    2    0    0  0.10194688058E+02 -0.20905763177E+02 -0.49056834577E+02  0.13628164513E+03  0.12500052473E+03 0.  0.
          2    1    1    2  501    0 -0.68555419452E+02  0.54141872045E+02 -0.95791944088E+03  0.96189440328E+03  0.00000000000E+00 0. -1.
          1    1    1    2  502    0  0.58360731395E+02 -0.33236108868E+02 -0.36487773995E+01  0.67260147771E+02  0.00000000000E+00 0. -1.
         22    1    3    3    0    0  0.32083285526E+02  0.45603325588E+02 -0.11896611512E+02  0.57013418423E+02  0.00000000000E+00 0.  1.
         22    1    3    3    0    0 -0.21888597468E+02 -0.66509088766E+02 -0.37160223065E+02  0.79268226710E+02  0.00000000000E+00 0.  1.
</event>
<event>
 7    1  0.5213103E-005  0.8273418E+02  0.7818608E-02  0.1438042E+00
          2   -1    0    0  502    0  0.00000000000E+00  0.00000000000E+00  0.48338841501E+03  0.48338841501E+03  0.00000000000E+00 0. -1.
          1   -1    0    0  501    0 -0.00000000000E+00 -0.00000000000E+00 -0.58018818765E+02  0.58018818765E+02  0.00000000000E+00 0. -1.
         25    2    1    2    0    0  0.28856160315E+02  0.48337344806E+02  0.52186321650E+02  0.14669665228E+03  0.12500927458E+03 0.  0.
          2    1    1    2  501    0  0.19477982874E+01  0.31847707759E+02  0.43049775568E+02  0.53585012682E+02  0.00000000000E+00 0. -1.
          1    1    1    2  502    0 -0.30803958603E+02 -0.80185052565E+02  0.33013349903E+03  0.34112556882E+03  0.00000000000E+00 0. -1.
         22    1    3    3    0    0  0.10631321421E+02  0.19356298875E+02 -0.41467672007E+02  0.46981476381E+02  0.00000000000E+00 0.  1.
         22    1    3    3    0    0  0.18224838894E+02  0.28981045931E+02  0.93653993657E+02  0.99715175895E+02  0.00000000000E+00 0.  1.
</event>
<event>
 7    1  0.5213103E-005  0.1453802E+04  0.7818608E-02  0.1155162E+00
          2   -1    0    0  502    0  0.00000000000E+00  0.00000000000E+00  0.12936154819E+04  0.12936154819E+04  0.00000000000E+00 0. -1.
          1   -1    0    0  501    0 -0.00000000000E+00 -0.00000000000E+00 -0.20032432145E+04  0.20032432145E+04  0.00000000000E+00 0. -1.
         25    2    1    2    0    0 -0.34873439194E+03  0.14089973557E+04 -0.10094020342E+03  0.14603751350E+04  0.12496953902E+03 0.  0.
          2    1    1    2  501    0  0.23497242327E+02  0.10676845062E+02 -0.35761932513E+03  0.35854943470E+03  0.00000000000E+00 0. -1.
          1    1    1    2  502    0  0.32523714962E+03 -0.14196742008E+04 -0.25106820405E+03  0.14779341267E+04  0.00000000000E+00 0. -1.
         22    1    3    3    0    0 -0.34935879530E+02  0.13863186328E+03 -0.47811596868E+02  0.15074899001E+03  0.00000000000E+00 0. -1.
         22    1    3    3    0    0 -0.31379851241E+03  0.12703654924E+04 -0.53128606554E+02  0.13096261450E+04  0.00000000000E+00 0. -1.
</event>
<event>
 7    1  0.5346415E-005  0.9910355E+03  0.7818608E-02  0.1165542E+00
          2   -1    0    0  502    0  0.00000000000E+00  0.00000000000E+00  0.24060377838E+04  0.24060377838E+04  0.00000000000E+00 0. -1.
          1   -1    0    0  501    0 -0.00000000000E+00 -0.00000000000E+00 -0.16662070619E+04  0.16662070619E+04  0.00000000000E+00 0. -1.
         25    2    1    2    0    0 -0.78601667118E+03 -0.56335996435E+03  0.23216368833E+03  0.10023581691E+04  0.12500105637E+03 0.  0.
          2    1    1    2  501    0 -0.22053254388E+02 -0.25289795980E+02 -0.11411555466E+04  0.11416487644E+04  0.00000000000E+00 0. -1.
          1    1    1    2  502    0  0.80806992557E+03  0.58864976033E+03  0.16488225802E+04  0.19282379121E+04  0.00000000000E+00 0. -1.
         22    1    3    3    0    0 -0.61105025802E+03 -0.46862138366E+03  0.22891760583E+03  0.80336273831E+03  0.00000000000E+00 0. -1.
         22    1    3    3    0    0 -0.17496641316E+03 -0.94738580690E+02  0.32460824924E+01  0.19899543074E+03  0.00000000000E+00 0. -1.
</event>
<event>
 7    1  0.5213103E-005  0.9116714E+03  0.7818608E-02  0.1113824E+00
          2   -1    0    0  502    0  0.00000000000E+00  0.00000000000E+00  0.52712496323E+03  0.52712496323E+03  0.00000000000E+00 0. -1.
          1   -1    0    0  501    0 -0.00000000000E+00 -0.00000000000E+00 -0.21541290035E+04  0.21541290035E+04  0.00000000000E+00 0. -1.
         25    2    1    2    0    0 -0.88705367120E+03  0.29001008959E+03 -0.97362724819E+03  0.13544544788E+04  0.12500739656E+03 0.  0.
          2    1    1    2  501    0  0.86000763196E+03 -0.22750405826E+03 -0.77993691264E+03  0.11830776861E+04  0.00000000000E+00 0. -1.
          1    1    1    2  502    0  0.27046039240E+02 -0.62506031326E+02  0.12656012059E+03  0.14372180180E+03  0.00000000000E+00 0. -1.
         22    1    3    3    0    0 -0.19268767268E+03  0.95810173858E+02 -0.28781607707E+03  0.35936920129E+03  0.00000000000E+00 0.  1.
         22    1    3    3    0    0 -0.69436599852E+03  0.19419991573E+03 -0.68581117112E+03  0.99508527755E+03  0.00000000000E+00 0.  1.
</event>
<event>
 7    1  0.5213103E-005  0.1197948E+04  0.7818608E-02  0.1071807E+00
          2   -1    0    0  502    0  0.00000000000E+00  0.00000000000E+00  0.39523182387E+04  0.39523182387E+04  0.00000000000E+00 0. -1.
          1   -1    0    0  501    0 -0.00000000000E+00 -0.00000000000E+00 -0.20864060209E+04  0.20864060209E+04  0.00000000000E+00 0. -1.
         25    2    1    2    0    0 -0.12197027678E+04  0.10180171096E+03 -0.11889212266E+04  0.17109053902E+04  0.12500056410E+03 0.  0.
          2    1    1    2  501    0  0.11383906170E+04 -0.14055655291E+03 -0.11856113538E+03  0.11531461678E+04  0.00000000000E+00 0. -1.
          1    1    1    2  502    0  0.81312150777E+02  0.38754841944E+02  0.31733945798E+04  0.31746727017E+04  0.00000000000E+00 0. -1.
         22    1    3    3    0    0 -0.39491647465E+03  0.81044959356E+02 -0.43806884209E+03  0.59534159757E+03  0.00000000000E+00 0. -1.
         22    1    3    3    0    0 -0.82478629315E+03  0.20756751608E+02 -0.75085238450E+03  0.11155637926E+04  0.00000000000E+00 0. -1.
</event>
<event>
 7    1  0.5213103E-005  0.3226784E+03  0.7818608E-02  0.1120601E+00
          2   -1    0    0  502    0  0.00000000000E+00  0.00000000000E+00  0.15444425006E+04  0.15444425006E+04  0.00000000000E+00 0. -1.
          1   -1    0    0  501    0 -0.00000000000E+00 -0.00000000000E+00 -0.52525342109E+03  0.52525342109E+03  0.00000000000E+00 0. -1.
         25    2    1    2    0    0 -0.36626798635E+03  0.28745284205E+03  0.50697605053E+03  0.69959295650E+03  0.12499685895E+03 0.  0.
          2    1    1    2  501    0  0.14286505405E+03 -0.10400348492E+03 -0.38707058956E+03  0.42550063437E+03  0.00000000000E+00 0. -1.
          1    1    1    2  502    0  0.22340293230E+03 -0.18344935713E+03  0.89928361854E+03  0.94460233080E+03  0.00000000000E+00 0. -1.
         22    1    3    3    0    0 -0.29988366038E+02  0.60808444826E+02  0.31770557442E+02  0.74875479163E+02  0.00000000000E+00 0. -1.
         22    1    3    3    0    0 -0.33627962031E+03  0.22664439723E+03  0.47520549308E+03  0.62471747734E+03  0.00000000000E+00 0. -1.
</event>
<event>
 7    1  0.5213103E-005  0.2356626E+03  0.7818608E-02  0.1186032E+00
          2   -1    0    0  502    0  0.00000000000E+00  0.00000000000E+00  0.18819972657E+04  0.18819972657E+04  0.00000000000E+00 0. -1.
          1   -1    0    0  501    0 -0.00000000000E+00 -0.00000000000E+00 -0.90509672331E+03  0.90509672331E+03  0.00000000000E+00 0. -1.
         25    2    1    2    0    0 -0.25468911152E+03 -0.15329724151E+03  0.11624601664E+04  0.12063591843E+04  0.12498902045E+03 0.  0.
          2    1    1    2  501    0  0.23093904054E+03  0.43956321415E+02 -0.86283095132E+03  0.89428309231E+03  0.00000000000E+00 0. -1.
          1    1    1    2  502    0  0.23750070981E+02  0.10934092009E+03  0.67727132732E+03  0.68645171242E+03  0.00000000000E+00 0. -1.
         22    1    3    3    0    0 -0.41636315992E+02 -0.28624440210E+02  0.43999038581E+03  0.44288201701E+03  0.00000000000E+00 0. -1.
         22    1    3    3    0    0 -0.21305279553E+03 -0.12467280130E+03  0.72246978062E+03  0.76347716730E+03  0.00000000000E+00 0. -1.
</event>
<event>
 7    1  0.5213103E-005  0.9968429E+03  0.7818608E-02  0.1063073E+00
          2   -1    0    0  502    0  0.00000000000E+00  0.00000000000E+00  0.22704043007E+04  0.22704043007E+04  0.00000000000E+00 0. -1.
          1   -1    0    0  501    0 -0.00000000000E+00 -0.00000000000E+00 -0.15100454646E+04  0.15100454646E+04  0.00000000000E+00 0. -1.
         25    2    1    2    0    0  0.63596486381E+03 -0.68880668214E+03  0.69015984454E+03  0.11708341714E+04  0.12500437024E+03 0.  0.
          2    1    1    2  501    0 -0.75660132305E+03  0.66990650218E+03 -0.10648399163E+04  0.14680273605E+04  0.00000000000E+00 0. -1.
          1    1    1    2  502    0  0.12063645924E+03  0.18900179959E+02  0.11350389079E+04  0.11415882333E+04  0.00000000000E+00 0. -1.
         22    1    3    3    0    0  0.57753635417E+03 -0.58462950722E+03  0.56163346782E+03  0.99537533287E+03  0.00000000000E+00 0. -1.
         22    1    3    3    0    0  0.58428509635E+02 -0.10417717492E+03  0.12852637672E+03  0.17545883855E+03  0.00000000000E+00 0. -1.
</event>
<event>
 7    1  0.5213103E-005  0.2436483E+03  0.7818608E-02  0.1218685E+00
          2   -1    0    0  502    0  0.00000000000E+00  0.00000000000E+00  0.39700000049E+04  0.39700000049E+04  0.00000000000E+00 0. -1.
          1   -1    0    0  501    0 -0.00000000000E+00 -0.00000000000E+00 -0.44717779930E+03  0.44717779930E+03  0.00000000000E+00 0. -1.
         25    2    1    2    0    0 -0.21736908522E+03  0.21687908669E+03  0.11273115022E+04  0.11750499193E+04  0.12500092974E+03 0.  0.
          2    1    1    2  501    0  0.53009948956E+02 -0.54483358050E+02 -0.41511663047E+03  0.42201932169E+03  0.00000000000E+00 0. -1.
          1    1    1    2  502    0  0.16435913627E+03 -0.16239572864E+03  0.28106273338E+04  0.28201085631E+04  0.00000000000E+00 0. -1.
         22    1    3    3    0    0 -0.23142010334E+03  0.18595443189E+03  0.10327480204E+04  0.10745709789E+04  0.00000000000E+00 0. -1.
         22    1    3    3    0    0  0.14051018116E+02  0.30924654805E+02  0.94563481807E+02  0.10047894046E+03  0.00000000000E+00 0. -1.
</event>
<event>
 7    1  0.5213103E-005  0.2271562E+03  0.7818608E-02  0.1203359E+00
          2   -1    0    0  502    0  0.00000000000E+00  0.00000000000E+00  0.20933647672E+04  0.20933647672E+04  0.00000000000E+00 0. -1.
          1   -1    0    0  501    0 -0.00000000000E+00 -0.00000000000E+00 -0.13708396535E+04  0.13708396535E+04  0.00000000000E+00 0. -1.
         25    2    1    2    0    0 -0.20895390390E+03  0.22247781029E+03  0.54154287141E+03  0.63407569639E+03  0.12500078858E+03 0.  0.
          2    1    1    2  501    0  0.18522651492E+03 -0.12945167318E+03 -0.13133833622E+04  0.13326824279E+04  0.00000000000E+00 0. -1.
          1    1    1    2  502    0  0.23727388981E+02 -0.93026137109E+02  0.14943656044E+04  0.14974462964E+04  0.00000000000E+00 0. -1.
         22    1    3    3    0    0 -0.21038897440E+03  0.15461666392E+03  0.41051422216E+03  0.48650977370E+03  0.00000000000E+00 0.  1.
         22    1    3    3    0    0  0.14350704966E+01  0.67861146371E+02  0.13102864926E+03  0.14756592269E+03  0.00000000000E+00 0.  1.
</event>
<event>
 7    1  0.5213103E-005  0.2977071E+03  0.7818608E-02  0.1112713E+00
          2   -1    0    0  502    0  0.00000000000E+00  0.00000000000E+00  0.75819424545E+03  0.75819424545E+03  0.00000000000E+00 0. -1.
          1   -1    0    0  501    0 -0.00000000000E+00 -0.00000000000E+00 -0.19909658263E+04  0.19909658263E+04  0.00000000000E+00 0. -1.
         25    2    1    2    0    0 -0.48152209464E+03  0.14016374624E+02 -0.82669911023E+02  0.50449824152E+03  0.12499670048E+03 0.  0.
          2    1    1    2  501    0  0.27828287646E+03 -0.72608946456E+02 -0.16641389888E+04  0.16888078614E+04  0.00000000000E+00 0. -1.
          1    1    1    2  502    0  0.20323921817E+03  0.58592571833E+02  0.51403731905E+03  0.55585396882E+03  0.00000000000E+00 0. -1.
         22    1    3    3    0    0 -0.41753203226E+03  0.46054959708E+02 -0.97925769285E+02  0.43132761744E+03  0.00000000000E+00 0. -1.
         22    1    3    3    0    0 -0.63990062375E+02 -0.32038585085E+02  0.15255858262E+02  0.73170624080E+02  0.00000000000E+00 0. -1.
</event>
<event>
 7    1  0.5213103E-005  0.3948216E+02  0.7818608E-02  0.1592607E+00
          2   -1    0    0  502    0  0.00000000000E+00  0.00000000000E+00  0.75581880421E+02  0.75581880421E+02  0.00000000000E+00 0. -1.
          1   -1    0    0  501    0 -0.00000000000E+00 -0.00000000000E+00 -0.23935501643E+03  0.23935501643E+03  0.00000000000E+00 0. -1.
         25    2    1    2    0    0 -0.20432571799E+02 -0.22060317131E+02  0.30200485022E+01  0.12860039954E+03  0.12499917794E+03 0.  0.
          2    1    1    2  501    0 -0.21987487568E+02 -0.84743816948E+01 -0.92799964431E+02  0.95744964114E+02  0.00000000000E+00 0. -1.
          1    1    1    2  502    0  0.42420059367E+02  0.30534698826E+02 -0.73993220078E+02  0.90591533195E+02  0.00000000000E+00 0. -1.
         22    1    3    3    0    0 -0.40396643701E+02 -0.15904202197E+02 -0.53175304724E+02  0.68647254149E+02  0.00000000000E+00 0.  1.
         22    1    3    3    0    0  0.19964071902E+02 -0.61561149342E+01  0.56195353226E+02  0.59953145390E+02  0.00000000000E+00 0.  1.
</event>
<event>
 7    1  0.5213103E-005  0.2588178E+03  0.7818608E-02  0.1313459E+00
          2   -1    0    0  502    0  0.00000000000E+00  0.00000000000E+00  0.13254232285E+04  0.13254232285E+04  0.00000000000E+00 0. -1.
          1   -1    0    0  501    0 -0.00000000000E+00 -0.00000000000E+00 -0.11257440310E+04  0.11257440310E+04  0.00000000000E+00 0. -1.
         25    2    1    2    0    0  0.26587547064E+03  0.95257645795E+02  0.17540297908E+03  0.35518286488E+03  0.12499950987E+03 0.  0.
          2    1    1    2  501    0 -0.23927957187E+02 -0.15327609798E+02 -0.10203422368E+04  0.10207378522E+04  0.00000000000E+00 0. -1.
          1    1    1    2  502    0 -0.24194751345E+03 -0.79930035997E+02  0.10446184552E+04  0.10752465424E+04  0.00000000000E+00 0. -1.
         22    1    3    3    0    0  0.92896256614E+02  0.85694759078E+01 -0.10837729398E+01  0.93296971944E+02  0.00000000000E+00 0.  1.
         22    1    3    3    0    0  0.17297921403E+03  0.86688169887E+02  0.17648675202E+03  0.26188589294E+03  0.00000000000E+00 0.  1.
</event>
<event>
 7    1  0.5213103E-005  0.7484089E+03  0.7818608E-02  0.1170167E+00
          2   -1    0    0  502    0  0.00000000000E+00  0.00000000000E+00  0.11169223894E+04  0.11169223894E+04  0.00000000000E+00 0. -1.
          1   -1    0    0  501    0 -0.00000000000E+00 -0.00000000000E+00 -0.17628653629E+04  0.17628653629E+04  0.00000000000E+00 0. -1.
         25    2    1    2    0    0 -0.19544270140E+03 -0.74371462630E+03 -0.11083964274E+03  0.78690483543E+03  0.12499799488E+03 0.  0.
          2    1    1    2  501    0  0.21937695314E+03  0.70903712336E+03 -0.12084756186E+04  0.14181936435E+04  0.00000000000E+00 0. -1.
          1    1    1    2  502    0 -0.23934251742E+02  0.34677502941E+02  0.67337228779E+03  0.67468927336E+03  0.00000000000E+00 0. -1.
         22    1    3    3    0    0  0.14052898657E+02 -0.71711655118E+02 -0.27537497335E+02  0.78091991907E+02  0.00000000000E+00 0. -1.
         22    1    3    3    0    0 -0.20949560005E+03 -0.67200297118E+03 -0.83302145405E+02  0.70881284352E+03  0.00000000000E+00 0. -1.
</event>
<event>
 7    1  0.5213103E-005  0.4159840E+03  0.7818608E-02  0.1218678E+00
          2   -1    0    0  502    0  0.00000000000E+00  0.00000000000E+00  0.15387756769E+03  0.15387756769E+03  0.00000000000E+00 0. -1.
          1   -1    0    0  501    0 -0.00000000000E+00 -0.00000000000E+00 -0.14906921775E+04  0.14906921775E+04  0.00000000000E+00 0. -1.
         25    2    1    2    0    0 -0.38427214449E+03 -0.20383802089E+03 -0.50868505577E+03  0.68088314558E+03  0.12500540863E+03 0.  0.
          2    1    1    2  501    0  0.37283564086E+03  0.16080439380E+03 -0.82444494814E+03  0.91900704060E+03  0.00000000000E+00 0. -1.
          1    1    1    2  502    0  0.11436503637E+02  0.43033627087E+02 -0.36846059371E+01  0.44679559047E+02  0.00000000000E+00 0. -1.
         22    1    3    3    0    0 -0.54387133090E+02 -0.71601645678E+02 -0.15678958111E+03  0.18074216069E+03  0.00000000000E+00 0. -1.
         22    1    3    3    0    0 -0.32988501141E+03 -0.13223637521E+03 -0.35189547466E+03  0.50014098489E+03  0.00000000000E+00 0. -1.
</event>
<event>
 7    1  0.5213103E-005  0.1023535E+04  0.7818608E-02  0.1036513E+00
          2   -1    0    0  502    0  0.00000000000E+00  0.00000000000E+00  0.15690157296E+04  0.15690157296E+04  0.00000000000E+00 0. -1.
          1   -1    0    0  501    0 -0.00000000000E+00 -0.00000000000E+00 -0.18005353488E+04  0.18005353488E+04  0.00000000000E+00 0. -1.
         25    2    1    2    0    0 -0.54218989911E+03 -0.95532366075E+03  0.27324125977E+03  0.11388147834E+04  0.12500056544E+03 0.  0.
          2    1    1    2  501    0  0.36956785535E+03  0.93560513235E+03 -0.11701079069E+04  0.15430780529E+04  0.00000000000E+00 0. -1.
          1    1    1    2  502    0  0.17262204376E+03  0.19718528394E+02  0.66534702795E+03  0.68765824212E+03  0.00000000000E+00 0. -1.
         22    1    3    3    0    0 -0.26636663646E+03 -0.36806697489E+03  0.14958264261E+03  0.47832985481E+03  0.00000000000E+00 0.  1.
         22    1    3    3    0    0 -0.27582326264E+03 -0.58725668585E+03  0.12365861715E+03  0.66048492859E+03  0.00000000000E+00 0.  1.
</event>
<event>
 7    1  0.5213103E-005  0.9463873E+03  0.7818608E-02  0.1190004E+00
          2   -1    0    0  502    0  0.00000000000E+00  0.00000000000E+00  0.11426135180E+04  0.11426135180E+04  0.00000000000E+00 0. -1.
          1   -1    0    0  501    0 -0.00000000000E+00 -0.00000000000E+00 -0.20877703940E+04  0.20877703940E+04  0.00000000000E+00 0. -1.
         25    2    1    2    0    0 -0.78412493767E+03  0.56282972205E+03 -0.11049325763E+04  0.14724573921E+04  0.12500223773E+03 0.  0.
          2    1    1    2  501    0  0.96033135638E+01 -0.24872528638E+02 -0.56682499988E+03  0.56745171319E+03  0.00000000000E+00 0. -1.
          1    1    1    2  502    0  0.77452162411E+03 -0.53795719341E+03  0.72660070016E+03  0.11904748068E+04  0.00000000000E+00 0. -1.
         22    1    3    3    0    0 -0.18388369905E+03  0.18807966241E+03 -0.34875543635E+03  0.43682665736E+03  0.00000000000E+00 0. -1.
         22    1    3    3    0    0 -0.60024123862E+03  0.37475005964E+03 -0.75617713993E+03  0.10356307347E+04  0.00000000000E+00 0. -1.
</event>
<event>
 7    1  0.5213103E-005  0.6154160E+03  0.7818608E-02  0.1134000E+00
          2   -1    0    0  502    0  0.00000000000E+00  0.00000000000E+00  0.90366052360E+03  0.90366052360E+03  0.00000000000E+00 0. -1.
          1   -1    0    0  501    0 -0.00000000000E+00 -0.00000000000E+00 -0.10601127839E+04  0.10601127839E+04  0.00000000000E+00 0. -1.
         25    2    1    2    0    0  0.41065914802E+03 -0.46843428024E+03  0.96774200526E+02  0.64269355692E+03  0.12497260283E+03 0.  0.
          2    1    1    2  501    0 -0.45980366514E+03  0.40717713575E+03 -0.66305170404E+03  0.90379765024E+03  0.00000000000E+00 0. -1.
          1    1    1    2  502    0  0.49144517122E+02  0.61257144498E+02  0.40982524320E+03  0.41728210036E+03  0.00000000000E+00 0. -1.
         22    1    3    3    0    0  0.14593591156E+03 -0.26045387882E+03  0.52728922059E+02  0.30317297455E+03  0.00000000000E+00 0.  1.
         22    1    3    3    0    0  0.26472323646E+03 -0.20798040142E+03  0.44045278468E+02  0.33952058237E+03  0.00000000000E+00 0.  1.
</event>
<event>
 7    1  0.5213103E-005  0.2955713E+03  0.7818608E-02  0.1202631E+00
          2   -1    0    0  502    0  0.00000000000E+00  0.00000000000E+00  0.17093915132E+04  0.17093915132E+04  0.00000000000E+00 0. -1.
          1   -1    0    0  501    0 -0.00000000000E+00 -0.00000000000E+00 -0.43358986239E+03  0.43358986239E+03  0.00000000000E+00 0. -1.
         25    2    1    2    0    0 -0.44558992562E+01 -0.33178978383E+03  0.71430589960E+03  0.79747260296E+03  0.12500127429E+03 0.  0.
          2    1    1    2  501    0 -0.47279841796E+02  0.57400205595E+02 -0.36776267372E+03  0.37520601171E+03  0.00000000000E+00 0. -1.
          1    1    1    2  502    0  0.51735741052E+02  0.27438957823E+03  0.92925842491E+03  0.97030276090E+03  0.00000000000E+00 0. -1.
         22    1    3    3    0    0  0.23555361765E+02 -0.12124617116E+03  0.39594623739E+03  0.41476368210E+03  0.00000000000E+00 0.  1.
         22    1    3    3    0    0 -0.28011261021E+02 -0.21054361266E+03  0.31835966221E+03  0.38270892086E+03  0.00000000000E+00 0.  1.
</event>
<event>
 7    1  0.5213103E-005  0.8975124E+02  0.7818608E-02  0.1363857E+00
          2   -1    0    0  502    0  0.00000000000E+00  0.00000000000E+00  0.86054366305E+03  0.86054366305E+03  0.00000000000E+00 0. -1.
          1   -1    0    0  501    0 -0.00000000000E+00 -0.00000000000E+00 -0.26599454327E+03  0.26599454327E+03  0.00000000000E+00 0. -1.
         25    2    1    2    0    0 -0.24226914483E+00  0.86990940219E+02  0.44777502763E+03  0.47296516892E+03  0.12500437302E+03 0.  0.
          2    1    1    2  501    0 -0.51083411548E+02 -0.74178581329E+02 -0.24355534173E+03  0.25967514581E+03  0.00000000000E+00 0. -1.
          1    1    1    2  502    0  0.51325680693E+02 -0.12812358891E+02  0.39032943388E+03  0.39389789159E+03  0.00000000000E+00 0. -1.
         22    1    3    3    0    0  0.62473242218E+01 -0.28505770504E+01  0.29877722543E+03  0.29885612807E+03  0.00000000000E+00 0. -1.
         22    1    3    3    0    0 -0.64895933666E+01  0.89841517270E+02  0.14899780220E+03  0.17410904085E+03  0.00000000000E+00 0. -1.
</event>
<event>
 7    1  0.5213103E-005  0.1192775E+04  0.7818608E-02  0.1074880E+00
          2   -1    0    0  502    0  0.00000000000E+00  0.00000000000E+00  0.18352779256E+04  0.18352779256E+04  0.00000000000E+00 0. -1.
          1   -1    0    0  501    0 -0.00000000000E+00 -0.00000000000E+00 -0.24609468766E+04  0.24609468766E+04  0.00000000000E+00 0. -1.
         25    2    1    2    0    0 -0.10506202095E+04 -0.59772723799E+03 -0.84971549739E+03  0.14828079669E+04  0.12498945832E+03 0.  0.
          2    1    1    2  501    0  0.10636794879E+04  0.51196359572E+03 -0.10237809070E+04  0.15625773971E+04  0.00000000000E+00 0. -1.
          1    1    1    2  502    0 -0.13059278429E+02  0.85763642267E+02  0.12478274533E+04  0.12508394383E+04  0.00000000000E+00 0. -1.
         22    1    3    3    0    0 -0.81218679439E+03 -0.49535157358E+03 -0.61411394260E+03  0.11323234984E+04  0.00000000000E+00 0.  1.
         22    1    3    3    0    0 -0.23843341506E+03 -0.10237566441E+03 -0.23560155479E+03  0.35048446856E+03  0.00000000000E+00 0.  1.
</event>
<event>
 7    1  0.5213103E-005  0.4150958E+03  0.7818608E-02  0.1238414E+00
          2   -1    0    0  502    0  0.00000000000E+00  0.00000000000E+00  0.15432863734E+04  0.15432863734E+04  0.00000000000E+00 0. -1.
          1   -1    0    0  501    0 -0.00000000000E+00 -0.00000000000E+00 -0.32381780689E+03  0.32381780689E+03  0.00000000000E+00 0. -1.
         25    2    1    2    0    0  0.37937186609E+03 -0.21189958095E+03  0.31584162091E+03  0.55154848098E+03  0.12500140871E+03 0.  0.
          2    1    1    2  501    0 -0.10640330379E+02  0.34787442778E+02 -0.16622921110E+03  0.17016325523E+03  0.00000000000E+00 0. -1.
          1    1    1    2  502    0 -0.36873153571E+03  0.17711213817E+03  0.10698561567E+04  0.11453924441E+04  0.00000000000E+00 0. -1.
         22    1    3    3    0    0  0.18877302564E+03 -0.17244907412E+03  0.20377488799E+03  0.32695281517E+03  0.00000000000E+00 0.  1.
         22    1    3    3    0    0  0.19059884045E+03 -0.39450506833E+02  0.11206673292E+03  0.22459566581E+03  0.00000000000E+00 0.  1.
</event>
<event>
 7    1  0.5213103E-005  0.7624251E+02  0.7818608E-02  0.1430784E+00
          2   -1    0    0  502    0  0.00000000000E+00  0.00000000000E+00  0.17536327527E+04  0.17536327527E+04  0.00000000000E+00 0. -1.
          1   -1    0    0  501    0 -0.00000000000E+00 -0.00000000000E+00 -0.20441549559E+03  0.20441549559E+03  0.00000000000E+00 0. -1.
         25    2    1    2    0    0  0.40551959075E+02  0.17010071534E+02  0.26674342537E+03  0.29784462307E+03  0.12500224235E+03 0.  0.
          2    1    1    2  501    0 -0.76498266997E+02 -0.10287078095E+02 -0.18074055160E+03  0.19653232767E+03  0.00000000000E+00 0. -1.
          1    1    1    2  502    0  0.35946307921E+02 -0.67229934392E+01  0.14632143834E+04  0.14636712976E+04  0.00000000000E+00 0. -1.
         22    1    3    3    0    0 -0.18584480594E+02  0.48263630513E+01 -0.46994283798E+01  0.19767683889E+02  0.00000000000E+00 0.  1.
         22    1    3    3    0    0  0.59136439669E+02  0.12183708482E+02  0.27144285375E+03  0.27807693918E+03  0.00000000000E+00 0.  1.
</event>
<event>
 7    1  0.5213103E-005  0.2900512E+03  0.7818608E-02  0.1283472E+00
          2   -1    0    0  502    0  0.00000000000E+00  0.00000000000E+00  0.97044694400E+03  0.97044694400E+03  0.00000000000E+00 0. -1.
          1   -1    0    0  501    0 -0.00000000000E+00 -0.00000000000E+00 -0.11988973115E+04  0.11988973115E+04  0.00000000000E+00 0. -1.
         25    2    1    2    0    0  0.31832784727E+03  0.44081585098E+02 -0.34492910660E+03  0.48772697877E+03  0.12500285096E+03 0.  0.
          2    1    1    2  501    0 -0.33451893900E+02  0.31230778603E+00 -0.75907662733E+03  0.75981343296E+03  0.00000000000E+00 0. -1.
          1    1    1    2  502    0 -0.28487595337E+03 -0.44393892884E+02  0.87555536648E+03  0.92180384373E+03  0.00000000000E+00 0. -1.
         22    1    3    3    0    0  0.26831431307E+03  0.21969359807E+02 -0.33874730892E+03  0.43269499959E+03  0.00000000000E+00 0. -1.
         22    1    3    3    0    0  0.50013534198E+02  0.22112225291E+02 -0.61817976843E+01  0.55031979184E+02  0.00000000000E+00 0. -1.
</event>
<event>
 7    1  0.5213103E-005  0.3941733E+03  0.7818608E-02  0.1115999E+00
          2   -1    0    0  502    0  0.00000000000E+00  0.00000000000E+00  0.39799623491E+03  0.39799623491E+03  0.00000000000E+00 0. -1.
          1   -1    0    0  501    0 -0.00000000000E+00 -0.00000000000E+00 -0.33562316944E+04  0.33562316944E+04  0.00000000000E+00 0. -1.
         25    2    1    2    0    0  0.39812573313E+03 -0.80658931765E+02  0.15888653884E+03  0.45373537666E+03  0.12498358754E+03 0.  0.
          2    1    1    2  501    0 -0.79884891218E+02 -0.13078999996E+03 -0.27993300266E+04  0.28035221094E+04  0.00000000000E+00 0. -1.
          1    1    1    2  502    0 -0.31824084191E+03  0.21144893173E+03 -0.31779197170E+03  0.49697044325E+03  0.00000000000E+00 0. -1.
         22    1    3    3    0    0  0.24894141398E+03 -0.57213979827E+02  0.16238720793E+03  0.30267948788E+03  0.00000000000E+00 0.  1.
         22    1    3    3    0    0  0.14918431915E+03 -0.23444951937E+02 -0.35006690923E+01  0.15105588878E+03  0.00000000000E+00 0.  1.
</event>
<event>
 7    1  0.5213103E-005  0.6427918E+03  0.7818608E-02  0.1176996E+00
          2   -1    0    0  502    0  0.00000000000E+00  0.00000000000E+00  0.11268375205E+04  0.11268375205E+04  0.00000000000E+00 0. -1.
          1   -1    0    0  501    0 -0.00000000000E+00 -0.00000000000E+00 -0.60923912328E+03  0.60923912328E+03  0.00000000000E+00 0. -1.
         25    2    1    2    0    0 -0.66820213552E+03 -0.48882293773E+02  0.24347219855E+03  0.72372937943E+03  0.12498772187E+03 0.  0.
          2    1    1    2  501    0  0.43755694766E+02  0.12086746379E+02 -0.21408845974E+03  0.21884816393E+03  0.00000000000E+00 0. -1.
          1    1    1    2  502    0  0.62444644076E+03  0.36795547394E+02  0.48821465839E+03  0.79349910041E+03  0.00000000000E+00 0. -1.
         22    1    3    3    0    0 -0.20659199221E+03  0.40529981597E+02  0.58940967254E+02  0.21862517758E+03  0.00000000000E+00 0.  1.
         22    1    3    3    0    0 -0.46161014332E+03 -0.89412275369E+02  0.18453123129E+03  0.50510420184E+03  0.00000000000E+00 0.  1.
</event>
<event>
 7    1  0.5213103E-005  0.6156207E+03  0.7818608E-02  0.1194504E+00
          2   -1    0    0  502    0  0.00000000000E+00  0.00000000000E+00  0.22097838503E+04  0.22097838503E+04  0.00000000000E+00 0. -1.
          1   -1    0    0  501    0 -0.00000000000E+00 -0.00000000000E+00 -0.64246274382E+03  0.64246274382E+03  0.00000000000E+00 0. -1.
         25    2    1    2    0    0  0.44226820870E+03 -0.46197440845E+03  0.19664996512E+03  0.68067473162E+03  0.12500143596E+03 0.  0.
          2    1    1    2  501    0 -0.42714183647E+03  0.42601976451E+03 -0.17285551802E+03  0.62755240285E+03  0.00000000000E+00 0. -1.
          1    1    1    2  502    0 -0.15126372225E+02  0.35954643946E+02  0.15435266594E+04  0.15440194597E+04  0.00000000000E+00 0. -1.
         22    1    3    3    0    0  0.31284743283E+03 -0.39133956685E+03  0.17966062946E+03  0.53225756415E+03  0.00000000000E+00 0. -1.
         22    1    3    3    0    0  0.12942077587E+03 -0.70634841599E+02  0.16989335658E+02  0.14841716747E+03  0.00000000000E+00 0. -1.
</event>
<event>
 7    1  0.5213103E-005  0.4125725E+03  0.7818608E-02  0.1242721E+00
          2   -1    0    0  502    0  0.00000000000E+00  0.00000000000E+00  0.29924704090E+04  0.29924704090E+04  0.00000000000E+00 0. -1.
          1   -1    0    0  501    0 -0.00000000000E+00 -0.00000000000E+00 -0.11086982437E+03  0.11086982437E+03  0.00000000000E+00 0. -1.
         25    2    1    2    0    0  0.32014390135E+03  0.26359317479E+03  0.18566610432E+04  0.19065115337E+04  0.12499007759E+03 0.  0.
          2    1    1    2  501    0 -0.26534530416E+02  0.22878570779E+02 -0.41443090715E+02  0.54268223422E+02  0.00000000000E+00 0. -1.
          1    1    1    2  502    0 -0.29360937094E+03 -0.28647174557E+03  0.10663826322E+04  0.11425604763E+04  0.00000000000E+00 0. -1.
         22    1    3    3    0    0 -0.88806304285E+01 -0.25897176857E+01  0.26958658167E+02  0.28501604949E+02  0.00000000000E+00 0. -1.
         22    1    3    3    0    0  0.32902453178E+03  0.26618289248E+03  0.18297023850E+04  0.18780099287E+04  0.00000000000E+00 0. -1.
</event>
<event>
 7    1  0.5213103E-005  0.6614223E+03  0.7818608E-02  0.1096496E+00
          2   -1    0    0  502    0  0.00000000000E+00  0.00000000000E+00  0.20051217341E+04  0.20051217341E+04  0.00000000000E+00 0. -1.
          1   -1    0    0  501    0 -0.00000000000E+00 -0.00000000000E+00 -0.11855303471E+04  0.11855303471E+04  0.00000000000E+00 0. -1.
         25    2    1    2    0    0  0.74755491468E+03  0.48896727540E+02  0.54332985867E+03  0.93384279843E+03  0.12500318568E+03 0.  0.
          2    1    1    2  501    0 -0.64894280395E+03  0.14605108812E+02 -0.88061960412E+03  0.10939976961E+04  0.00000000000E+00 0. -1.
          1    1    1    2  502    0 -0.98612110727E+02 -0.63501836352E+02  0.11568811324E+04  0.11628115867E+04  0.00000000000E+00 0. -1.
         22    1    3    3    0    0  0.11847795680E+03  0.51864859540E+02  0.11202435780E+03  0.17110361376E+03  0.00000000000E+00 0.  1.
         22    1    3    3    0    0  0.62907695788E+03 -0.29681320003E+01  0.43130550087E+03  0.76273918467E+03  0.00000000000E+00 0.  1.
</event>
<event>
 7    1  0.5213103E-005  0.1519138E+03  0.7818608E-02  0.1307143E+00
          2   -1    0    0  502    0  0.00000000000E+00  0.00000000000E+00  0.68720816540E+03  0.68720816540E+03  0.00000000000E+00 0. -1.
          1   -1    0    0  501    0 -0.00000000000E+00 -0.00000000000E+00 -0.54449167410E+03  0.54449167410E+03  0.00000000000E+00 0. -1.
         25    2    1    2    0    0 -0.77695117129E+02  0.16484471893E+03  0.44780363520E+03  0.49936284404E+03  0.12499936688E+03 0.  0.
          2    1    1    2  501    0  0.96020133461E+02 -0.11696388005E+03 -0.50436082282E+03  0.52657407348E+03  0.00000000000E+00 0. -1.
          1    1    1    2  502    0 -0.18325016332E+02 -0.47880838878E+02  0.19927367891E+03  0.20576292198E+03  0.00000000000E+00 0. -1.
         22    1    3    3    0    0  0.15292653517E+02  0.11187362957E+03  0.25421509890E+03  0.27816342454E+03  0.00000000000E+00 0. -1.
         22    1    3    3    0    0 -0.92987770647E+02  0.52971089366E+02  0.19358853631E+03  0.22119941950E+03  0.00000000000E+00 0. -1.
</event>
<event>
 7    1  0.5213103E-005  0.4823314E+03  0.7818608E-02  0.1252318E+00
          2   -1    0    0  502    0  0.00000000000E+00  0.00000000000E+00  0.19289556091E+03  0.19289556091E+03  0.00000000000E+00 0. -1.
          1   -1    0    0  501    0 -0.00000000000E+00 -0.00000000000E+00 -0.20371657791E+04  0.20371657791E+04  0.00000000000E+00 0. -1.
         25    2    1    2    0    0 -0.31262716972E+03  0.36834892967E+03 -0.79109242953E+03  0.93534468525E+03  0.12500306767E+03 0.  0.
          2    1    1    2  501    0  0.33216557966E+03 -0.34939929116E+03 -0.11217406322E+04  0.12209487635E+04  0.00000000000E+00 0. -1.
          1    1    1    2  502    0 -0.19538409941E+02 -0.18949638507E+02  0.68562843598E+02  0.73767891286E+02  0.00000000000E+00 0. -1.
         22    1    3    3    0    0 -0.17878249744E+03  0.19161311564E+03 -0.54101877614E+03  0.60114896957E+03  0.00000000000E+00 0.  1.
         22    1    3    3    0    0 -0.13384467228E+03  0.17673581403E+03 -0.25007365339E+03  0.33419571568E+03  0.00000000000E+00 0.  1.
</event>
<event>
 7    1  0.5213103E-005  0.1572778E+03  0.7818608E-02  0.1257807E+00
          2   -1    0    0  502    0  0.00000000000E+00  0.00000000000E+00  0.75328927939E+03  0.75328927939E+03  0.00000000000E+00 0. -1.
          1   -1    0    0  501    0 -0.00000000000E+00 -0.00000000000E+00 -0.34644146062E+03  0.34644146062E+03  0.00000000000E+00 0. -1.
         25    2    1    2    0    0 -0.14298259202E+03 -0.91939778765E+02 -0.19382880087E+03  0.28651638052E+03  0.12500035088E+03 0.  0.
          2    1    1    2  501    0  0.65048147458E+02 -0.44925832188E+02 -0.81234001962E+02  0.11335146651E+03  0.00000000000E+00 0. -1.
          1    1    1    2  502    0  0.77934444561E+02  0.13686561095E+03  0.68191062160E+03  0.69986289297E+03  0.00000000000E+00 0. -1.
         22    1    3    3    0    0 -0.69270724744E+02 -0.34330195069E+02 -0.70674655197E+01  0.77633399184E+02  0.00000000000E+00 0. -1.
         22    1    3    3    0    0 -0.73711867275E+02 -0.57609583696E+02 -0.18676133535E+03  0.20888298134E+03  0.00000000000E+00 0. -1.
</event>
<event>
 7    1  0.5213103E-005  0.7298123E+03  0.7818608E-02  0.1102434E+00
          2   -1    0    0  502    0  0.00000000000E+00  0.00000000000E+00  0.17529329783E+04  0.17529329783E+04  0.00000000000E+00 0. -1.
          1   -1    0    0  501    0 -0.00000000000E+00 -0.00000000000E+00 -0.27928749101E+04  0.27928749101E+04  0.00000000000E+00 0. -1.
         25    2    1    2    0    0  0.79708074095E+03  0.10743572424E+03  0.18391216051E+03  0.83446244580E+03  0.12499499277E+03 0.  0.
          2    1    1    2  501    0 -0.94991326563E+02 -0.25710004775E+02 -0.23660701068E+04  0.23681157292E+04  0.00000000000E+00 0. -1.
          1    1    1    2  502    0 -0.70208941439E+03 -0.81725719467E+02  0.11422160145E+04  0.13432297134E+04  0.00000000000E+00 0. -1.
         22    1    3    3    0    0  0.14701465101E+03  0.11561517497E+02  0.84282510325E+02  0.16985440190E+03  0.00000000000E+00 0. -1.
         22    1    3    3    0    0  0.65006608994E+03  0.95874206746E+02  0.99629650183E+02  0.66460804389E+03  0.00000000000E+00 0. -1.
</event>
<event>
 7    1  0.5213103E-005  0.1135229E+03  0.7818608E-02  0.1299407E+00
          2   -1    0    0  502    0  0.00000000000E+00  0.00000000000E+00  0.53508913915E+03  0.53508913915E+03  0.00000000000E+00 0. -1.
          1   -1    0    0  501    0 -0.00000000000E+00 -0.00000000000E+00 -0.22766227158E+03  0.22766227158E+03  0.00000000000E+00 0. -1.
         25    2    1    2    0    0 -0.18285729109E+02 -0.43121715408E+02 -0.67863601151E+02  0.14972262429E+03  0.12497017898E+03 0.  0.
          2    1    1    2  501    0  0.91727219515E+00 -0.73643645509E+02 -0.99494676099E+02  0.12378779618E+03  0.00000000000E+00 0. -1.
          1    1    1    2  502    0  0.17368456914E+02  0.11676536092E+03  0.47478514482E+03  0.48924099025E+03  0.00000000000E+00 0. -1.
         22    1    3    3    0    0  0.22997840540E+01  0.21927748564E+02  0.25739779725E+02  0.33891760416E+02  0.00000000000E+00 0. -1.
         22    1    3    3    0    0 -0.20585513163E+02 -0.65049463972E+02 -0.93603380876E+02  0.11583086388E+03  0.00000000000E+00 0. -1.
</event>
<event>
 7    1  0.5213103E-005  0.1405330E+03  0.7818608E-02  0.1218582E+00
          2   -1    0    0  502    0  0.00000000000E+00  0.00000000000E+00  0.15873364879E+04  0.15873364879E+04  0.00000000000E+00 0. -1.
          1   -1    0    0  501    0 -0.00000000000E+00 -0.00000000000E+00 -0.10182332424E+04  0.10182332424E+04  0.00000000000E+00 0. -1.
         25    2    1    2    0    0  0.12025478695E+03 -0.23685627726E+03 -0.10835883875E+03  0.31293692602E+03  0.12500308744E+03 0.  0.
          2    1    1    2  501    0 -0.62558951323E+02  0.11820464711E+03 -0.79908686826E+03  0.81020107629E+03  0.00000000000E+00 0. -1.
          1    1    1    2  502    0 -0.57695835630E+02  0.11865163015E+03  0.14765489526E+04  0.14824317280E+04  0.00000000000E+00 0. -1.
         22    1    3    3    0    0  0.43575563192E+02 -0.13003876172E+03  0.79669040500E+01  0.13737678413E+03  0.00000000000E+00 0. -1.
         22    1    3    3    0    0  0.76679223760E+02 -0.10681751553E+03 -0.11632574280E+03  0.17556014189E+03  0.00000000000E+00 0. -1.
</event>
<event>
 7    1  0.5213103E-005  0.3529052E+03  0.7818608E-02  0.1239025E+00
          2   -1    0    0  502    0  0.00000000000E+00  0.00000000000E+00  0.11445192222E+04  0.11445192222E+04  0.00000000000E+00 0. -1.
          1   -1    0    0  501    0 -0.00000000000E+00 -0.00000000000E+00 -0.59849282115E+03  0.59849282115E+03  0.00000000000E+00 0. -1.
         25    2    1    2    0    0 -0.23964837703E+03 -0.25757875946E+03  0.47954015455E+03  0.60775191827E+03  0.12500188957E+03 0.  0.
          2    1    1    2  501    0 -0.31512789024E+02  0.28551610338E+02 -0.48095073141E+03  0.48282694246E+03  0.00000000000E+00 0. -1.
          1    1    1    2  502    0  0.27116116605E+03  0.22902714912E+03  0.54743697791E+03  0.65243318263E+03  0.00000000000E+00 0. -1.
         22    1    3    3    0    0 -0.99655995789E+02 -0.10236978533E+03  0.99746552621E+02  0.17424197314E+03  0.00000000000E+00 0. -1.
         22    1    3    3    0    0 -0.13999238124E+03 -0.15520897413E+03  0.37979360193E+03  0.43350994513E+03  0.00000000000E+00 0. -1.
</event>
<event>
 7    1  0.5213103E-005  0.7073156E+02  0.7818608E-02  0.1477620E+00
          2   -1    0    0  502    0  0.00000000000E+00  0.00000000000E+00  0.54900909671E+03  0.54900909671E+03  0.00000000000E+00 0. -1.
          1   -1    0    0  501    0 -0.00000000000E+00 -0.00000000000E+00 -0.15626998864E+03  0.15626998864E+03  0.00000000000E+00 0. -1.
         25    2    1    2    0    0  0.30464068820E+02 -0.93231643677E+02  0.48822971764E+03  0.51343347724E+03  0.12500191795E+03 0.  0.
          2    1    1    2  501    0 -0.19603663418E+02  0.67455888302E+02 -0.12979410673E+03  0.14758424925E+03  0.00000000000E+00 0. -1.
          1    1    1    2  502    0 -0.10860405403E+02  0.25775755376E+02  0.34303497157E+02  0.44261358857E+02  0.00000000000E+00 0. -1.
         22    1    3    3    0    0  0.21489627055E+02 -0.58359566576E+01  0.57203321891E+01  0.22990969128E+02  0.00000000000E+00 0. -1.
         22    1    3    3    0    0  0.89744417648E+01 -0.87395687020E+02  0.48250938546E+03  0.49044250812E+03  0.00000000000E+00 0. -1.
</event>
<event>
 7    1  0.5213103E-005  0.4083675E+03  0.7818608E-02  0.1091139E+00
          2   -1    0    0  502    0  0.00000000000E+00  0.00000000000E+00  0.12209351717E+04  0.12209351717E+04  0.00000000000E+00 0. -1.
          1   -1    0    0  501    0 -0.00000000000E+00 -0.00000000000E+00 -0.13947437801E+04  0.13947437801E+04  0.00000000000E+00 0. -1.
         25    2    1    2    0    0  0.49498268344E+03  0.96166525649E+02  0.48185117287E+03  0.70856392047E+03  0.12500567602E+03 0.  0.
          2    1    1    2  501    0 -0.12932263158E+03 -0.15752084298E+03 -0.12172367677E+04  0.12341809056E+04  0.00000000000E+00 0. -1.
          1    1    1    2  502    0 -0.36566005187E+03  0.61354317328E+02  0.56157698649E+03  0.67293412570E+03  0.00000000000E+00 0. -1.
         22    1    3    3    0    0  0.32931599190E+03  0.13687985167E+02  0.26099409694E+03  0.42042157663E+03  0.00000000000E+00 0.  1.
         22    1    3    3    0    0  0.16566669154E+03  0.82478540482E+02  0.22085707593E+03  0.28814234385E+03  0.00000000000E+00 0.  1.
</event>
<event>
 7    1  0.5213103E-005  0.6701928E+03  0.7818608E-02  0.1083133E+00
          2   -1    0    0  502    0  0.00000000000E+00  0.00000000000E+00  0.16553622146E+04  0.16553622146E+04  0.00000000000E+00 0. -1.
          1   -1    0    0  501    0 -0.00000000000E+00 -0.00000000000E+00 -0.14830869081E+04  0.14830869081E+04  0.00000000000E+00 0. -1.
         25    2    1    2    0    0  0.74580645327E+03 -0.20373715384E+03  0.25804270213E+03  0.82458928711E+03  0.12500145081E+03 0.  0.
          2    1    1    2  501    0 -0.12591995356E+03  0.56771688179E+02 -0.11040796431E+04  0.11126862620E+04  0.00000000000E+00 0. -1.
          1    1    1    2  502    0 -0.61988649970E+03  0.14696546566E+03  0.10183122475E+04  0.12011735736E+04  0.00000000000E+00 0. -1.
         22    1    3    3    0    0  0.23262622217E+03 -0.87718119483E+01  0.99690887021E+02  0.25323936677E+03  0.00000000000E+00 0.  1.
         22    1    3    3    0    0  0.51318023109E+03 -0.19496534189E+03  0.15835181511E+03  0.57134992034E+03  0.00000000000E+00 0.  1.
</event>
<event>
 7    1  0.5213103E-005  0.4324138E+03  0.7818608E-02  0.1207990E+00
          2   -1    0    0  502    0  0.00000000000E+00  0.00000000000E+00  0.14061430561E+04  0.14061430561E+04  0.00000000000E+00 0. -1.
          1   -1    0    0  501    0 -0.00000000000E+00 -0.00000000000E+00 -0.15156800698E+04  0.15156800698E+04  0.00000000000E+00 0. -1.
         25    2    1    2    0    0 -0.43571259948E+03 -0.49271495430E+02 -0.19926041631E+01  0.45596359176E+03  0.12500270768E+03 0.  0.
          2    1    1    2  501    0  0.42122007327E+03  0.95013234930E+02 -0.12499570878E+04  0.13224396343E+04  0.00000000000E+00 0. -1.
          1    1    1    2  502    0  0.14492526213E+02 -0.45741739500E+02  0.11424126783E+04  0.11434198999E+04  0.00000000000E+00 0. -1.
         22    1    3    3    0    0 -0.73116669489E+02  0.26911568486E+02  0.31287081351E+02  0.83959283793E+02  0.00000000000E+00 0.  1.
         22    1    3    3    0    0 -0.36259592999E+03 -0.76183063917E+02 -0.33279685514E+02  0.37200430796E+03  0.00000000000E+00 0.  1.
</event>
<event>
 7    1  0.5213103E-005  0.4827450E+03  0.7818608E-02  0.1265837E+00
          2   -1    0    0  502    0  0.00000000000E+00  0.00000000000E+00  0.62960456906E+03  0.62960456906E+03  0.00000000000E+00 0. -1.
          1   -1    0    0  501    0 -0.00000000000E+00 -0.00000000000E+00 -0.94253047425E+03  0.94253047425E+03  0.00000000000E+00 0. -1.
         25    2    1    2    0    0 -0.15834584198E+03  0.47296912585E+03 -0.29203996582E+03  0.59134244731E+03  0.12500139468E+03 0.  0.
          2    1    1    2  501    0  0.18016295995E+02 -0.15562233809E+02 -0.38113818076E+03  0.38188097999E+03  0.00000000000E+00 0. -1.
          1    1    1    2  502    0  0.14032954598E+03 -0.45740689204E+03  0.36025224139E+03  0.59891161601E+03  0.00000000000E+00 0. -1.
         22    1    3    3    0    0 -0.15796522684E+03  0.36212504995E+03 -0.26945796669E+03  0.47822082817E+03  0.00000000000E+00 0. -1.
         22    1    3    3    0    0 -0.38061514204E+00  0.11084407590E+03 -0.22581999139E+02  0.11312161913E+03  0.00000000000E+00 0. -1.
</event>
<event>
 7    1  0.5213103E-005  0.1148060E+04  0.7818608E-02  0.1012426E+00
          2   -1    0    0  502    0  0.00000000000E+00  0.00000000000E+00  0.21655167639E+04  0.21655167639E+04  0.00000000000E+00 0. -1.
          1   -1    0    0  501    0 -0.00000000000E+00 -0.00000000000E+00 -0.29289135855E+04  0.29289135855E+04  0.00000000000E+00 0. -1.
         25    2    1    2    0    0  0.11932880942E+04 -0.47955220465E+02 -0.63788134933E+02  0.12024683232E+04  0.12499985202E+03 0.  0.
          2    1    1    2  501    0 -0.83860833579E+02 -0.20590383252E+03 -0.20862541860E+04  0.20980671000E+04  0.00000000000E+00 0. -1.
          1    1    1    2  502    0 -0.11094272607E+04  0.25385905299E+03  0.13866454993E+04  0.17938949262E+04  0.00000000000E+00 0. -1.
         22    1    3    3    0    0  0.68534891594E+03  0.34357460626E+02 -0.36815527140E+02  0.68719644550E+03  0.00000000000E+00 0.  1.
         22    1    3    3    0    0  0.50793917831E+03 -0.82312681092E+02 -0.26972607793E+02  0.51527187765E+03  0.00000000000E+00 0.  1.
</event>
<event>
 7    1  0.5213103E-005  0.3223132E+02  0.7818608E-02  0.1597037E+00
          2   -1    0    0  502    0  0.00000000000E+00  0.00000000000E+00  0.28579726205E+02  0.28579726205E+02  0.00000000000E+00 0. -1.
          1   -1    0    0  501    0 -0.00000000000E+00 -0.00000000000E+00 -0.15156602870E+04  0.15156602870E+04  0.00000000000E+00 0. -1.
         25    2    1    2    0    0 -0.47325260052E+02  0.51721713125E+01 -0.49712972767E+03  0.51481033971E+03  0.12500115259E+03 0.  0.
          2    1    1    2  501    0  0.28113014814E+02  0.15335092029E+02 -0.99930106992E+03  0.99981405020E+03  0.00000000000E+00 0. -1.
          1    1    1    2  502    0  0.19212245238E+02 -0.20507263341E+02  0.93502367627E+01  0.29615623315E+02  0.00000000000E+00 0. -1.
         22    1    3    3    0    0  0.29040797852E+02 -0.35569711958E+02 -0.20770719277E+03  0.21272247244E+03  0.00000000000E+00 0.  1.
         22    1    3    3    0    0 -0.76366057904E+02  0.40741883271E+02 -0.28942253489E+03  0.30208786727E+03  0.00000000000E+00 0.  1.
</event>
<event>
 7    1  0.5213103E-005  0.3857439E+03  0.7818608E-02  0.1119135E+00
          2   -1    0    0  502    0  0.00000000000E+00  0.00000000000E+00  0.14432332591E+04  0.14432332591E+04  0.00000000000E+00 0. -1.
          1   -1    0    0  501    0 -0.00000000000E+00 -0.00000000000E+00 -0.42274317534E+03  0.42274317534E+03  0.00000000000E+00 0. -1.
         25    2    1    2    0    0 -0.79990506509E+02  0.36461376386E+03 -0.49679716315E+02  0.39678471409E+03  0.12501342806E+03 0.  0.
          2    1    1    2  501    0 -0.62890134493E+02 -0.41207477896E+03  0.29719037023E+02  0.41790431157E+03  0.00000000000E+00 0. -1.
          1    1    1    2  502    0  0.14288064100E+03  0.47461015092E+02  0.10404507631E+04  0.10512874088E+04  0.00000000000E+00 0. -1.
         22    1    3    3    0    0  0.13653503569E+02  0.15596691769E+03  0.19692085089E+02  0.15779694480E+03  0.00000000000E+00 0. -1.
         22    1    3    3    0    0 -0.93644010078E+02  0.20864684618E+03 -0.69371801404E+02  0.23898776930E+03  0.00000000000E+00 0. -1.
</event>
<event>
 7    1  0.5213103E-005  0.9094523E+03  0.7818608E-02  0.1125932E+00
          2   -1    0    0  502    0  0.00000000000E+00  0.00000000000E+00  0.18792640715E+04  0.18792640715E+04  0.00000000000E+00 0. -1.
          1   -1    0    0  501    0 -0.00000000000E+00 -0.00000000000E+00 -0.59835337296E+03  0.59835337296E+03  0.00000000000E+00 0. -1.
         25    2    1    2    0    0 -0.73670396900E+03 -0.49048569017E+03  0.37477543425E+03  0.96922199441E+03  0.12500279253E+03 0.  0.
          2    1    1    2  501    0  0.76265543425E+03  0.54311321239E+03  0.43285833025E+03  0.10314948410E+04  0.00000000000E+00 0. -1.
          1    1    1    2  502    0 -0.25951465254E+02 -0.52627522224E+02  0.47327693405E+03  0.47690060909E+03  0.00000000000E+00 0. -1.
         22    1    3    3    0    0 -0.41097034100E+03 -0.20723929009E+03  0.22497689865E+03  0.51230786590E+03  0.00000000000E+00 0.  1.
         22    1    3    3    0    0 -0.32573362800E+03 -0.28324640007E+03  0.14979853559E+03  0.45691412851E+03  0.00000000000E+00 0.  1.
</event>
<event>
 7    1  0.5213103E-005  0.2522048E+03  0.7818608E-02  0.1158849E+00
          2   -1    0    0  502    0  0.00000000000E+00  0.00000000000E+00  0.63386407068E+03  0.63386407068E+03  0.00000000000E+00 0. -1.
          1   -1    0    0  501    0 -0.00000000000E+00 -0.00000000000E+00 -0.45956676320E+03  0.45956676320E+03  0.00000000000E+00 0. -1.
         25    2    1    2    0    0 -0.20748910484E+03  0.23123732978E+03 -0.22710060717E+03  0.40462526601E+03  0.12499795521E+03 0.  0.
          2    1    1    2  501    0  0.18716906577E+03 -0.90201780287E+02 -0.51468880865E+02  0.21405061562E+03  0.00000000000E+00 0. -1.
          1    1    1    2  502    0  0.20320039070E+02 -0.14103554950E+03  0.45286679551E+03  0.47475495225E+03  0.00000000000E+00 0. -1.
         22    1    3    3    0    0 -0.16792037873E+03  0.94904415632E+02 -0.12769304441E+03  0.23132145445E+03  0.00000000000E+00 0. -1.
         22    1    3    3    0    0 -0.39568726108E+02  0.13633291415E+03 -0.99407562766E+02  0.17330381156E+03  0.00000000000E+00 0. -1.
</event>
<event>
 7    1  0.5213103E-005  0.1087551E+03  0.7818608E-02  0.1401715E+00
          2   -1    0    0  502    0  0.00000000000E+00  0.00000000000E+00  0.68473544814E+03  0.68473544814E+03  0.00000000000E+00 0. -1.
          1   -1    0    0  501    0 -0.00000000000E+00 -0.00000000000E+00 -0.13382350512E+03  0.13382350512E+03  0.00000000000E+00 0. -1.
         25    2    1    2    0    0  0.14879280215E+02  0.77517454078E+02 -0.39034953085E+02  0.15290316776E+03  0.12500120992E+03 0.  0.
          2    1    1    2  501    0  0.13815156125E+02  0.28974220117E+02 -0.25131795576E+02  0.40767280005E+02  0.00000000000E+00 0. -1.
          1    1    1    2  502    0 -0.28694436340E+02 -0.10649167420E+03  0.61507869167E+03  0.62488850550E+03  0.00000000000E+00 0. -1.
         22    1    3    3    0    0 -0.53734428123E+02  0.44289885356E+02 -0.31071909111E+02  0.76252516328E+02  0.00000000000E+00 0.  1.
         22    1    3    3    0    0  0.68613708338E+02  0.33227568723E+02 -0.79630439734E+01  0.76650651429E+02  0.00000000000E+00 0.  1.
</event>
<event>
 7    1  0.5213103E-005  0.8030110E+03  0.7818608E-02  0.1064517E+00
          2   -1    0    0  502    0  0.00000000000E+00  0.00000000000E+00  0.15902772332E+04  0.15902772332E+04  0.00000000000E+00 0. -1.
          1   -1    0    0  501    0 -0.00000000000E+00 -0.00000000000E+00 -0.22346438854E+04  0.22346438854E+04  0.00000000000E+00 0. -1.
         25    2    1    2    0    0 -0.60072978079E+03  0.63349760262E+03 -0.27153757797E+03  0.92279641148E+03  0.12500031490E+03 0.  0.
          2    1    1    2  501    0  0.14791179623E+03  0.13994649356E+02 -0.15100625603E+04  0.15173538433E+04  0.00000000000E+00 0. -1.
          1    1    1    2  502    0  0.45281798456E+03 -0.64749225198E+03  0.11372334861E+04  0.13847708638E+04  0.00000000000E+00 0. -1.
         22    1    3    3    0    0 -0.48182092575E+03  0.56361531107E+03 -0.20298532912E+03  0.76877608392E+03  0.00000000000E+00 0.  1.
         22    1    3    3    0    0 -0.11890885504E+03  0.69882291556E+02 -0.68552248847E+02  0.15402032756E+03  0.00000000000E+00 0.  1.
</event>
<event>
 7    1  0.5213103E-005  0.8313060E+03  0.7818608E-02  0.1082184E+00
          2   -1    0    0  502    0  0.00000000000E+00  0.00000000000E+00  0.18277898320E+04  0.18277898320E+04  0.00000000000E+00 0. -1.
          1   -1    0    0  501    0 -0.00000000000E+00 -0.00000000000E+00 -0.12306596080E+04  0.12306596080E+04  0.00000000000E+00 0. -1.
         25    2    1    2    0    0  0.76134441864E+03 -0.47707034319E+03 -0.13393197718E+03  0.91695424705E+03  0.12500352209E+03 0.  0.
          2    1    1    2  501    0 -0.65114929400E+03  0.45305991843E+03 -0.47868802228E+03  0.92649927978E+03  0.00000000000E+00 0. -1.
          1    1    1    2  502    0 -0.11019512464E+03  0.24010424766E+02  0.12097502234E+04  0.12149959132E+04  0.00000000000E+00 0. -1.
         22    1    3    3    0    0  0.90105625734E+02 -0.43566578046E+02  0.22859716443E+02  0.10266273495E+03  0.00000000000E+00 0.  1.
         22    1    3    3    0    0  0.67123879290E+03 -0.43350376515E+03 -0.15679169362E+03  0.81429151210E+03  0.00000000000E+00 0.  1.
</event>
<event>
 7    1  0.5213103E-005  0.4640148E+03  0.7818608E-02  0.1156850E+00
          2   -1    0    0  502    0  0.00000000000E+00  0.00000000000E+00  0.63961549387E+03  0.63961549387E+03  0.00000000000E+00 0. -1.
          1   -1    0    0  501    0 -0.00000000000E+00 -0.00000000000E+00 -0.91340732058E+03  0.91340732058E+03  0.00000000000E+00 0. -1.
         25    2    1    2    0    0  0.50666589968E+03 -0.64044171146E+02 -0.16266850242E+03  0.55036127199E+03  0.12499799308E+03 0.  0.
          2    1    1    2  501    0 -0.44287028051E+03  0.16978386001E+02 -0.46360920951E+03  0.64137029093E+03  0.00000000000E+00 0. -1.
          1    1    1    2  502    0 -0.63795619164E+02  0.47065785145E+02  0.35248588521E+03  0.36129125153E+03  0.00000000000E+00 0. -1.
         22    1    3    3    0    0  0.33741056144E+03 -0.99915490413E+02 -0.12378930140E+03  0.37303187978E+03  0.00000000000E+00 0. -1.
         22    1    3    3    0    0  0.16925533824E+03  0.35871319267E+02 -0.38879201025E+02  0.17732939221E+03  0.00000000000E+00 0. -1.
</event>
<event>
 7    1  0.5213103E-005  0.6328028E+03  0.7818608E-02  0.1147323E+00
          2   -1    0    0  502    0  0.00000000000E+00  0.00000000000E+00  0.29106583741E+04  0.29106583741E+04  0.00000000000E+00 0. -1.
          1   -1    0    0  501    0 -0.00000000000E+00 -0.00000000000E+00 -0.14579470854E+04  0.14579470854E+04  0.00000000000E+00 0. -1.
         25    2    1    2    0    0 -0.69026021857E+03 -0.48351686472E+02  0.16796403715E+04  0.18208828760E+04  0.12500246333E+03 0.  0.
          2    1    1    2  501    0  0.62993757258E+03  0.24003636577E+02 -0.13146918046E+04  0.14580164817E+04  0.00000000000E+00 0. -1.
          1    1    1    2  502    0  0.60322645997E+02  0.24348049895E+02  0.10877627219E+04  0.10897061018E+04  0.00000000000E+00 0. -1.
         22    1    3    3    0    0 -0.96987948122E+02  0.27518724499E+02  0.17894108357E+03  0.20538708252E+03  0.00000000000E+00 0.  1.
         22    1    3    3    0    0 -0.59327227045E+03 -0.75870410971E+02  0.15006992879E+04  0.16154957935E+04  0.00000000000E+00 0.  1.
</event>
<event>
 7    1  0.5213103E-005  0.1177659E+03  0.7818608E-02  0.1255167E+00
          2   -1    0    0  502    0  0.00000000000E+00  0.00000000000E+00  0.17258801914E+04  0.17258801914E+04  0.00000000000E+00 0. -1.
          1   -1    0    0  501    0 -0.00000000000E+00 -0.00000000000E+00 -0.97213897006E+02  0.97213897006E+02  0.00000000000E+00 0. -1.
         25    2    1    2    0    0  0.15217026102E+01  0.16945489695E+02  0.31337734093E+03  0.33781592126E+03  0.12499909458E+03 0.  0.
          2    1    1    2  501    0  0.11043211649E+03 -0.53485129587E+02 -0.36775169877E+02  0.12809498256E+03  0.00000000000E+00 0. -1.
          1    1    1    2  502    0 -0.11195381910E+03  0.36539639891E+02  0.13520641233E+04  0.13571831846E+04  0.00000000000E+00 0. -1.
         22    1    3    3    0    0 -0.33422089697E+02  0.33795456055E+02  0.41241286217E+02  0.62928631151E+02  0.00000000000E+00 0. -1.
         22    1    3    3    0    0  0.34943792307E+02 -0.16849966359E+02  0.27213605471E+03  0.27488729011E+03  0.00000000000E+00 0. -1.
</event>
<event>
 7    1  0.5213103E-005  0.5631506E+03  0.7818608E-02  0.1115663E+00
          2   -1    0    0  502    0  0.00000000000E+00  0.00000000000E+00  0.33790152028E+04  0.33790152028E+04  0.00000000000E+00 0. -1.
          1   -1    0    0  501    0 -0.00000000000E+00 -0.00000000000E+00 -0.20322811150E+03  0.20322811150E+03  0.00000000000E+00 0. -1.
         25    2    1    2    0    0 -0.35930691802E+03 -0.47659233624E+03  0.15106927514E+04  0.16291281145E+04  0.12499643201E+03 0.  0.
          2    1    1    2  501    0  0.25278932173E+03  0.49268345099E+03  0.39919157032E+03  0.68263704402E+03  0.00000000000E+00 0. -1.
          1    1    1    2  502    0  0.10651759629E+03 -0.16091114749E+02  0.12659027696E+04  0.12704781558E+04  0.00000000000E+00 0. -1.
         22    1    3    3    0    0 -0.33837281699E+03 -0.45687123420E+03  0.13338175048E+04  0.14499298686E+04  0.00000000000E+00 0. -1.
         22    1    3    3    0    0 -0.20934101027E+02 -0.19721102040E+02  0.17687524662E+03  0.17919824586E+03  0.00000000000E+00 0. -1.
</event>
<event>
 7    1  0.5213103E-005  0.5609702E+02  0.7818608E-02  0.1439837E+00
          2   -1    0    0  502    0  0.00000000000E+00  0.00000000000E+00  0.13816709172E+04  0.13816709172E+04  0.00000000000E+00 0. -1.
          1   -1    0    0  501    0 -0.00000000000E+00 -0.00000000000E+00 -0.36623096123E+03  0.36623096123E+03  0.00000000000E+00 0. -1.
         25    2    1    2    0    0  0.22935878048E+02  0.55398831120E+02  0.20499322517E+03  0.24747098485E+03  0.12499832394E+03 0.  0.
          2    1    1    2  501    0 -0.52671723261E+02 -0.19740171752E+02 -0.34222880956E+03  0.34682062064E+03  0.00000000000E+00 0. -1.
          1    1    1    2  502    0  0.29735845213E+02 -0.35658659367E+02  0.11526755404E+04  0.11536102729E+04  0.00000000000E+00 0. -1.
         22    1    3    3    0    0 -0.42099106241E+02  0.57648645838E+02  0.12890769796E+03  0.14735296300E+03  0.00000000000E+00 0.  1.
         22    1    3    3    0    0  0.65034984289E+02 -0.22498147189E+01  0.76085527208E+02  0.10011802185E+03  0.00000000000E+00 0.  1.
</event>
<event>
 7    1  0.5213103E-005  0.3483994E+03  0.7818608E-02  0.1134277E+00
          2   -1    0    0  502    0  0.00000000000E+00  0.00000000000E+00  0.64893346650E+03  0.64893346650E+03  0.00000000000E+00 0. -1.
          1   -1    0    0  501    0 -0.00000000000E+00 -0.00000000000E+00 -0.75553207489E+03  0.75553207489E+03  0.00000000000E+00 0. -1.
         25    2    1    2    0    0  0.28861750793E+03 -0.24599366833E+03 -0.57480260856E+03  0.69988178557E+03  0.12499409673E+03 0.  0.
          2    1    1    2  501    0 -0.24585893511E+03  0.11451663108E+03  0.65795295343E+02  0.27908725455E+03  0.00000000000E+00 0. -1.
          1    1    1    2  502    0 -0.42758572828E+02  0.13147703725E+03  0.40240870483E+03  0.42549650127E+03  0.00000000000E+00 0. -1.
         22    1    3    3    0    0  0.14829585117E+03 -0.19173689323E+03 -0.29152667147E+03  0.37913387593E+03  0.00000000000E+00 0. -1.
         22    1    3    3    0    0  0.14032165676E+03 -0.54256775095E+02 -0.28327593709E+03  0.32074790964E+03  0.00000000000E+00 0. -1.
</event>
<event>
 7    1  0.5213103E-005  0.4158955E+02  0.7818608E-02  0.1553778E+00
          2   -1    0    0  502    0  0.00000000000E+00  0.00000000000E+00  0.89598309089E+03  0.89598309089E+03  0.00000000000E+00 0. -1.
          1   -1    0    0  501    0 -0.00000000000E+00 -0.00000000000E+00 -0.38505047349E+03  0.38505047349E+03  0.00000000000E+00 0. -1.
         25    2    1    2    0    0  0.28301888744E+01 -0.68070570439E+02 -0.57528922847E+02  0.15354392555E+03  0.12499819031E+03 0.  0.
          2    1    1    2  501    0  0.66599750774E+01  0.27703354461E+02 -0.27827921924E+03  0.27973407905E+03  0.00000000000E+00 0. -1.
          1    1    1    2  502    0 -0.94901639518E+01  0.40367215978E+02  0.84674075949E+03  0.84775555977E+03  0.00000000000E+00 0. -1.
         22    1    3    3    0    0 -0.38133125497E+02 -0.61824301506E+02 -0.78627296810E+02  0.10704499671E+03  0.00000000000E+00 0.  1.
         22    1    3    3    0    0  0.40963314371E+02 -0.62462689333E+01  0.21098373962E+02  0.46498928845E+02  0.00000000000E+00 0.  1.
</event>
<event>
 7    1  0.5213103E-005  0.3048688E+03  0.7818608E-02  0.1231872E+00
          2   -1    0    0  502    0  0.00000000000E+00  0.00000000000E+00  0.60322867094E+03  0.60322867094E+03  0.00000000000E+00 0. -1.
          1   -1    0    0  501    0 -0.00000000000E+00 -0.00000000000E+00 -0.34844613214E+03  0.34844613214E+03  0.00000000000E+00 0. -1.
         25    2    1    2    0    0  0.15092980836E+03 -0.30773282560E+03  0.11527761714E+03  0.38261377702E+03  0.12500029740E+03 0.  0.
          2    1    1    2  501    0 -0.12842389651E+03  0.25979123986E+03 -0.11300742843E+03  0.31105443958E+03  0.00000000000E+00 0. -1.
          1    1    1    2  502    0 -0.22505911854E+02  0.47941585735E+02  0.25251235010E+03  0.25800658647E+03  0.00000000000E+00 0. -1.
         22    1    3    3    0    0  0.80976082347E+02 -0.27666732137E+03  0.89487875446E+02  0.30184435141E+03  0.00000000000E+00 0.  1.
         22    1    3    3    0    0  0.69953726017E+02 -0.31065504224E+02  0.25789741692E+02  0.80769425607E+02  0.00000000000E+00 0.  1.
</event>
<event>
 7    1  0.5213103E-005  0.2723364E+03  0.7818608E-02  0.1199223E+00
          2   -1    0    0  502    0  0.00000000000E+00  0.00000000000E+00  0.13769086863E+04  0.13769086863E+04  0.00000000000E+00 0. -1.
          1   -1    0    0  501    0 -0.00000000000E+00 -0.00000000000E+00 -0.82037607798E+03  0.82037607798E+03  0.00000000000E+00 0. -1.
         25    2    1    2    0    0  0.34639793749E+03  0.83695567370E+01  0.39636760004E+03  0.54110541087E+03  0.12500484285E+03 0.  0.
          2    1    1    2  501    0 -0.26780775884E+03  0.20567255473E+02 -0.72184745521E+03  0.77019981582E+03  0.00000000000E+00 0. -1.
          1    1    1    2  502    0 -0.78590178650E+02 -0.28936812210E+02  0.88201246348E+03  0.88597953759E+03  0.00000000000E+00 0. -1.
         22    1    3    3    0    0 -0.10286497125E+02  0.54679926490E+01  0.11768138102E+02  0.16558986717E+02  0.00000000000E+00 0. -1.
         22    1    3    3    0    0  0.35668443462E+03  0.29015640880E+01  0.38459946194E+03  0.52454642416E+03  0.00000000000E+00 0. -1.
</event>
<event>
 7    1  0.5213103E-005  0.3572487E+03  0.7818608E-02  0.1146974E+00
          2   -1    0    0  502    0  0.00000000000E+00  0.00000000000E+00  0.15593462350E+04  0.15593462350E+04  0.00000000000E+00 0. -1.
          1   -1    0    0  501    0 -0.00000000000E+00 -0.00000000000E+00 -0.11104983191E+04  0.11104983191E+04  0.00000000000E+00 0. -1.
         25    2    1    2    0    0  0.23834175376E+03  0.24503541213E+03  0.39664243311E+03  0.53832652526E+03  0.12498433210E+03 0.  0.
          2    1    1    2  501    0  0.89071540140E+02 -0.73852214201E+02 -0.10049868863E+04  0.10116256869E+04  0.00000000000E+00 0. -1.
          1    1    1    2  502    0 -0.32741329390E+03 -0.17118319793E+03  0.10571923691E+04  0.11198923419E+04  0.00000000000E+00 0. -1.
         22    1    3    3    0    0  0.24176623602E+03  0.25521477140E+03  0.37410851178E+03  0.51336407257E+03  0.00000000000E+00 0. -1.
         22    1    3    3    0    0 -0.34244822593E+01 -0.10179359266E+02  0.22533921330E+02  0.24962452690E+02  0.00000000000E+00 0. -1.
</event>
<event>
 7    1  0.5213103E-005  0.7067769E+03  0.7818608E-02  0.1102428E+00
          2   -1    0    0  502    0  0.00000000000E+00  0.00000000000E+00  0.15272035096E+04  0.15272035096E+04  0.00000000000E+00 0. -1.
          1   -1    0    0  501    0 -0.00000000000E+00 -0.00000000000E+00 -0.11428207993E+04  0.11428207993E+04  0.00000000000E+00 0. -1.
         25    2    1    2    0    0  0.55166752577E+03 -0.40850095974E+03 -0.12409217108E+03  0.70868519731E+03  0.12500299545E+03 0.  0.
          2    1    1    2  501    0  0.75176339465E+02  0.68381956336E+02 -0.61897588378E+03  0.62726287844E+03  0.00000000000E+00 0. -1.
          1    1    1    2  502    0 -0.62684386523E+03  0.34011900341E+03  0.11274507652E+04  0.13340762331E+04  0.00000000000E+00 0. -1.
         22    1    3    3    0    0  0.39603840016E+03 -0.24547336368E+03 -0.12821468250E+03  0.48326244576E+03  0.00000000000E+00 0. -1.
         22    1    3    3    0    0  0.15562912560E+03 -0.16302759607E+03  0.41225114201E+01  0.22542275155E+03  0.00000000000E+00 0. -1.
</event>
<event>
 7    1  0.5213103E-005  0.1238645E+04  0.7818608E-02  0.1096323E+00
          2   -1    0    0  502    0  0.00000000000E+00  0.00000000000E+00  0.27636154996E+04  0.27636154996E+04  0.00000000000E+00 0. -1.
          1   -1    0    0  501    0 -0.00000000000E+00 -0.00000000000E+00 -0.34036887894E+04  0.34036887894E+04  0.00000000000E+00 0. -1.
         25    2    1    2    0    0  0.45735396609E+03 -0.12097978875E+04  0.96225378651E+03  0.16168925267E+04  0.12500205802E+03 0.  0.
          2    1    1    2  501    0 -0.41910835658E+03  0.11600212526E+04 -0.29519826317E+04  0.31992972008E+04  0.00000000000E+00 0. -1.
          1    1    1    2  502    0 -0.38245609512E+02  0.49776634851E+02  0.13496555554E+04  0.13511145615E+04  0.00000000000E+00 0. -1.
         22    1    3    3    0    0  0.21138394621E+03 -0.68830963264E+03  0.48173879333E+03  0.86632879907E+03  0.00000000000E+00 0. -1.
         22    1    3    3    0    0  0.24597001989E+03 -0.52148825485E+03  0.48051499318E+03  0.75056372768E+03  0.00000000000E+00 0. -1.
</event>
<event>
 7    1  0.5213103E-005  0.2006852E+03  0.7818608E-02  0.1272649E+00
          2   -1    0    0  502    0  0.00000000000E+00  0.00000000000E+00  0.21023341604E+03  0.21023341604E+03  0.00000000000E+00 0. -1.
          1   -1    0    0  501    0 -0.00000000000E+00 -0.00000000000E+00 -0.30315029230E+03  0.30315029230E+03  0.00000000000E+00 0. -1.
         25    2    1    2    0    0  0.10598064682E+03 -0.15082076738E+03 -0.50192533923E+01  0.22277369753E+03  0.12499650409E+03 0.  0.
          2    1    1    2  501    0 -0.79401310192E+02  0.19738046556E+03 -0.10086571333E+03  0.23545171133E+03  0.00000000000E+00 0. -1.
          1    1    1    2  502    0 -0.26579336629E+02 -0.46559698179E+02  0.12968090468E+02  0.55158299471E+02  0.00000000000E+00 0. -1.
         22    1    3    3    0    0 -0.12162389879E+02 -0.84883669015E+02  0.11313601322E+02  0.86493690914E+02  0.00000000000E+00 0. -1.
         22    1    3    3    0    0  0.11814303670E+03 -0.65937098365E+02 -0.16332854714E+02  0.13628000662E+03  0.00000000000E+00 0. -1.
</event>
<event>
 7    1  0.5213103E-005  0.2629298E+03  0.7818608E-02  0.1223952E+00
          2   -1    0    0  502    0  0.00000000000E+00  0.00000000000E+00  0.13339792515E+04  0.13339792515E+04  0.00000000000E+00 0. -1.
          1   -1    0    0  501    0 -0.00000000000E+00 -0.00000000000E+00 -0.16048966693E+03  0.16048966693E+03  0.00000000000E+00 0. -1.
         25    2    1    2    0    0 -0.25332547672E+02 -0.31033720251E+03  0.36733494716E+03  0.49750175442E+03  0.12498845953E+03 0.  0.
          2    1    1    2  501    0  0.14014229649E+02  0.24464454664E+03  0.65947543815E+02  0.25376451952E+03  0.00000000000E+00 0. -1.
          1    1    1    2  502    0  0.11318318023E+02  0.65692655875E+02  0.74020709356E+03  0.74320264445E+03  0.00000000000E+00 0. -1.
         22    1    3    3    0    0 -0.48602168574E+02 -0.69121883275E+02  0.14912405127E+03  0.17140008228E+03  0.00000000000E+00 0. -1.
         22    1    3    3    0    0  0.23269620903E+02 -0.24121531924E+03  0.21821089589E+03  0.32610167214E+03  0.00000000000E+00 0. -1.
</event>
<event>
 7    1  0.5213103E-005  0.1540768E+04  0.7818608E-02  0.1114214E+00
          2   -1    0    0  502    0  0.00000000000E+00  0.00000000000E+00  0.28507712761E+04  0.28507712761E+04  0.00000000000E+00 0. -1.
          1   -1    0    0  501    0 -0.00000000000E+00 -0.00000000000E+00 -0.12804406149E+04  0.12804406149E+04  0.00000000000E+00 0. -1.
         25    2    1    2    0    0 -0.14869027064E+04  0.43226516954E+03  0.65623949889E+03  0.16864187639E+04  0.12500052917E+03 0.  0.
          2    1    1    2  501    0  0.14637965007E+04 -0.46503939119E+03  0.60863637194E+01  0.15359032765E+04  0.00000000000E+00 0. -1.
          1    1    1    2  502    0  0.23106205735E+02  0.32774221650E+02  0.90800479859E+03  0.90888985065E+03  0.00000000000E+00 0. -1.
         22    1    3    3    0    0 -0.30920363730E+03  0.11545025817E+03  0.91906097144E+02  0.34261112376E+03  0.00000000000E+00 0. -1.
         22    1    3    3    0    0 -0.11776990691E+04  0.31681491137E+03  0.56433340174E+03  0.13438076402E+04  0.00000000000E+00 0. -1.
</event>
<event>
 7    1  0.5213103E-005  0.1424693E+04  0.7818608E-02  0.1108615E+00
          2   -1    0    0  502    0  0.00000000000E+00  0.00000000000E+00  0.31516812432E+04  0.31516812432E+04  0.00000000000E+00 0. -1.
          1   -1    0    0  501    0 -0.00000000000E+00 -0.00000000000E+00 -0.10851310125E+04  0.10851310125E+04  0.00000000000E+00 0. -1.
         25    2    1    2    0    0  0.14041587946E+04 -0.36527553942E+03  0.59155510717E+03  0.15718303557E+04  0.12500032861E+03 0.  0.
          2    1    1    2  501    0 -0.13606104382E+04  0.34878917939E+03  0.23501785939E+03  0.14241306297E+04  0.00000000000E+00 0. -1.
          1    1    1    2  502    0 -0.43548356359E+02  0.16486360037E+02  0.12399772642E+04  0.12408512703E+04  0.00000000000E+00 0. -1.
         22    1    3    3    0    0  0.11853493629E+04 -0.28783575861E+03  0.45111582955E+03  0.13005414364E+04  0.00000000000E+00 0. -1.
         22    1    3    3    0    0  0.21880943169E+03 -0.77439780811E+02  0.14043927761E+03  0.27128891932E+03  0.00000000000E+00 0. -1.
</event>
<event>
 7    1  0.5213103E-005  0.8348893E+03  0.7818608E-02  0.1122825E+00
          2   -1    0    0  502    0  0.00000000000E+00  0.00000000000E+00  0.35360415107E+04  0.35360415107E+04  0.00000000000E+00 0. -1.
          1   -1    0    0  501    0 -0.00000000000E+00 -0.00000000000E+00 -0.90520610024E+03  0.90520610024E+03  0.00000000000E+00 0. -1.
         25    2    1    2    0    0  0.78237614865E+03 -0.36254621114E+03  0.88577043080E+03  0.12424847076E+04  0.12500719697E+03 0.  0.
          2    1    1    2  501    0 -0.13050954892E+02  0.65135972638E+02 -0.65632118689E+03  0.65967455818E+03  0.00000000000E+00 0. -1.
          1    1    1    2  502    0 -0.76932519376E+03  0.29741023850E+03  0.24013861666E+04  0.25390883452E+04  0.00000000000E+00 0. -1.
         22    1    3    3    0    0  0.68846454511E+03 -0.30060131451E+03  0.70911600654E+03  0.10330489296E+04  0.00000000000E+00 0.  1.
         22    1    3    3    0    0  0.93911603536E+02 -0.61944896624E+02  0.17665442426E+03  0.20943577800E+03  0.00000000000E+00 0.  1.
</event>
<event>
 7    1  0.5213103E-005  0.5573535E+03  0.7818608E-02  0.1124300E+00
          2   -1    0    0  502    0  0.00000000000E+00  0.00000000000E+00  0.31041521368E+04  0.31041521368E+04  0.00000000000E+00 0. -1.
          1   -1    0    0  501    0 -0.00000000000E+00 -0.00000000000E+00 -0.10704885650E+04  0.10704885650E+04  0.00000000000E+00 0. -1.
         25    2    1    2    0    0 -0.55203686529E+03  0.13433032737E+03 -0.89232461106E+03  0.10652032714E+04  0.12500184151E+03 0.  0.
          2    1    1    2  501    0  0.45556931687E+03 -0.14981283880E+03  0.54303466198E+03  0.72448183777E+03  0.00000000000E+00 0. -1.
          1    1    1    2  502    0  0.96467548417E+02  0.15482511429E+02  0.23829535209E+04  0.23849555926E+04  0.00000000000E+00 0. -1.
         22    1    3    3    0    0 -0.47103386410E+03  0.93728824657E+02 -0.66338913316E+03  0.81898909375E+03  0.00000000000E+00 0.  1.
         22    1    3    3    0    0 -0.81003001190E+02  0.40601502715E+02 -0.22893547790E+03  0.24621417763E+03  0.00000000000E+00 0.  1.
</event>
<event>
 7    1  0.5213103E-005  0.5391178E+03  0.7818608E-02  0.1266703E+00
          2   -1    0    0  502    0  0.00000000000E+00  0.00000000000E+00  0.15453642812E+04  0.15453642812E+04  0.00000000000E+00 0. -1.
          1   -1    0    0  501    0 -0.00000000000E+00 -0.00000000000E+00 -0.42131777743E+03  0.42131777743E+03  0.00000000000E+00 0. -1.
         25    2    1    2    0    0  0.50791325236E+03  0.19876952486E+03  0.46625070449E+02  0.56150164223E+03  0.12500000439E+03 0.  0.
          2    1    1    2  501    0 -0.14596977275E+02  0.15289837471E+02 -0.10453001060E+03  0.10664602192E+03  0.00000000000E+00 0. -1.
          1    1    1    2  502    0 -0.49331627508E+03 -0.21405936233E+03  0.11819514439E+04  0.12985343944E+04  0.00000000000E+00 0. -1.
         22    1    3    3    0    0  0.32609862913E+03  0.12745383178E+03 -0.30668399458E+02  0.35146172747E+03  0.00000000000E+00 0. -1.
         22    1    3    3    0    0  0.18181462323E+03  0.71315693084E+02  0.77293469907E+02  0.21003991476E+03  0.00000000000E+00 0. -1.
</event>
<event>
 7    1  0.5213103E-005  0.1293346E+03  0.7818608E-02  0.1235901E+00
          2   -1    0    0  502    0  0.00000000000E+00  0.00000000000E+00  0.39754240041E+03  0.39754240041E+03  0.00000000000E+00 0. -1.
          1   -1    0    0  501    0 -0.00000000000E+00 -0.00000000000E+00 -0.50065760451E+03  0.50065760451E+03  0.00000000000E+00 0. -1.
         25    2    1    2    0    0 -0.23733257778E+03  0.45304007534E+02  0.33392897322E+02  0.27408194564E+03  0.12500648685E+03 0.  0.
          2    1    1    2  501    0  0.11914635927E+03 -0.25782589137E+02 -0.35477863961E+03  0.37513794790E+03  0.00000000000E+00 0. -1.
          1    1    1    2  502    0  0.11818621852E+03 -0.19521418397E+02  0.21827053819E+03  0.24898011139E+03  0.00000000000E+00 0. -1.
         22    1    3    3    0    0 -0.29750637464E+01  0.25569420411E+02  0.29105616692E+02  0.38855928601E+02  0.00000000000E+00 0.  1.
         22    1    3    3    0    0 -0.23435751404E+03  0.19734587124E+02  0.42872806305E+01  0.23522601704E+03  0.00000000000E+00 0.  1.
</event>
<event>
 7    1  0.5213103E-005  0.9137427E+03  0.7818608E-02  0.1122553E+00
          2   -1    0    0  502    0  0.00000000000E+00  0.00000000000E+00  0.14695110271E+04  0.14695110271E+04  0.00000000000E+00 0. -1.
          1   -1    0    0  501    0 -0.00000000000E+00 -0.00000000000E+00 -0.21724642193E+04  0.21724642193E+04  0.00000000000E+00 0. -1.
         25    2    1    2    0    0  0.42461167633E+03  0.81515477742E+03  0.81159802486E+03  0.12325128916E+04  0.12499714829E+03 0.  0.
          2    1    1    2  501    0  0.43568375357E+02 -0.42555613934E+02 -0.15047940581E+04  0.15060260093E+04  0.00000000000E+00 0. -1.
          1    1    1    2  502    0 -0.46818005169E+03 -0.77259916348E+03 -0.97571590643E+01  0.90343634550E+03  0.00000000000E+00 0. -1.
         22    1    3    3    0    0  0.12622205163E+03  0.26211026463E+03  0.18307696663E+03  0.34373095999E+03  0.00000000000E+00 0.  1.
         22    1    3    3    0    0  0.29838962470E+03  0.55304451278E+03  0.62852105822E+03  0.88878193156E+03  0.00000000000E+00 0.  1.
</event>
<event>
 7    1  0.5213103E-005  0.1134421E+04  0.7818608E-02  0.1138327E+00
          2   -1    0    0  502    0  0.00000000000E+00  0.00000000000E+00  0.18505686853E+04  0.18505686853E+04  0.00000000000E+00 0. -1.
          1   -1    0    0  501    0 -0.00000000000E+00 -0.00000000000E+00 -0.19499212362E+04  0.19499212362E+04  0.00000000000E+00 0. -1.
         25    2    1    2    0    0 -0.11435554910E+04  0.13435873022E+03  0.13371816694E+03  0.11658805813E+04  0.12500220846E+03 0.  0.
          2    1    1    2  501    0  0.22184639858E+02 -0.33791682625E+02 -0.11695027701E+04  0.11702011645E+04  0.00000000000E+00 0. -1.
          1    1    1    2  502    0  0.11213708512E+04 -0.10056704760E+03  0.93643205226E+03  0.14644081758E+04  0.00000000000E+00 0. -1.
         22    1    3    3    0    0 -0.10212168105E+04  0.13607340670E+03  0.83486245666E+02  0.10336197073E+04  0.00000000000E+00 0.  1.
         22    1    3    3    0    0 -0.12233868050E+03 -0.17146764715E+01  0.50231921274E+02  0.13226087394E+03  0.00000000000E+00 0.  1.
</event>
<event>
 7    1  0.5213103E-005  0.4913273E+03  0.7818608E-02  0.1085087E+00
          2   -1    0    0  502    0  0.00000000000E+00  0.00000000000E+00  0.15146282534E+04  0.15146282534E+04  0.00000000000E+00 0. -1.
          1   -1    0    0  501    0 -0.00000000000E+00 -0.00000000000E+00 -0.18499921087E+04  0.18499921087E+04  0.00000000000E+00 0. -1.
         25    2    1    2    0    0  0.64224806510E+03 -0.66554870699E+02 -0.12823495897E+03  0.67006062918E+03  0.12499965654E+03 0.  0.
          2    1    1    2  501    0 -0.46988224020E+03  0.34530286816E+01 -0.14056259735E+04  0.14820882634E+04  0.00000000000E+00 0. -1.
          1    1    1    2  502    0 -0.17236582491E+03  0.63101842017E+02  0.11984970772E+04  0.12124714694E+04  0.00000000000E+00 0. -1.
         22    1    3    3    0    0  0.43530992252E+03 -0.30265764912E+02 -0.27943635321E+02  0.43725460766E+03  0.00000000000E+00 0. -1.
         22    1    3    3    0    0  0.20693814259E+03 -0.36289105787E+02 -0.10029132365E+03  0.23280602152E+03  0.00000000000E+00 0. -1.
</event>
<event>
 7    1  0.5213103E-005  0.9242885E+03  0.7818608E-02  0.1155594E+00
          2   -1    0    0  502    0  0.00000000000E+00  0.00000000000E+00  0.20622587139E+04  0.20622587139E+04  0.00000000000E+00 0. -1.
          1   -1    0    0  501    0 -0.00000000000E+00 -0.00000000000E+00 -0.78283786143E+03  0.78283786143E+03  0.00000000000E+00 0. -1.
         25    2    1    2    0    0 -0.80048994989E+03 -0.51692961660E+03  0.71222045885E+03  0.11961952670E+04  0.12499898561E+03 0.  0.
          2    1    1    2  501    0  0.76906405932E+03  0.49155754324E+03 -0.15480117581E+03  0.92577089481E+03  0.00000000000E+00 0. -1.
          1    1    1    2  502    0  0.31425890569E+02  0.25372073360E+02  0.72200156947E+03  0.72313041356E+03  0.00000000000E+00 0. -1.
         22    1    3    3    0    0 -0.56818833148E+03 -0.42565083805E+03  0.55595005469E+03  0.90171895803E+03  0.00000000000E+00 0. -1.
         22    1    3    3    0    0 -0.23230161841E+03 -0.91278778550E+02  0.15627040416E+03  0.29447630897E+03  0.00000000000E+00 0. -1.
</event>
<event>
 7    1  0.5213103E-005  0.4500520E+03  0.7818608E-02  0.1223830E+00
          2   -1    0    0  502    0  0.00000000000E+00  0.00000000000E+00  0.72537794074E+03  0.72537794074E+03  0.00000000000E+00 0. -1.
          1   -1    0    0  501    0 -0.00000000000E+00 -0.00000000000E+00 -0.20085255570E+04  0.20085255570E+04  0.00000000000E+00 0. -1.
         25    2    1    2    0    0 -0.15273573018E+03  0.42724832647E+03 -0.42361288978E+03  0.63320018723E+03  0.12500104390E+03 0.  0.
          2    1    1    2  501    0  0.11441253875E+03 -0.43445202776E+03 -0.14453642585E+04  0.15135774288E+04  0.00000000000E+00 0. -1.
          1    1    1    2  502    0  0.38323191425E+02  0.72037012867E+01  0.58582953201E+03  0.58712588164E+03  0.00000000000E+00 0. -1.
         22    1    3    3    0    0 -0.91986801739E+02  0.99276251176E+02 -0.98264975004E+02  0.16725235740E+03  0.00000000000E+00 0. -1.
         22    1    3    3    0    0 -0.60748928440E+02  0.32797207530E+03 -0.32534791478E+03  0.46594782984E+03  0.00000000000E+00 0. -1.
</event>
<event>
 7    1  0.5213103E-005  0.8197755E+03  0.7818608E-02  0.1092106E+00
          2   -1    0    0  502    0  0.00000000000E+00  0.00000000000E+00  0.25821889421E+04  0.25821889421E+04  0.00000000000E+00 0. -1.
          1   -1    0    0  501    0 -0.00000000000E+00 -0.00000000000E+00 -0.88480278412E+03  0.88480278412E+03  0.00000000000E+00 0. -1.
         25    2    1    2    0    0  0.86421054945E+03 -0.22380384366E+03  0.40264509877E+02  0.90232730158E+03  0.12500117680E+03 0.  0.
          2    1    1    2  501    0 -0.96857953668E+02 -0.25817922002E+02 -0.36973644559E+03  0.38308362988E+03  0.00000000000E+00 0. -1.
          1    1    1    2  502    0 -0.76735259578E+03  0.24962176566E+03  0.20268580937E+04  0.21815807948E+04  0.00000000000E+00 0. -1.
         22    1    3    3    0    0  0.48819200144E+03 -0.11441086605E+03 -0.38433329615E+02  0.50289004501E+03  0.00000000000E+00 0.  1.
         22    1    3    3    0    0  0.37601854801E+03 -0.10939297761E+03  0.78697839492E+02  0.39943725657E+03  0.00000000000E+00 0.  1.
</event>
<event>
 7    1  0.5213103E-005  0.1323248E+04  0.7818608E-02  0.1061088E+00
          2   -1    0    0  502    0  0.00000000000E+00  0.00000000000E+00  0.14348577420E+04  0.14348577420E+04  0.00000000000E+00 0. -1.
          1   -1    0    0  501    0 -0.00000000000E+00 -0.00000000000E+00 -0.19123916470E+04  0.19123916470E+04  0.00000000000E+00 0. -1.
         25    2    1    2    0    0 -0.12324416782E+04  0.58687616631E+03  0.37864749547E+02  0.13712750132E+04  0.12500119103E+03 0.  0.
          2    1    1    2  501    0  0.47638958767E+02 -0.81692262487E+02 -0.67187245013E+03  0.67849516238E+03  0.00000000000E+00 0. -1.
          1    1    1    2  502    0  0.11848027194E+04 -0.50518390383E+03  0.15647379565E+03  0.12974792135E+04  0.00000000000E+00 0. -1.
         22    1    3    3    0    0 -0.34386497157E+03  0.22494320486E+03 -0.35773754029E+01  0.41092014029E+03  0.00000000000E+00 0.  1.
         22    1    3    3    0    0 -0.88857670661E+03  0.36193296145E+03  0.41442124950E+02  0.96035487287E+03  0.00000000000E+00 0.  1.
</event>
<event>
 7    1  0.5213103E-005  0.2024917E+03  0.7818608E-02  0.1226858E+00
          2   -1    0    0  502    0  0.00000000000E+00  0.00000000000E+00  0.10135924484E+04  0.10135924484E+04  0.00000000000E+00 0. -1.
          1   -1    0    0  501    0 -0.00000000000E+00 -0.00000000000E+00 -0.13056081462E+04  0.13056081462E+04  0.00000000000E+00 0. -1.
         25    2    1    2    0    0 -0.27487096288E+03  0.73701834374E+02 -0.47208443392E+03  0.56522166106E+03  0.12500322700E+03 0.  0.
          2    1    1    2  501    0  0.82328224197E+02 -0.16572802630E+02 -0.77423194440E+03  0.77877320063E+03  0.00000000000E+00 0. -1.
          1    1    1    2  502    0  0.19254273869E+03 -0.57129031744E+02  0.95430068052E+03  0.97520573282E+03  0.00000000000E+00 0. -1.
         22    1    3    3    0    0 -0.97455711445E+01 -0.13312918870E+02  0.38650124653E+00  0.16503313273E+02  0.00000000000E+00 0.  1.
         22    1    3    3    0    0 -0.26512539174E+03  0.87014753244E+02 -0.47247093516E+03  0.54871834779E+03  0.00000000000E+00 0.  1.
</event>
<event>
 7    1  0.5213103E-005  0.2496655E+03  0.7818608E-02  0.1151772E+00
          2   -1    0    0  502    0  0.00000000000E+00  0.00000000000E+00  0.92843545824E+03  0.92843545824E+03  0.00000000000E+00 0. -1.
          1   -1    0    0  501    0 -0.00000000000E+00 -0.00000000000E+00 -0.29178320233E+03  0.29178320233E+03  0.00000000000E+00 0. -1.
         25    2    1    2    0    0  0.35332597881E+03 -0.16265669542E+03 -0.19667341524E+02  0.40903221969E+03  0.12499641818E+03 0.  0.
          2    1    1    2  501    0 -0.15013726906E+03  0.43836704098E+02  0.55594020319E+02  0.16599262418E+03  0.00000000000E+00 0. -1.
          1    1    1    2  502    0 -0.20318870975E+03  0.11881999132E+03  0.60072557712E+03  0.64519381670E+03  0.00000000000E+00 0. -1.
         22    1    3    3    0    0  0.30510236437E+03 -0.97273835568E+02  0.15265245815E+02  0.32059737922E+03  0.00000000000E+00 0.  1.
         22    1    3    3    0    0  0.48223614435E+02 -0.65382859850E+02 -0.34932587340E+02  0.88434840473E+02  0.00000000000E+00 0.  1.
</event>
<event>
 7    1  0.5213103E-005  0.3719002E+03  0.7818608E-02  0.1207106E+00
          2   -1    0    0  502    0  0.00000000000E+00  0.00000000000E+00  0.17017813990E+04  0.17017813990E+04  0.00000000000E+00 0. -1.
          1   -1    0    0  501    0 -0.00000000000E+00 -0.00000000000E+00 -0.72557083060E+03  0.72557083060E+03  0.00000000000E+00 0. -1.
         25    2    1    2    0    0 -0.14493879571E+03  0.35904747476E+03  0.10892821276E+04  0.11627916825E+04  0.12500639887E+03 0.  0.
          2    1    1    2  501    0 -0.23653987625E+02 -0.51113458171E+02 -0.63393494422E+03  0.63643193684E+03  0.00000000000E+00 0. -1.
          1    1    1    2  502    0  0.16859278333E+03 -0.30793401659E+03  0.52086338497E+03  0.62812861021E+03  0.00000000000E+00 0. -1.
         22    1    3    3    0    0 -0.22354620920E+02  0.77073022431E+02  0.10855530045E+03  0.13499715967E+03  0.00000000000E+00 0. -1.
         22    1    3    3    0    0 -0.12258417479E+03  0.28197445233E+03  0.98072682718E+03  0.10277945229E+04  0.00000000000E+00 0. -1.
</event>
<event>
 7    1  0.5213103E-005  0.8015714E+03  0.7818608E-02  0.1129438E+00
          2   -1    0    0  502    0  0.00000000000E+00  0.00000000000E+00  0.99934957295E+03  0.99934957295E+03  0.00000000000E+00 0. -1.
          1   -1    0    0  501    0 -0.00000000000E+00 -0.00000000000E+00 -0.11348170917E+04  0.11348170917E+04  0.00000000000E+00 0. -1.
         25    2    1    2    0    0  0.78009315166E+03  0.56309066730E+02 -0.21328834147E+03  0.82026346056E+03  0.12499676738E+03 0.  0.
          2    1    1    2  501    0 -0.81224354224E+03 -0.11136835542E+03 -0.34269269272E+03  0.88858357184E+03  0.00000000000E+00 0. -1.
          1    1    1    2  502    0  0.32150390578E+02  0.55059288685E+02  0.42051351545E+03  0.42531963223E+03  0.00000000000E+00 0. -1.
         22    1    3    3    0    0  0.77717632900E+03  0.43200899710E+02 -0.21224369172E+03  0.80679411796E+03  0.00000000000E+00 0.  1.
         22    1    3    3    0    0  0.29168226623E+01  0.13108167020E+02 -0.10446497508E+01  0.13469342603E+02  0.00000000000E+00 0.  1.
</event>
<event>
 7    1  0.5213103E-005  0.5936697E+03  0.7818608E-02  0.1176328E+00
          2   -1    0    0  502    0  0.00000000000E+00  0.00000000000E+00  0.50245738266E+03  0.50245738266E+03  0.00000000000E+00 0. -1.
          1   -1    0    0  501    0 -0.00000000000E+00 -0.00000000000E+00 -0.41186828296E+04  0.41186828296E+04  0.00000000000E+00 0. -1.
         25    2    1    2    0    0 -0.17163348798E+03  0.60596584857E+03 -0.10154076562E+04  0.12013867566E+04  0.12499906725E+03 0.  0.
          2    1    1    2  501    0  0.14446374184E+03 -0.56456130478E+03 -0.29804590878E+04  0.30368957199E+04  0.00000000000E+00 0. -1.
          1    1    1    2  502    0  0.27169746144E+02 -0.41404543783E+02  0.37964129709E+03  0.38285773573E+03  0.00000000000E+00 0. -1.
         22    1    3    3    0    0 -0.92823053281E+02  0.29238230709E+03 -0.37934014531E+03  0.48785497698E+03  0.00000000000E+00 0. -1.
         22    1    3    3    0    0 -0.78810434700E+02  0.31358354148E+03 -0.63606751092E+03  0.71353177964E+03  0.00000000000E+00 0. -1.
</event>
<event>
 7    1  0.5213103E-005  0.2342520E+03  0.7818608E-02  0.1151560E+00
          2   -1    0    0  502    0  0.00000000000E+00  0.00000000000E+00  0.14134837585E+04  0.14134837585E+04  0.00000000000E+00 0. -1.
          1   -1    0    0  501    0 -0.00000000000E+00 -0.00000000000E+00 -0.19064089573E+03  0.19064089573E+03  0.00000000000E+00 0. -1.
         25    2    1    2    0    0  0.20107823599E+03 -0.30538340573E+03  0.90231449180E+03  0.98157399540E+03  0.12499833941E+03 0.  0.
          2    1    1    2  501    0 -0.61095949655E+02  0.21410127269E+03 -0.39040139692E+02  0.22604469146E+03  0.00000000000E+00 0. -1.
          1    1    1    2  502    0 -0.13998228633E+03  0.91282133038E+02  0.35956851065E+03  0.39650596736E+03  0.00000000000E+00 0. -1.
         22    1    3    3    0    0  0.83557720315E+02 -0.19661001608E+03  0.63493014691E+03  0.66990572658E+03  0.00000000000E+00 0. -1.
         22    1    3    3    0    0  0.11752051567E+03 -0.10877338964E+03  0.26738434489E+03  0.31166826882E+03  0.00000000000E+00 0. -1.
</event>
<event>
 7    1  0.5213103E-005  0.4675521E+02  0.7818608E-02  0.1483342E+00
          2   -1    0    0  502    0  0.00000000000E+00  0.00000000000E+00  0.22789658133E+03  0.22789658133E+03  0.00000000000E+00 0. -1.
          1   -1    0    0  501    0 -0.00000000000E+00 -0.00000000000E+00 -0.16542682981E+04  0.16542682981E+04  0.00000000000E+00 0. -1.
         25    2    1    2    0    0  0.81902394678E+02 -0.29369159879E+02 -0.69479896131E+02  0.16740241132E+03  0.12500224615E+03 0.  0.
          2    1    1    2  501    0 -0.43007144673E+02  0.17592989559E+02 -0.15331631824E+04  0.15338671623E+04  0.00000000000E+00 0. -1.
          1    1    1    2  502    0 -0.38895250004E+02  0.11776170320E+02  0.17627136179E+03  0.18089530576E+03  0.00000000000E+00 0. -1.
         22    1    3    3    0    0  0.45141125132E+01  0.30838261257E+02 -0.61600165178E+02  0.69035903116E+02  0.00000000000E+00 0.  1.
         22    1    3    3    0    0  0.77388282164E+02 -0.60207421136E+02 -0.78797309536E+01  0.98366508203E+02  0.00000000000E+00 0.  1.
</event>
<event>
 7    1  0.5213103E-005  0.3491987E+03  0.7818608E-02  0.1134134E+00
          2   -1    0    0  502    0  0.00000000000E+00  0.00000000000E+00  0.10547739128E+04  0.10547739128E+04  0.00000000000E+00 0. -1.
          1   -1    0    0  501    0 -0.00000000000E+00 -0.00000000000E+00 -0.88750617644E+03  0.88750617644E+03  0.00000000000E+00 0. -1.
         25    2    1    2    0    0 -0.36782303627E+03  0.18568010219E+03  0.80287320170E+03  0.91104250756E+03  0.12498874437E+03 0.  0.
          2    1    1    2  501    0  0.24406384218E+03 -0.24714142925E+03 -0.76610934764E+03  0.84117155066E+03  0.00000000000E+00 0. -1.
          1    1    1    2  502    0  0.12375919409E+03  0.61461327065E+02  0.13050388229E+03  0.19006603100E+03  0.00000000000E+00 0. -1.
         22    1    3    3    0    0 -0.33622143836E+03  0.14283679923E+03  0.75793066256E+03  0.84137155649E+03  0.00000000000E+00 0. -1.
         22    1    3    3    0    0 -0.31601597916E+02  0.42843302955E+02  0.44942539141E+02  0.69670951073E+02  0.00000000000E+00 0. -1.
</event>
<event>
 7    1  0.5213103E-005  0.9937287E+03  0.7818608E-02  0.1131783E+00
          2   -1    0    0  502    0  0.00000000000E+00  0.00000000000E+00  0.16316759850E+04  0.16316759850E+04  0.00000000000E+00 0. -1.
          1   -1    0    0  501    0 -0.00000000000E+00 -0.00000000000E+00 -0.15628352921E+04  0.15628352921E+04  0.00000000000E+00 0. -1.
         25    2    1    2    0    0 -0.96591481914E+03 -0.32819313576E+03  0.94020477929E+03  0.13929500810E+04  0.12499091606E+03 0.  0.
          2    1    1    2  501    0  0.92379006255E+03  0.35507436799E+03 -0.11507212644E+04  0.15177698491E+04  0.00000000000E+00 0. -1.
          1    1    1    2  502    0  0.42124756593E+02 -0.26881232230E+02  0.27935717800E+03  0.28379134706E+03  0.00000000000E+00 0. -1.
         22    1    3    3    0    0 -0.56767982592E+03 -0.17372512619E+03  0.62563598518E+03  0.86247387797E+03  0.00000000000E+00 0.  1.
         22    1    3    3    0    0 -0.39823499322E+03 -0.15446800957E+03  0.31456879411E+03  0.53047620308E+03  0.00000000000E+00 0.  1.
</event>
<event>
 7    1  0.5213103E-005  0.7845200E+03  0.7818608E-02  0.1149446E+00
          2   -1    0    0  502    0  0.00000000000E+00  0.00000000000E+00  0.88237723547E+03  0.88237723547E+03  0.00000000000E+00 0. -1.
          1   -1    0    0  501    0 -0.00000000000E+00 -0.00000000000E+00 -0.14214663999E+04  0.14214663999E+04  0.00000000000E+00 0. -1.
         25    2    1    2    0    0 -0.20597086366E+03 -0.77980379885E+03 -0.59868172619E+03  0.10122051210E+04  0.12498574409E+03 0.  0.
          2    1    1    2  501    0  0.21312596045E+03  0.72914261331E+03 -0.37978038878E+03  0.84929663208E+03  0.00000000000E+00 0. -1.
          1    1    1    2  502    0 -0.71550967834E+01  0.50661185542E+02  0.43937295058E+03  0.44234188229E+03  0.00000000000E+00 0. -1.
         22    1    3    3    0    0 -0.21666415470E+03 -0.76897970103E+03 -0.57607351086E+03  0.98495371792E+03  0.00000000000E+00 0. -1.
         22    1    3    3    0    0  0.10693291039E+02 -0.10824097820E+02 -0.22608215321E+02  0.27251403026E+02  0.00000000000E+00 0. -1.
</event>
<event>
 7    1  0.5213103E-005  0.3956280E+03  0.7818608E-02  0.1205798E+00
          2   -1    0    0  502    0  0.00000000000E+00  0.00000000000E+00  0.69301248179E+03  0.69301248179E+03  0.00000000000E+00 0. -1.
          1   -1    0    0  501    0 -0.00000000000E+00 -0.00000000000E+00 -0.20460652310E+04  0.20460652310E+04  0.00000000000E+00 0. -1.
         25    2    1    2    0    0 -0.37306096185E+03  0.13994826832E+03  0.38840401145E+03  0.57029995316E+03  0.12499744561E+03 0.  0.
          2    1    1    2  501    0  0.27540470900E+02  0.46091528647E+02 -0.17741811508E+04  0.17749934260E+04  0.00000000000E+00 0. -1.
          1    1    1    2  502    0  0.34552049094E+03 -0.18603979696E+03  0.32724390103E+02  0.39378433364E+03  0.00000000000E+00 0. -1.
         22    1    3    3    0    0 -0.96516958501E+02  0.97134522680E+02  0.11107120171E+03  0.17631633680E+03  0.00000000000E+00 0.  1.
         22    1    3    3    0    0 -0.27654400334E+03  0.42813745636E+02  0.27733280975E+03  0.39398361636E+03  0.00000000000E+00 0.  1.
</event>
<event>
 7    1  0.5213103E-005  0.1077456E+04  0.7818608E-02  0.1086351E+00
          2   -1    0    0  502    0  0.00000000000E+00  0.00000000000E+00  0.13588685978E+04  0.13588685978E+04  0.00000000000E+00 0. -1.
          1   -1    0    0  501    0 -0.00000000000E+00 -0.00000000000E+00 -0.20729590489E+04  0.20729590489E+04  0.00000000000E+00 0. -1.
         25    2    1    2    0    0 -0.90528784504E+03  0.60575046216E+03 -0.47518642788E+03  0.11949505100E+04  0.12499950156E+03 0.  0.
          2    1    1    2  501    0  0.59700173242E+02  0.56654280274E+02 -0.94684626578E+03  0.95041657666E+03  0.00000000000E+00 0. -1.
          1    1    1    2  502    0  0.84558767180E+03 -0.66240474244E+03  0.70794224262E+03  0.12864605600E+04  0.00000000000E+00 0. -1.
         22    1    3    3    0    0 -0.41570898071E+03  0.20881300873E+03 -0.22609580047E+03  0.51723895856E+03  0.00000000000E+00 0. -1.
         22    1    3    3    0    0 -0.48957886433E+03  0.39693745343E+03 -0.24909062741E+03  0.67771155147E+03  0.00000000000E+00 0. -1.
</event>
<event>
 7    1  0.5213103E-005  0.2789249E+03  0.7818608E-02  0.1284230E+00
          2   -1    0    0  502    0  0.00000000000E+00  0.00000000000E+00  0.38330254436E+03  0.38330254436E+03  0.00000000000E+00 0. -1.
          1   -1    0    0  501    0 -0.00000000000E+00 -0.00000000000E+00 -0.53646387397E+03  0.53646387397E+03  0.00000000000E+00 0. -1.
         25    2    1    2    0    0  0.15316041010E+03 -0.21853188122E+03 -0.27203574628E+03  0.40105308645E+03  0.12500334622E+03 0.  0.
          2    1    1    2  501    0 -0.17990722461E+03  0.24038539505E+03 -0.84905733264E+02  0.31202681161E+03  0.00000000000E+00 0. -1.
          1    1    1    2  502    0  0.26746814502E+02 -0.21853513830E+02  0.20378014994E+03  0.20668652027E+03  0.00000000000E+00 0. -1.
         22    1    3    3    0    0 -0.67120890420E+01 -0.23812204461E+02 -0.81508157132E+02  0.85180120331E+02  0.00000000000E+00 0. -1.
         22    1    3    3    0    0  0.15987249915E+03 -0.19471967676E+03 -0.19052758914E+03  0.31587296612E+03  0.00000000000E+00 0. -1.
</event>
<event>
 7    1  0.5213103E-005  0.5844502E+03  0.7818608E-02  0.1154546E+00
          2   -1    0    0  502    0  0.00000000000E+00  0.00000000000E+00  0.13184196743E+04  0.13184196743E+04  0.00000000000E+00 0. -1.
          1   -1    0    0  501    0 -0.00000000000E+00 -0.00000000000E+00 -0.13757083480E+04  0.13757083480E+04  0.00000000000E+00 0. -1.
         25    2    1    2    0    0  0.14517501994E+03  0.61566479822E+03 -0.54855067264E+03  0.84656067264E+03  0.12505279621E+03 0.  0.
          2    1    1    2  501    0 -0.46972322861E+02 -0.44443733992E+02 -0.60450476913E+03  0.60795366641E+03  0.00000000000E+00 0. -1.
          1    1    1    2  502    0 -0.98202697083E+02 -0.57122106422E+03  0.10957667680E+04  0.12396136833E+04  0.00000000000E+00 0. -1.
         22    1    3    3    0    0  0.58170041780E+02  0.64796292250E+02 -0.76303259137E+02  0.11577780705E+03  0.00000000000E+00 0. -1.
         22    1    3    3    0    0  0.87004978164E+02  0.55086850597E+03 -0.47224741350E+03  0.73078286560E+03  0.00000000000E+00 0. -1.
</event>
<event>
 7    1  0.5213103E-005  0.5719732E+03  0.7818608E-02  0.1239661E+00
          2   -1    0    0  502    0  0.00000000000E+00  0.00000000000E+00  0.12773886401E+04  0.12773886401E+04  0.00000000000E+00 0. -1.
          1   -1    0    0  501    0 -0.00000000000E+00 -0.00000000000E+00 -0.52280280743E+03  0.52280280743E+03  0.00000000000E+00 0. -1.
         25    2    1    2    0    0  0.51732203089E+03 -0.28095992880E+03  0.59576969693E+03  0.84683364447E+03  0.12500049756E+03 0.  0.
          2    1    1    2  501    0 -0.50535693676E+03  0.25780010729E+03 -0.19400858163E+03  0.59957139574E+03  0.00000000000E+00 0. -1.
          1    1    1    2  502    0 -0.11965094135E+02  0.23159821507E+02  0.35282471734E+03  0.35378640728E+03  0.00000000000E+00 0. -1.
         22    1    3    3    0    0  0.43670565190E+03 -0.25589475996E+03  0.56083853072E+03  0.75546926617E+03  0.00000000000E+00 0.  1.
         22    1    3    3    0    0  0.80616378992E+02 -0.25065168837E+02  0.34931166210E+02  0.91364378307E+02  0.00000000000E+00 0.  1.
</event>
<event>
 7    1  0.5213103E-005  0.2212364E+03  0.7818608E-02  0.1226436E+00
          2   -1    0    0  502    0  0.00000000000E+00  0.00000000000E+00  0.25072717733E+02  0.25072717733E+02  0.00000000000E+00 0. -1.
          1   -1    0    0  501    0 -0.00000000000E+00 -0.00000000000E+00 -0.32518231190E+04  0.32518231190E+04  0.00000000000E+00 0. -1.
         25    2    1    2    0    0 -0.54344310531E+02 -0.20483721664E+03 -0.17720185795E+04  0.17890188012E+04  0.12500734224E+03 0.  0.
          2    1    1    2  501    0  0.72936527063E+02 -0.25304507415E+02 -0.48022689761E+03  0.48639277160E+03  0.00000000000E+00 0. -1.
          1    1    1    2  502    0 -0.18592216532E+02  0.23014172405E+03 -0.97450492416E+03  0.10014842639E+04  0.00000000000E+00 0. -1.
         22    1    3    3    0    0  0.62457217340E+01 -0.55820789477E+02 -0.17211412092E+03  0.18104761860E+03  0.00000000000E+00 0. -1.
         22    1    3    3    0    0 -0.60590032265E+02 -0.14901642716E+03 -0.15999044586E+04  0.16079711827E+04  0.00000000000E+00 0. -1.
</event>
<event>
 7    1  0.5213103E-005  0.5630348E+03  0.7818608E-02  0.1185426E+00
          2   -1    0    0  502    0  0.00000000000E+00  0.00000000000E+00  0.66397466702E+03  0.66397466702E+03  0.00000000000E+00 0. -1.
          1   -1    0    0  501    0 -0.00000000000E+00 -0.00000000000E+00 -0.23377757829E+04  0.23377757829E+04  0.00000000000E+00 0. -1.
         25    2    1    2    0    0 -0.45874252614E+03 -0.34882541289E+03 -0.55989758014E+03  0.81316396290E+03  0.12500582525E+03 0.  0.
          2    1    1    2  501    0  0.41728186246E+03  0.37127672791E+03 -0.16028458921E+04  0.16973760677E+04  0.00000000000E+00 0. -1.
          1    1    1    2  502    0  0.41460663673E+02 -0.22451315021E+02  0.48894235637E+03  0.49121041930E+03  0.00000000000E+00 0. -1.
         22    1    3    3    0    0 -0.31524946428E+03 -0.27934120330E+03 -0.33866616933E+03  0.54047063458E+03  0.00000000000E+00 0.  1.
         22    1    3    3    0    0 -0.14349306186E+03 -0.69484209593E+02 -0.22123141081E+03  0.27269332833E+03  0.00000000000E+00 0.  1.
</event>
<event>
 7    1  0.5213103E-005  0.1055980E+03  0.7818608E-02  0.1419392E+00
          2   -1    0    0  502    0  0.00000000000E+00  0.00000000000E+00  0.62506362691E+02  0.62506362691E+02  0.00000000000E+00 0. -1.
          1   -1    0    0  501    0 -0.00000000000E+00 -0.00000000000E+00 -0.82254570066E+03  0.82254570066E+03  0.00000000000E+00 0. -1.
         25    2    1    2    0    0 -0.83102287891E+02  0.16327981574E+02 -0.11559651860E+03  0.19014724717E+03  0.12498330793E+03 0.  0.
          2    1    1    2  501    0  0.10820394407E+03 -0.22035324505E+01 -0.65526028229E+03  0.66413777683E+03  0.00000000000E+00 0. -1.
          1    1    1    2  502    0 -0.25101656184E+02 -0.14124449124E+02  0.10817462919E+02  0.30767039347E+02  0.00000000000E+00 0. -1.
         22    1    3    3    0    0 -0.24021734513E+02 -0.25664782774E+02 -0.11220659326E+03  0.11758420121E+03  0.00000000000E+00 0. -1.
         22    1    3    3    0    0 -0.59080553378E+02  0.41992764348E+02 -0.33899253380E+01  0.72563045959E+02  0.00000000000E+00 0. -1.
</event>
<event>
 7    1  0.5213103E-005  0.2920619E+03  0.7818608E-02  0.1215554E+00
          2   -1    0    0  502    0  0.00000000000E+00  0.00000000000E+00  0.38003807142E+03  0.38003807142E+03  0.00000000000E+00 0. -1.
          1   -1    0    0  501    0 -0.00000000000E+00 -0.00000000000E+00 -0.31940963678E+04  0.31940963678E+04  0.00000000000E+00 0. -1.
         25    2    1    2    0    0  0.65783745305E+01  0.25473974930E+03 -0.11579976415E+04  0.11922743159E+04  0.12499556764E+03 0.  0.
          2    1    1    2  501    0 -0.55162064852E+02  0.35402001803E+02 -0.19587031891E+04  0.19597995658E+04  0.00000000000E+00 0. -1.
          1    1    1    2  502    0  0.48583690322E+02 -0.29014175110E+03  0.30264253417E+03  0.42206055749E+03  0.00000000000E+00 0. -1.
         22    1    3    3    0    0  0.43462617918E+02  0.19053202812E+03 -0.98329186954E+03  0.10025239915E+04  0.00000000000E+00 0.  1.
         22    1    3    3    0    0 -0.36884243388E+02  0.64207721174E+02 -0.17470577193E+03  0.18975032441E+03  0.00000000000E+00 0.  1.
</event>
<event>
 7    1  0.5213103E-005  0.7202975E+03  0.7818608E-02  0.1078154E+00
          2   -1    0    0  502    0  0.00000000000E+00  0.00000000000E+00  0.62780417009E+03  0.62780417009E+03  0.00000000000E+00 0. -1.
          1   -1    0    0  501    0 -0.00000000000E+00 -0.00000000000E+00 -0.17512489126E+04  0.17512489126E+04  0.00000000000E+00 0. -1.
         25    2    1    2    0    0 -0.73197593444E+03  0.30753593530E+03 -0.59468347934E+03  0.99981935777E+03  0.12499274966E+03 0.  0.
          2    1    1    2  501    0  0.61686275050E+02 -0.12279711483E+03 -0.65786736502E+03  0.67206681059E+03  0.00000000000E+00 0. -1.
          1    1    1    2  502    0  0.67028965939E+03 -0.18473882047E+03  0.12910610181E+03  0.70716691438E+03  0.00000000000E+00 0. -1.
         22    1    3    3    0    0 -0.15414347769E+03  0.81017394592E+02 -0.72131025031E+02  0.18848584751E+03  0.00000000000E+00 0. -1.
         22    1    3    3    0    0 -0.57783245675E+03  0.22651854071E+03 -0.52255245431E+03  0.81133351026E+03  0.00000000000E+00 0. -1.
</event>
<event>
 7    1  0.5213103E-005  0.1274398E+04  0.7818608E-02  0.1074256E+00
          2   -1    0    0  502    0  0.00000000000E+00  0.00000000000E+00  0.26255463575E+04  0.26255463575E+04  0.00000000000E+00 0. -1.
          1   -1    0    0  501    0 -0.00000000000E+00 -0.00000000000E+00 -0.14859652268E+04  0.14859652268E+04  0.00000000000E+00 0. -1.
         25    2    1    2    0    0  0.11478194788E+04  0.67553197453E+03  0.20920878854E+02  0.13378699623E+04  0.12500139286E+03 0.  0.
          2    1    1    2  501    0 -0.81155290871E+02 -0.10930697100E+02 -0.62162883298E+03  0.62699925627E+03  0.00000000000E+00 0. -1.
          1    1    1    2  502    0 -0.10666641879E+04 -0.66460127743E+03  0.17402890849E+04  0.21466423658E+04  0.00000000000E+00 0. -1.
         22    1    3    3    0    0  0.23588657770E+03  0.91015195343E+02 -0.22369667808E+02  0.25382404409E+03  0.00000000000E+00 0.  1.
         22    1    3    3    0    0  0.91193290111E+03  0.58451677919E+03  0.43290546663E+02  0.10840459182E+04  0.00000000000E+00 0.  1.
</event>
<event>
 7    1  0.7009607E-005  0.5555330E+03  0.7818608E-02  0.1167856E+00
          2   -1    0    0  502    0  0.00000000000E+00  0.00000000000E+00  0.29001868658E+04  0.29001868658E+04  0.00000000000E+00 0. -1.
          1   -1    0    0  501    0 -0.00000000000E+00 -0.00000000000E+00 -0.91594510735E+03  0.91594510735E+03  0.00000000000E+00 0. -1.
         25    2    1    2    0    0  0.19829610035E+03 -0.48340952307E+03 -0.13487280021E+03  0.55391395666E+03  0.12499555488E+03 0.  0.
          2    1    1    2  501    0 -0.20461285428E+03  0.54135298580E+03 -0.42463218790E+03  0.71780357367E+03  0.00000000000E+00 0. -1.
          1    1    1    2  502    0  0.63167539294E+01 -0.57943462732E+02  0.25437467465E+04  0.25444144428E+04  0.00000000000E+00 0. -1.
         22    1    3    3    0    0  0.15785733052E+03 -0.46378443427E+03 -0.10844814315E+03  0.50177279521E+03  0.00000000000E+00 0.  1.
         22    1    3    3    0    0  0.40438769832E+02 -0.19625088802E+02 -0.26424657063E+02  0.52141161446E+02  0.00000000000E+00 0.  1.
</event>
<event>
 7    1  0.5213103E-005  0.2048809E+03  0.7818608E-02  0.1239413E+00
          2   -1    0    0  502    0  0.00000000000E+00  0.00000000000E+00  0.10194847663E+03  0.10194847663E+03  0.00000000000E+00 0. -1.
          1   -1    0    0  501    0 -0.00000000000E+00 -0.00000000000E+00 -0.22317856846E+04  0.22317856846E+04  0.00000000000E+00 0. -1.
         25    2    1    2    0    0 -0.22743473753E+03  0.34596067624E+02 -0.14640258272E+03  0.29997087148E+03  0.12500143911E+03 0.  0.
          2    1    1    2  501    0  0.66651897995E+02  0.29672397884E+02 -0.17004030415E+04  0.17019675174E+04  0.00000000000E+00 0. -1.
          1    1    1    2  502    0  0.16078283953E+03 -0.64268465508E+02 -0.28303158373E+03  0.33179577233E+03  0.00000000000E+00 0. -1.
         22    1    3    3    0    0 -0.15263110834E+03  0.80616632637E+02 -0.11132553689E+03  0.20539881172E+03  0.00000000000E+00 0.  1.
         22    1    3    3    0    0 -0.74803629193E+02 -0.46020565013E+02 -0.35077045826E+02  0.94572059766E+02  0.00000000000E+00 0.  1.
</event>
<event>
 7    1  0.5213103E-005  0.8369482E+03  0.7818608E-02  0.1211923E+00
          2   -1    0    0  502    0  0.00000000000E+00  0.00000000000E+00  0.21757788191E+04  0.21757788191E+04  0.00000000000E+00 0. -1.
          1   -1    0    0  501    0 -0.00000000000E+00 -0.00000000000E+00 -0.76970120743E+03  0.76970120743E+03  0.00000000000E+00 0. -1.
         25    2    1    2    0    0  0.34805264789E+03  0.76435255545E+03  0.15203197399E+04  0.17413699053E+04  0.12498624291E+03 0.  0.
          2    1    1    2  501    0  0.14338407714E+02 -0.18959725922E+02 -0.34338018084E+03  0.34420198974E+03  0.00000000000E+00 0. -1.
          1    1    1    2  502    0 -0.36239105560E+03 -0.74539282953E+03  0.22913805268E+03  0.85990813153E+03  0.00000000000E+00 0. -1.
         22    1    3    3    0    0  0.34739770768E+03  0.68243103470E+03  0.14012273095E+04  0.15968203585E+04  0.00000000000E+00 0. -1.
         22    1    3    3    0    0  0.65494020685E+00  0.81921520748E+02  0.11909243035E+03  0.14454954678E+03  0.00000000000E+00 0. -1.
</event>
<event>
 7    1  0.5213103E-005  0.1636084E+03  0.7818608E-02  0.1218499E+00
          2   -1    0    0  502    0  0.00000000000E+00  0.00000000000E+00  0.32634371490E+03  0.32634371490E+03  0.00000000000E+00 0. -1.
          1   -1    0    0  501    0 -0.00000000000E+00 -0.00000000000E+00 -0.33487199631E+03  0.33487199631E+03  0.00000000000E+00 0. -1.
         25    2    1    2    0    0  0.18254073430E+03  0.36364480261E+02 -0.39747555371E+02  0.22770190049E+03  0.12499916889E+03 0.  0.
          2    1    1    2  501    0 -0.10984540471E+03 -0.12343380939E+03 -0.14773044819E+03  0.22164431768E+03  0.00000000000E+00 0. -1.
          1    1    1    2  502    0 -0.72695329599E+02  0.87069329128E+02  0.17894972216E+03  0.21186949304E+03  0.00000000000E+00 0. -1.
         22    1    3    3    0    0  0.16227784676E+03  0.58056435345E+02 -0.69350511858E+02  0.18577982325E+03  0.00000000000E+00 0. -1.
         22    1    3    3    0    0  0.20262887549E+02 -0.21691955084E+02  0.29602956488E+02  0.41922077238E+02  0.00000000000E+00 0. -1.
</event>
<event>
 7    1  0.5213103E-005  0.1165685E+04  0.7818608E-02  0.1054032E+00
          2   -1    0    0  502    0  0.00000000000E+00  0.00000000000E+00  0.26630759547E+04  0.26630759547E+04  0.00000000000E+00 0. -1.
          1   -1    0    0  501    0 -0.00000000000E+00 -0.00000000000E+00 -0.11446598810E+04  0.11446598810E+04  0.00000000000E+00 0. -1.
         25    2    1    2    0    0 -0.96499702257E+03 -0.49871450865E+03  0.12503179201E+04  0.16609800116E+04  0.12499713161E+03 0.  0.
          2    1    1    2  501    0  0.10827842976E+04  0.48533139322E+03 -0.55867972127E+03  0.13115225607E+04  0.00000000000E+00 0. -1.
          1    1    1    2  502    0 -0.11778727500E+03  0.13383115428E+02  0.82677787485E+03  0.83523326339E+03  0.00000000000E+00 0. -1.
         22    1    3    3    0    0 -0.65864519329E+03 -0.27343550840E+03  0.81716014804E+03  0.10845880211E+04  0.00000000000E+00 0. -1.
         22    1    3    3    0    0 -0.30635182928E+03 -0.22527900025E+03  0.43315777206E+03  0.57639199054E+03  0.00000000000E+00 0. -1.
</event>
<event>
 7    1  0.5213103E-005  0.8301689E+02  0.7818608E-02  0.1494842E+00
          2   -1    0    0  502    0  0.00000000000E+00  0.00000000000E+00  0.69604082549E+03  0.69604082549E+03  0.00000000000E+00 0. -1.
          1   -1    0    0  501    0 -0.00000000000E+00 -0.00000000000E+00 -0.16457721052E+03  0.16457721052E+03  0.00000000000E+00 0. -1.
         25    2    1    2    0    0  0.68816257261E+02 -0.20151815575E+01  0.38074418551E+02  0.14769741866E+03  0.12500051165E+03 0.  0.
          2    1    1    2  501    0 -0.84928628109E+02 -0.11644807361E+02 -0.92809696662E+02  0.12634125694E+03  0.00000000000E+00 0. -1.
          1    1    1    2  502    0  0.16112370848E+02  0.13659988919E+02  0.58619889309E+03  0.58657936040E+03  0.00000000000E+00 0. -1.
         22    1    3    3    0    0 -0.11373307981E+02 -0.58399276763E+01  0.62491263369E+02  0.63785695004E+02  0.00000000000E+00 0.  1.
         22    1    3    3    0    0  0.80189565242E+02  0.38247461188E+01 -0.24416844818E+02  0.83911723659E+02  0.00000000000E+00 0.  1.
</event>
<event>
 7    1  0.5213103E-005  0.2960544E+03  0.7818608E-02  0.1241603E+00
          2   -1    0    0  502    0  0.00000000000E+00  0.00000000000E+00  0.10447097616E+04  0.10447097616E+04  0.00000000000E+00 0. -1.
          1   -1    0    0  501    0 -0.00000000000E+00 -0.00000000000E+00 -0.39362729451E+03  0.39362729451E+03  0.00000000000E+00 0. -1.
         25    2    1    2    0    0  0.27033043703E+03 -0.95179827985E+02  0.31639687498E+03  0.44482469332E+03  0.12499712177E+03 0.  0.
          2    1    1    2  501    0 -0.45700685049E+01 -0.49168580880E+02 -0.29280650407E+03  0.29694121252E+03  0.00000000000E+00 0. -1.
          1    1    1    2  502    0 -0.26576036853E+03  0.14434840887E+03  0.62749209616E+03  0.69657115026E+03  0.00000000000E+00 0. -1.
         22    1    3    3    0    0  0.93068566848E+02  0.47461815898E+01  0.39540053783E+02  0.10123092525E+03  0.00000000000E+00 0. -1.
         22    1    3    3    0    0  0.17726187019E+03 -0.99926009575E+02  0.27685682120E+03  0.34359376807E+03  0.00000000000E+00 0. -1.
</event>
<event>
 7    1  0.5213103E-005  0.2958633E+03  0.7818608E-02  0.1123230E+00
          2   -1    0    0  502    0  0.00000000000E+00  0.00000000000E+00  0.78911007452E+03  0.78911007452E+03  0.00000000000E+00 0. -1.
          1   -1    0    0  501    0 -0.00000000000E+00 -0.00000000000E+00 -0.42066569686E+03  0.42066569686E+03  0.00000000000E+00 0. -1.
         25    2    1    2    0    0 -0.14038540304E+03 -0.32805214006E+03 -0.25538836703E+03  0.45626152267E+03  0.12500036426E+03 0.  0.
          2    1    1    2  501    0  0.12442044164E+03  0.14221988060E+03  0.14059062024E+03  0.23552635359E+03  0.00000000000E+00 0. -1.
          1    1    1    2  502    0  0.15964961399E+02  0.18583225947E+03  0.48324212445E+03  0.51798789512E+03  0.00000000000E+00 0. -1.
         22    1    3    3    0    0 -0.16180827093E+03 -0.29625902987E+03 -0.21320002691E+03  0.39925628460E+03  0.00000000000E+00 0. -1.
         22    1    3    3    0    0  0.21422867894E+02 -0.31793110194E+02 -0.42188340121E+02  0.57005238065E+02  0.00000000000E+00 0. -1.
</event>
<event>
 7    1  0.5213103E-005  0.4138961E+03  0.7818608E-02  0.1066570E+00
          2   -1    0    0  502    0  0.00000000000E+00  0.00000000000E+00  0.36246360332E+04  0.36246360332E+04  0.00000000000E+00 0. -1.
          1   -1    0    0  501    0 -0.00000000000E+00 -0.00000000000E+00 -0.40158498330E+03  0.40158498330E+03  0.00000000000E+00 0. -1.
         25    2    1    2    0    0 -0.14145790306E+03  0.55803562429E+02  0.25343210079E+04  0.25419544707E+04  0.12500073777E+03 0.  0.
          2    1    1    2  501    0  0.42146763561E+03 -0.65315996581E+02 -0.25697494842E+03  0.49793299890E+03  0.00000000000E+00 0. -1.
          1    1    1    2  502    0 -0.28000973255E+03  0.95124341521E+01  0.94570499047E+03  0.98633354689E+03  0.00000000000E+00 0. -1.
         22    1    3    3    0    0 -0.16143422160E+03  0.48483368241E+02  0.19583261346E+04  0.19655668125E+04  0.00000000000E+00 0.  1.
         22    1    3    3    0    0  0.19976318546E+02  0.73201941877E+01  0.57599487325E+03  0.57638765822E+03  0.00000000000E+00 0.  1.
</event>
<event>
 7    1  0.5213103E-005  0.1689595E+04  0.7818608E-02  0.1074375E+00
          2   -1    0    0  502    0  0.00000000000E+00  0.00000000000E+00  0.28684253605E+04  0.28684253605E+04  0.00000000000E+00 0. -1.
          1   -1    0    0  501    0 -0.00000000000E+00 -0.00000000000E+00 -0.14354414279E+04  0.14354414279E+04  0.00000000000E+00 0. -1.
         25    2    1    2    0    0  0.11422414331E+04  0.12871925236E+04  0.65385367425E+03  0.18451907621E+04  0.12499694746E+03 0.  0.
          2    1    1    2  501    0 -0.13742416745E+02 -0.60114885401E+02 -0.40765437660E+03  0.41229206180E+03  0.00000000000E+00 0. -1.
          1    1    1    2  502    0 -0.11284990164E+04 -0.12270776382E+04  0.11867846349E+04  0.20463839644E+04  0.00000000000E+00 0. -1.
         22    1    3    3    0    0  0.79024524206E+03  0.87122953789E+03  0.38557395455E+03  0.12378189386E+04  0.00000000000E+00 0.  1.
         22    1    3    3    0    0  0.35199619106E+03  0.41596298570E+03  0.26827971970E+03  0.60737182351E+03  0.00000000000E+00 0.  1.
</event>
<event>
 7    1  0.5213103E-005  0.9195556E+02  0.7818608E-02  0.1336205E+00
          2   -1    0    0  502    0  0.00000000000E+00  0.00000000000E+00  0.24895904676E+03  0.24895904676E+03  0.00000000000E+00 0. -1.
          1   -1    0    0  501    0 -0.00000000000E+00 -0.00000000000E+00 -0.38591228232E+03  0.38591228232E+03  0.00000000000E+00 0. -1.
         25    2    1    2    0    0 -0.11077593285E+02  0.35040012299E+02 -0.15292030012E+03  0.20090297782E+03  0.12500749087E+03 0.  0.
          2    1    1    2  501    0  0.28612939587E+02  0.58776162363E+02 -0.19325167467E+03  0.20400869427E+03  0.00000000000E+00 0. -1.
          1    1    1    2  502    0 -0.17535346302E+02 -0.93816174663E+02  0.20921873923E+03  0.22995965699E+03  0.00000000000E+00 0. -1.
         22    1    3    3    0    0  0.13896198573E+00 -0.23878939791E+02  0.11046771986E+02  0.26310724948E+02  0.00000000000E+00 0.  1.
         22    1    3    3    0    0 -0.11216555271E+02  0.58918952090E+02 -0.16396707210E+03  0.17459225287E+03  0.00000000000E+00 0.  1.
</event>
<event>
 7    1  0.5213103E-005  0.1042846E+03  0.7818608E-02  0.1324738E+00
          2   -1    0    0  502    0  0.00000000000E+00  0.00000000000E+00  0.51899506798E+04  0.51899506798E+04  0.00000000000E+00 0. -1.
          1   -1    0    0  501    0 -0.00000000000E+00 -0.00000000000E+00 -0.13380374373E+03  0.13380374373E+03  0.00000000000E+00 0. -1.
         25    2    1    2    0    0  0.40769444965E+02  0.30785225507E+02  0.24130354048E+04  0.24168108737E+04  0.12500022711E+03 0.  0.
          2    1    1    2  501    0 -0.45584586042E+02 -0.94358758761E+02 -0.11067707434E+03  0.15241700898E+03  0.00000000000E+00 0. -1.
          1    1    1    2  502    0  0.48151410769E+01  0.63573533254E+02  0.27537886056E+04  0.27545265408E+04  0.00000000000E+00 0. -1.
         22    1    3    3    0    0  0.12704268426E+02 -0.39499335542E+02  0.15225531775E+04  0.15231184374E+04  0.00000000000E+00 0. -1.
         22    1    3    3    0    0  0.28065176539E+02  0.70284561049E+02  0.89048222726E+03  0.89369243631E+03  0.00000000000E+00 0. -1.
</event>
<event>
 7    1  0.5213103E-005  0.4083721E+03  0.7818608E-02  0.1232082E+00
          2   -1    0    0  502    0  0.00000000000E+00  0.00000000000E+00  0.10875941226E+04  0.10875941226E+04  0.00000000000E+00 0. -1.
          1   -1    0    0  501    0 -0.00000000000E+00 -0.00000000000E+00 -0.10291327741E+04  0.10291327741E+04  0.00000000000E+00 0. -1.
         25    2    1    2    0    0  0.46401099135E+02  0.38301438973E+03  0.88234007204E+02  0.41504643825E+03  0.12500088453E+03 0.  0.
          2    1    1    2  501    0 -0.23029797206E+02  0.32033603666E+02 -0.81353815307E+03  0.81449422946E+03  0.00000000000E+00 0. -1.
          1    1    1    2  502    0 -0.23371301929E+02 -0.41504799340E+03  0.78376549438E+03  0.88718622890E+03  0.00000000000E+00 0. -1.
         22    1    3    3    0    0  0.40742190392E+02  0.63839234815E+02  0.56019934346E+02  0.94199824967E+02  0.00000000000E+00 0. -1.
         22    1    3    3    0    0  0.56589087431E+01  0.31917515492E+03  0.32214072859E+02  0.32084661328E+03  0.00000000000E+00 0. -1.
</event>
<event>
 7    1  0.5213103E-005  0.4189018E+03  0.7818608E-02  0.1164893E+00
          2   -1    0    0  502    0  0.00000000000E+00  0.00000000000E+00  0.18542943567E+04  0.18542943567E+04  0.00000000000E+00 0. -1.
          1   -1    0    0  501    0 -0.00000000000E+00 -0.00000000000E+00 -0.12647804202E+04  0.12647804202E+04  0.00000000000E+00 0. -1.
         25    2    1    2    0    0  0.39570045698E+03  0.28326991146E+03  0.55635388130E+02  0.50551109406E+03  0.12500190163E+03 0.  0.
          2    1    1    2  501    0 -0.34314978980E+03 -0.22297692829E+03 -0.99849581869E+03  0.10791035116E+04  0.00000000000E+00 0. -1.
          1    1    1    2  502    0 -0.52550667176E+02 -0.60292983171E+02  0.15323743670E+04  0.15344601712E+04  0.00000000000E+00 0. -1.
         22    1    3    3    0    0  0.15633899668E+03  0.92762957238E+02 -0.37728420556E+02  0.18566174037E+03  0.00000000000E+00 0. -1.
         22    1    3    3    0    0  0.23936146030E+03  0.19050695422E+03  0.93363808686E+02  0.31984935369E+03  0.00000000000E+00 0. -1.
</event>
<event>
 7    1  0.5213103E-005  0.1048084E+04  0.7818608E-02  0.1126953E+00
          2   -1    0    0  502    0  0.00000000000E+00  0.00000000000E+00  0.99890330087E+03  0.99890330087E+03  0.00000000000E+00 0. -1.
          1   -1    0    0  501    0 -0.00000000000E+00 -0.00000000000E+00 -0.14792551732E+04  0.14792551732E+04  0.00000000000E+00 0. -1.
         25    2    1    2    0    0  0.10661723109E+04 -0.27566246721E+02 -0.52822632769E+03  0.11967182434E+04  0.12501282507E+03 0.  0.
          2    1    1    2  501    0 -0.26655082569E+02  0.42630803220E+02 -0.20535284431E+03  0.21141823354E+03  0.00000000000E+00 0. -1.
          1    1    1    2  502    0 -0.10395172283E+04 -0.15064556499E+02  0.25322729971E+03  0.10700219970E+04  0.00000000000E+00 0. -1.
         22    1    3    3    0    0  0.10241754564E+04 -0.11884726420E+02 -0.48087049495E+03  0.11315091891E+04  0.00000000000E+00 0. -1.
         22    1    3    3    0    0  0.41996854498E+02 -0.15681520301E+02 -0.47355832748E+02  0.65209054294E+02  0.00000000000E+00 0. -1.
</event>
<event>
 7    1  0.5213103E-005  0.3979180E+03  0.7818608E-02  0.1202996E+00
          2   -1    0    0  502    0  0.00000000000E+00  0.00000000000E+00  0.95653711837E+03  0.95653711837E+03  0.00000000000E+00 0. -1.
          1   -1    0    0  501    0 -0.00000000000E+00 -0.00000000000E+00 -0.12364168804E+04  0.12364168804E+04  0.00000000000E+00 0. -1.
         25    2    1    2    0    0  0.19971465253E+03  0.34508422088E+03 -0.44004098077E+03  0.60681971340E+03  0.12500015153E+03 0.  0.
          2    1    1    2  501    0 -0.24543355876E+03 -0.31447308047E+03 -0.65619063115E+03  0.76793039692E+03  0.00000000000E+00 0. -1.
          1    1    1    2  502    0  0.45718906222E+02 -0.30611140408E+02  0.81635184988E+03  0.81820388847E+03  0.00000000000E+00 0. -1.
         22    1    3    3    0    0  0.10815430253E+03  0.28382300544E+03 -0.28410401971E+03  0.41589415190E+03  0.00000000000E+00 0. -1.
         22    1    3    3    0    0  0.91560350000E+02  0.61261215443E+02 -0.15593696106E+03  0.19092556150E+03  0.00000000000E+00 0. -1.
</event>
<event>
 7    1  0.5213103E-005  0.8260141E+02  0.7818608E-02  0.1325406E+00
          2   -1    0    0  502    0  0.00000000000E+00  0.00000000000E+00  0.62138258398E+03  0.62138258398E+03  0.00000000000E+00 0. -1.
          1   -1    0    0  501    0 -0.00000000000E+00 -0.00000000000E+00 -0.16150924959E+04  0.16150924959E+04  0.00000000000E+00 0. -1.
         25    2    1    2    0    0  0.85098903415E-01 -0.66812814793E+02 -0.72765539611E+02  0.15931833299E+03  0.12499419190E+03 0.  0.
          2    1    1    2  501    0  0.74716469724E+02  0.38399651943E+02 -0.14950970185E+04  0.14974552344E+04  0.00000000000E+00 0. -1.
          1    1    1    2  502    0 -0.74801568628E+02  0.28413162850E+02  0.57415264621E+03  0.57970151254E+03  0.00000000000E+00 0. -1.
         22    1    3    3    0    0 -0.32847375917E+02  0.20337871858E+02 -0.50403795181E+02  0.63506863448E+02  0.00000000000E+00 0. -1.
         22    1    3    3    0    0  0.32932474820E+02 -0.87150686651E+02 -0.22361744431E+02  0.95811469541E+02  0.00000000000E+00 0. -1.
</event>
<event>
 7    1  0.5213103E-005  0.1165021E+04  0.7818608E-02  0.1128499E+00
          2   -1    0    0  502    0  0.00000000000E+00  0.00000000000E+00  0.36218670742E+04  0.36218670742E+04  0.00000000000E+00 0. -1.
          1   -1    0    0  501    0 -0.00000000000E+00 -0.00000000000E+00 -0.10212360052E+04  0.10212360052E+04  0.00000000000E+00 0. -1.
         25    2    1    2    0    0  0.83549945434E+03 -0.81714364408E+03 -0.38430775260E+03  0.12365676830E+04  0.12499645102E+03 0.  0.
          2    1    1    2  501    0 -0.85171910077E+03  0.77583640733E+03  0.13659712056E+04  0.17869596783E+04  0.00000000000E+00 0. -1.
          1    1    1    2  502    0  0.16219646427E+02  0.41307236757E+02  0.16189676160E+04  0.16195757180E+04  0.00000000000E+00 0. -1.
         22    1    3    3    0    0  0.54541956816E+03 -0.56413221503E+03 -0.31454736944E+03  0.84538021564E+03  0.00000000000E+00 0. -1.
         22    1    3    3    0    0  0.29007988618E+03 -0.25301142906E+03 -0.69760383162E+02  0.39118746741E+03  0.00000000000E+00 0. -1.
</event>
<event>
 7    1  0.5213103E-005  0.1047313E+04  0.7818608E-02  0.1088689E+00
          2   -1    0    0  502    0  0.00000000000E+00  0.00000000000E+00  0.11939395589E+04  0.11939395589E+04  0.00000000000E+00 0. -1.
          1   -1    0    0  501    0 -0.00000000000E+00 -0.00000000000E+00 -0.27356327939E+04  0.27356327939E+04  0.00000000000E+00 0. -1.
         25    2    1    2    0    0 -0.34206000131E+03  0.10488496840E+04 -0.43499708860E+03  0.11924495219E+04  0.12499076353E+03 0.  0.
          2    1    1    2  501    0  0.81854458973E+00 -0.82079349479E+02 -0.15981030919E+04  0.16002097306E+04  0.00000000000E+00 0. -1.
          1    1    1    2  502    0  0.34124145672E+03 -0.96677033455E+03  0.49140694551E+03  0.11369131003E+04  0.00000000000E+00 0. -1.
         22    1    3    3    0    0 -0.24472605009E+02  0.19946901914E+03 -0.11039748283E+03  0.22929108619E+03  0.00000000000E+00 0. -1.
         22    1    3    3    0    0 -0.31758739630E+03  0.84938066489E+03 -0.32459960577E+03  0.96315843569E+03  0.00000000000E+00 0. -1.
</event>
<event>
 7    1  0.5213103E-005  0.4782125E+03  0.7818608E-02  0.1176648E+00
          2   -1    0    0  502    0  0.00000000000E+00  0.00000000000E+00  0.16067492235E+04  0.16067492235E+04  0.00000000000E+00 0. -1.
          1   -1    0    0  501    0 -0.00000000000E+00 -0.00000000000E+00 -0.27539378790E+03  0.27539378790E+03  0.00000000000E+00 0. -1.
         25    2    1    2    0    0 -0.51605888770E+03  0.97696984474E+02  0.10654022143E+04  0.11943901082E+04  0.12499750367E+03 0.  0.
          2    1    1    2  501    0  0.45527379806E+03 -0.10529213621E+03  0.57894315185E+02  0.47086348009E+03  0.00000000000E+00 0. -1.
          1    1    1    2  502    0  0.60785089637E+02  0.75951517368E+01  0.20805890613E+03  0.21688942314E+03  0.00000000000E+00 0. -1.
         22    1    3    3    0    0 -0.30178619617E+03  0.52437224612E+02  0.48045675063E+03  0.56979229545E+03  0.00000000000E+00 0.  1.
         22    1    3    3    0    0 -0.21427269153E+03  0.45259759862E+02  0.58494546367E+03  0.62459781273E+03  0.00000000000E+00 0.  1.
</event>
<event>
 7    1  0.5213103E-005  0.3352428E+03  0.7818608E-02  0.1099688E+00
          2   -1    0    0  502    0  0.00000000000E+00  0.00000000000E+00  0.13600505631E+04  0.13600505631E+04  0.00000000000E+00 0. -1.
          1   -1    0    0  501    0 -0.00000000000E+00 -0.00000000000E+00 -0.27508713390E+04  0.27508713390E+04  0.00000000000E+00 0. -1.
         25    2    1    2    0    0  0.50484287524E+03  0.15314844291E+03 -0.78453480955E+03  0.95364625148E+03  0.12500212523E+03 0.  0.
          2    1    1    2  501    0 -0.28800480744E+03 -0.10562044044E+03 -0.18594592379E+04  0.18845930871E+04  0.00000000000E+00 0. -1.
          1    1    1    2  502    0 -0.21683806780E+03 -0.47528002462E+02  0.12531732716E+04  0.12726825634E+04  0.00000000000E+00 0. -1.
         22    1    3    3    0    0  0.42525965952E+03  0.17102751272E+03 -0.63263425989E+03  0.78123126851E+03  0.00000000000E+00 0.  1.
         22    1    3    3    0    0  0.79583215724E+02 -0.17879069811E+02 -0.15190054967E+03  0.17241498297E+03  0.00000000000E+00 0.  1.
</event>
<event>
 7    1  0.5213103E-005  0.2033631E+03  0.7818608E-02  0.1192559E+00
          2   -1    0    0  502    0  0.00000000000E+00  0.00000000000E+00  0.30876545461E+04  0.30876545461E+04  0.00000000000E+00 0. -1.
          1   -1    0    0  501    0 -0.00000000000E+00 -0.00000000000E+00 -0.38937911875E+03  0.38937911875E+03  0.00000000000E+00 0. -1.
         25    2    1    2    0    0 -0.25137969271E+03  0.30311568920E+02  0.24789674020E+04  0.24949966984E+04  0.12497441304E+03 0.  0.
          2    1    1    2  501    0  0.11597335781E+03  0.33194404984E+02 -0.36211886968E+03  0.38168280551E+03  0.00000000000E+00 0. -1.
          1    1    1    2  502    0  0.13540633490E+03 -0.63505973903E+02  0.58142689505E+03  0.60035416093E+03  0.00000000000E+00 0. -1.
         22    1    3    3    0    0 -0.15363347615E+03  0.51655361670E+02  0.19446415149E+04  0.19513846732E+04  0.00000000000E+00 0.  1.
         22    1    3    3    0    0 -0.97746216560E+02 -0.21343792750E+02  0.53432588706E+03  0.54361202518E+03  0.00000000000E+00 0.  1.
</event>
<event>
 7    1  0.5213103E-005  0.1174550E+03  0.7818608E-02  0.1349811E+00
          2   -1    0    0  502    0  0.00000000000E+00  0.00000000000E+00  0.59221923203E+03  0.59221923203E+03  0.00000000000E+00 0. -1.
          1   -1    0    0  501    0 -0.00000000000E+00 -0.00000000000E+00 -0.55379489832E+02  0.55379489832E+02  0.00000000000E+00 0. -1.
         25    2    1    2    0    0  0.70199856163E+02  0.64046269307E+02  0.22704372830E+03  0.27605336393E+03  0.12500664286E+03 0.  0.
          2    1    1    2  501    0 -0.74835053280E+02 -0.10932285261E+03  0.12828354379E+03  0.18441377093E+03  0.00000000000E+00 0. -1.
          1    1    1    2  502    0  0.46351971174E+01  0.45276583303E+02  0.18151247011E+03  0.18713158700E+03  0.00000000000E+00 0. -1.
         22    1    3    3    0    0  0.94051930023E+02  0.37825997712E+02  0.21652282134E+03  0.23907886524E+03  0.00000000000E+00 0.  1.
         22    1    3    3    0    0 -0.23852073860E+02  0.26220271595E+02  0.10520906956E+02  0.36974498686E+02  0.00000000000E+00 0.  1.
</event>
<event>
 7    1  0.5213103E-005  0.1206563E+03  0.7818608E-02  0.1309929E+00
          2   -1    0    0  502    0  0.00000000000E+00  0.00000000000E+00  0.85542504943E+03  0.85542504943E+03  0.00000000000E+00 0. -1.
          1   -1    0    0  501    0 -0.00000000000E+00 -0.00000000000E+00 -0.73549763323E+02  0.73549763323E+02  0.00000000000E+00 0. -1.
         25    2    1    2    0    0  0.14590993840E+03 -0.35240010163E+02  0.10189428657E+03  0.22031659644E+03  0.12500155435E+03 0.  0.
          2    1    1    2  501    0 -0.83024643110E+02  0.37719395726E+02  0.15436988426E+03  0.17929279223E+03  0.00000000000E+00 0. -1.
          1    1    1    2  502    0 -0.62885295289E+02 -0.24793855630E+01  0.52561111528E+03  0.52936542409E+03  0.00000000000E+00 0. -1.
         22    1    3    3    0    0  0.12857446407E+03 -0.39856934770E+02  0.19528308579E+02  0.13601956806E+03  0.00000000000E+00 0.  1.
         22    1    3    3    0    0  0.17335474331E+02  0.46169246074E+01  0.82365977988E+02  0.84297028376E+02  0.00000000000E+00 0.  1.
</event>
<event>
 7    1  0.5213103E-005  0.1577771E+04  0.7818608E-02  0.1099545E+00
          2   -1    0    0  502    0  0.00000000000E+00  0.00000000000E+00  0.19680688211E+04  0.19680688211E+04  0.00000000000E+00 0. -1.
          1   -1    0    0  501    0 -0.00000000000E+00 -0.00000000000E+00 -0.22267882437E+04  0.22267882437E+04  0.00000000000E+00 0. -1.
         25    2    1    2    0    0 -0.15853506967E+04 -0.29273369686E+03 -0.78986177115E+03  0.17995934397E+04  0.12500032724E+03 0.  0.
          2    1    1    2  501    0  0.47080319766E+02 -0.40610506209E+01 -0.51131101561E+03  0.51349002262E+03  0.00000000000E+00 0. -1.
          1    1    1    2  502    0  0.15382703769E+04  0.29679474748E+03  0.10424533642E+04  0.18817736025E+04  0.00000000000E+00 0. -1.
         22    1    3    3    0    0 -0.25094882200E+03 -0.12038504293E+01 -0.11344083567E+03  0.27540076928E+03  0.00000000000E+00 0. -1.
         22    1    3    3    0    0 -0.13344018747E+04 -0.29152984643E+03 -0.67642093548E+03  0.15241926704E+04  0.00000000000E+00 0. -1.
</event>
<event>
 7    1  0.5213103E-005  0.2936934E+03  0.7818608E-02  0.1308326E+00
          2   -1    0    0  502    0  0.00000000000E+00  0.00000000000E+00  0.10577539384E+04  0.10577539384E+04  0.00000000000E+00 0. -1.
          1   -1    0    0  501    0 -0.00000000000E+00 -0.00000000000E+00 -0.33768343174E+03  0.33768343174E+03  0.00000000000E+00 0. -1.
         25    2    1    2    0    0 -0.28261407605E+03 -0.28057525628E+02 -0.46519356307E+02  0.31376450912E+03  0.12500470370E+03 0.  0.
          2    1    1    2  501    0  0.30101171098E+03  0.46759444813E+02 -0.98585547092E+01  0.30478137563E+03  0.00000000000E+00 0. -1.
          1    1    1    2  502    0 -0.18397634936E+02 -0.18701919186E+02  0.77644841772E+03  0.77689148543E+03  0.00000000000E+00 0. -1.
         22    1    3    3    0    0 -0.14414737014E+03 -0.59587545701E+02  0.19436516766E+02  0.15718434434E+03  0.00000000000E+00 0. -1.
         22    1    3    3    0    0 -0.13846670591E+03  0.31530020073E+02 -0.65955873073E+02  0.15658016478E+03  0.00000000000E+00 0. -1.
</event>
<event>
 7    1  0.5213103E-005  0.5952507E+03  0.7818608E-02  0.1219866E+00
          2   -1    0    0  502    0  0.00000000000E+00  0.00000000000E+00  0.60379909279E+03  0.60379909279E+03  0.00000000000E+00 0. -1.
          1   -1    0    0  501    0 -0.00000000000E+00 -0.00000000000E+00 -0.19572731601E+04  0.19572731601E+04  0.00000000000E+00 0. -1.
         25    2    1    2    0    0 -0.52214452379E+03 -0.28119604345E+03  0.76948139071E+02  0.61094221573E+03  0.12499302492E+03 0.  0.
          2    1    1    2  501    0  0.50923101240E+03  0.30908247310E+03 -0.16366182249E+04  0.17416565142E+04  0.00000000000E+00 0. -1.
          1    1    1    2  502    0  0.12913511396E+02 -0.27886429656E+02  0.20619601853E+03  0.20847352301E+03  0.00000000000E+00 0. -1.
         22    1    3    3    0    0 -0.34539483156E+02 -0.12430999046E+02 -0.25670702931E+02  0.44793868141E+02  0.00000000000E+00 0.  1.
         22    1    3    3    0    0 -0.48760504063E+03 -0.26876504440E+03  0.10261884200E+03  0.56614834759E+03  0.00000000000E+00 0.  1.
</event>
<event>
 7    1  0.5213103E-005  0.1525778E+03  0.7818608E-02  0.1228597E+00
          2   -1    0    0  502    0  0.00000000000E+00  0.00000000000E+00  0.17947814819E+04  0.17947814819E+04  0.00000000000E+00 0. -1.
          1   -1    0    0  501    0 -0.00000000000E+00 -0.00000000000E+00 -0.40821570061E+03  0.40821570061E+03  0.00000000000E+00 0. -1.
         25    2    1    2    0    0  0.13575894826E+03  0.21531634386E+03  0.13749751191E+03  0.31515330540E+03  0.12499768061E+03 0.  0.
          2    1    1    2  501    0 -0.75794525487E+02 -0.12374041611E+03 -0.30087543831E+03  0.33403971328E+03  0.00000000000E+00 0. -1.
          1    1    1    2  502    0 -0.59964422774E+02 -0.91575927751E+02  0.15499437077E+04  0.15538041638E+04  0.00000000000E+00 0. -1.
         22    1    3    3    0    0  0.30839305804E+02  0.16190735824E+03  0.93340097523E+02  0.18941338189E+03  0.00000000000E+00 0. -1.
         22    1    3    3    0    0  0.10491964246E+03  0.53408985622E+02  0.44157414390E+02  0.12573992351E+03  0.00000000000E+00 0. -1.
</event>
<event>
 7    1  0.5213103E-005  0.5621378E+03  0.7818608E-02  0.1215182E+00
          2   -1    0    0  502    0  0.00000000000E+00  0.00000000000E+00  0.63365308267E+03  0.63365308267E+03  0.00000000000E+00 0. -1.
          1   -1    0    0  501    0 -0.00000000000E+00 -0.00000000000E+00 -0.13678772106E+04  0.13678772106E+04  0.00000000000E+00 0. -1.
         25    2    1    2    0    0 -0.57089911245E+03 -0.11373876488E+03 -0.13020839327E+03  0.60945806339E+03  0.12499040810E+03 0.  0.
          2    1    1    2  501    0  0.26981298911E+02  0.20997147666E+02 -0.80433910072E+03  0.80506537601E+03  0.00000000000E+00 0. -1.
          1    1    1    2  502    0  0.54391781354E+03  0.92741617211E+02  0.20032336610E+03  0.58700685384E+03  0.00000000000E+00 0. -1.
         22    1    3    3    0    0 -0.21334394130E+03 -0.84099237071E+02 -0.97502809148E+02  0.24918891780E+03  0.00000000000E+00 0.  1.
         22    1    3    3    0    0 -0.35755517115E+03 -0.29639527806E+02 -0.32705584122E+02  0.36026914558E+03  0.00000000000E+00 0.  1.
</event>
<event>
 7    1  0.5213103E-005  0.1499962E+04  0.7818608E-02  0.1166858E+00
          2   -1    0    0  502    0  0.00000000000E+00  0.00000000000E+00  0.33690589016E+04  0.33690589016E+04  0.00000000000E+00 0. -1.
          1   -1    0    0  501    0 -0.00000000000E+00 -0.00000000000E+00 -0.26346911814E+04  0.26346911814E+04  0.00000000000E+00 0. -1.
         25    2    1    2    0    0 -0.69667183858E+03  0.13322571878E+04  0.26423092006E+04  0.30426442479E+04  0.12500097031E+03 0.  0.
          2    1    1    2  501    0  0.63182261612E+01 -0.20902269686E+02 -0.13915821852E+04  0.13917534994E+04  0.00000000000E+00 0. -1.
          1    1    1    2  502    0  0.69035361242E+03 -0.13113549182E+04 -0.51635929525E+03  0.15693523356E+04  0.00000000000E+00 0. -1.
         22    1    3    3    0    0 -0.33124423851E+03  0.54851769743E+03  0.12215333182E+04  0.13793977155E+04  0.00000000000E+00 0.  1.
         22    1    3    3    0    0 -0.36542760007E+03  0.78373949042E+03  0.14207758824E+04  0.16632465325E+04  0.00000000000E+00 0.  1.
</event>
<event>
 7    1  0.5213103E-005  0.5274095E+03  0.7818608E-02  0.1014314E+00
          2   -1    0    0  502    0  0.00000000000E+00  0.00000000000E+00  0.37794722341E+04  0.37794722341E+04  0.00000000000E+00 0. -1.
          1   -1    0    0  501    0 -0.00000000000E+00 -0.00000000000E+00 -0.45536050186E+03  0.45536050186E+03  0.00000000000E+00 0. -1.
         25    2    1    2    0    0  0.80099405942E+03 -0.28937138624E+03  0.93506142198E+03  0.12709423568E+04  0.12500931557E+03 0.  0.
          2    1    1    2  501    0 -0.46507639624E+03 -0.68842487258E+02 -0.52845620093E+02  0.47310464165E+03  0.00000000000E+00 0. -1.
          1    1    1    2  502    0 -0.33591766319E+03  0.35821387350E+03  0.24418959304E+04  0.24907857375E+04  0.00000000000E+00 0. -1.
         22    1    3    3    0    0  0.68886471607E+02  0.16256769217E+01  0.11280891741E+03  0.13218865550E+03  0.00000000000E+00 0. -1.
         22    1    3    3    0    0  0.73210758781E+03 -0.29099706317E+03  0.82225250456E+03  0.11387537013E+04  0.00000000000E+00 0. -1.
</event>
<event>
 7    1  0.5213103E-005  0.9279023E+03  0.7818608E-02  0.1138709E+00
          2   -1    0    0  502    0  0.00000000000E+00  0.00000000000E+00  0.65125488128E+03  0.65125488128E+03  0.00000000000E+00 0. -1.
          1   -1    0    0  501    0 -0.00000000000E+00 -0.00000000000E+00 -0.24814979153E+04  0.24814979153E+04  0.00000000000E+00 0. -1.
         25    2    1    2    0    0 -0.47396084968E+03  0.81056335794E+03 -0.48029458046E+03  0.10620547946E+04  0.12500263336E+03 0.  0.
          2    1    1    2  501    0  0.48905743114E+02  0.53003920997E+01 -0.11218037914E+04  0.11228818336E+04  0.00000000000E+00 0. -1.
          1    1    1    2  502    0  0.42505510657E+03 -0.81586375004E+03 -0.22814466216E+03  0.94781616842E+03  0.00000000000E+00 0. -1.
         22    1    3    3    0    0 -0.75182540626E+02  0.56302636699E+02 -0.52936132660E+02  0.10781760271E+03  0.00000000000E+00 0. -1.
         22    1    3    3    0    0 -0.39877830905E+03  0.75426072124E+03 -0.42735844780E+03  0.95423719184E+03  0.00000000000E+00 0. -1.
</event>
<event>
 7    1  0.5213103E-005  0.2341787E+03  0.7818608E-02  0.1207132E+00
          2   -1    0    0  502    0  0.00000000000E+00  0.00000000000E+00  0.11279479576E+04  0.11279479576E+04  0.00000000000E+00 0. -1.
          1   -1    0    0  501    0 -0.00000000000E+00 -0.00000000000E+00 -0.10462107594E+04  0.10462107594E+04  0.00000000000E+00 0. -1.
         25    2    1    2    0    0 -0.12537955081E+02 -0.25712256502E+03 -0.93038330444E+02  0.30091633463E+03  0.12500118301E+03 0.  0.
          2    1    1    2  501    0  0.82592773475E+02  0.34266655200E+02 -0.83348758226E+03  0.83827043350E+03  0.00000000000E+00 0. -1.
          1    1    1    2  502    0 -0.70054818394E+02  0.22285590982E+03  0.10082631109E+04  0.10349719489E+04  0.00000000000E+00 0. -1.
         22    1    3    3    0    0  0.42431082703E+02 -0.10058598188E+03  0.30121568179E+01  0.10921084937E+03  0.00000000000E+00 0.  1.
         22    1    3    3    0    0 -0.54969037785E+02 -0.15653658314E+03 -0.96050487262E+02  0.19170548526E+03  0.00000000000E+00 0.  1.
</event>
<event>
 7    1  0.5213103E-005  0.3601344E+03  0.7818608E-02  0.1241492E+00
          2   -1    0    0  502    0  0.00000000000E+00  0.00000000000E+00  0.14980168705E+04  0.14980168705E+04  0.00000000000E+00 0. -1.
          1   -1    0    0  501    0 -0.00000000000E+00 -0.00000000000E+00 -0.48150105078E+03  0.48150105078E+03  0.00000000000E+00 0. -1.
         25    2    1    2    0    0 -0.25281298934E+03 -0.25007292168E+03  0.79331982562E+03  0.87831238637E+03  0.12500171440E+03 0.  0.
          2    1    1    2  501    0 -0.34250783251E+02  0.21873586658E+02 -0.38708903882E+03  0.38921651291E+03  0.00000000000E+00 0. -1.
          1    1    1    2  502    0  0.28706377259E+03  0.22819933502E+03  0.61028503293E+03  0.71198902201E+03  0.00000000000E+00 0. -1.
         22    1    3    3    0    0 -0.18126118612E+03 -0.24550697512E+03  0.64855895951E+03  0.71676915139E+03  0.00000000000E+00 0.  1.
         22    1    3    3    0    0 -0.71551803220E+02 -0.45659465557E+01  0.14476086611E+03  0.16154323498E+03  0.00000000000E+00 0.  1.
</event>
<event>
 7    1  0.5213103E-005  0.1544455E+03  0.7818608E-02  0.1312502E+00
          2   -1    0    0  502    0  0.00000000000E+00  0.00000000000E+00  0.16436133456E+04  0.16436133456E+04  0.00000000000E+00 0. -1.
          1   -1    0    0  501    0 -0.00000000000E+00 -0.00000000000E+00 -0.11496216259E+03  0.11496216259E+03  0.00000000000E+00 0. -1.
         25    2    1    2    0    0  0.51154611643E+02 -0.15389704297E+03  0.39321601120E+03  0.44333418312E+03  0.12500108932E+03 0.  0.
          2    1    1    2  501    0  0.38589566418E+02  0.28601224991E+02 -0.78246420335E+02  0.91813326933E+02  0.00000000000E+00 0. -1.
          1    1    1    2  502    0 -0.89744178062E+02  0.12529581798E+03  0.12136815921E+04  0.12234279981E+04  0.00000000000E+00 0. -1.
         22    1    3    3    0    0  0.30673328823E+02 -0.14802306799E+02  0.20816180410E+03  0.21092960454E+03  0.00000000000E+00 0. -1.
         22    1    3    3    0    0  0.20481282820E+02 -0.13909473617E+03  0.18505420710E+03  0.23240457858E+03  0.00000000000E+00 0. -1.
</event>
<event>
 7    1  0.5213103E-005  0.3109832E+03  0.7818608E-02  0.1224945E+00
          2   -1    0    0  502    0  0.00000000000E+00  0.00000000000E+00  0.30186566285E+04  0.30186566285E+04  0.00000000000E+00 0. -1.
          1   -1    0    0  501    0 -0.00000000000E+00 -0.00000000000E+00 -0.58408562582E+03  0.58408562582E+03  0.00000000000E+00 0. -1.
         25    2    1    2    0    0 -0.20298083844E+02 -0.35612916484E+03  0.38094805700E+03  0.53664261595E+03  0.12499552338E+03 0.  0.
          2    1    1    2  501    0 -0.49782355190E+01  0.30640453020E+03 -0.45952485623E+03  0.55233288192E+03  0.00000000000E+00 0. -1.
          1    1    1    2  502    0  0.25276319363E+02  0.49724634632E+02  0.25131478020E+04  0.25137667565E+04  0.00000000000E+00 0. -1.
         22    1    3    3    0    0 -0.53991808842E+02 -0.87661375083E+02  0.70223957529E+02  0.12462357849E+03  0.00000000000E+00 0. -1.
         22    1    3    3    0    0  0.33693724998E+02 -0.26846778975E+03  0.31072409947E+03  0.41201903746E+03  0.00000000000E+00 0. -1.
</event>
<event>
 7    1  0.5213103E-005  0.2959598E+03  0.7818608E-02  0.1146648E+00
          2   -1    0    0  502    0  0.00000000000E+00  0.00000000000E+00  0.10506304481E+04  0.10506304481E+04  0.00000000000E+00 0. -1.
          1   -1    0    0  501    0 -0.00000000000E+00 -0.00000000000E+00 -0.22826090423E+04  0.22826090423E+04  0.00000000000E+00 0. -1.
         25    2    1    2    0    0  0.14609042950E+03  0.34822313317E+03 -0.36812369800E+03  0.54197723712E+03  0.12499001744E+03 0.  0.
          2    1    1    2  501    0  0.50307837502E+02 -0.13087424907E+03 -0.18025118115E+04  0.18079567965E+04  0.00000000000E+00 0. -1.
          1    1    1    2  502    0 -0.19639826700E+03 -0.21734888411E+03  0.93865691532E+03  0.98330545680E+03  0.00000000000E+00 0. -1.
         22    1    3    3    0    0  0.35973857975E+02  0.11109204628E+03 -0.42238526553E+02  0.12417590076E+03  0.00000000000E+00 0. -1.
         22    1    3    3    0    0  0.11011657152E+03  0.23713108689E+03 -0.32588517144E+03  0.41780133636E+03  0.00000000000E+00 0. -1.
</event>
<event>
 7    1  0.5213103E-005  0.9895829E+03  0.7818608E-02  0.1086165E+00
          2   -1    0    0  502    0  0.00000000000E+00  0.00000000000E+00  0.16037981006E+04  0.16037981006E+04  0.00000000000E+00 0. -1.
          1   -1    0    0  501    0 -0.00000000000E+00 -0.00000000000E+00 -0.90041014895E+03  0.90041014895E+03  0.00000000000E+00 0. -1.
         25    2    1    2    0    0  0.93628874195E+03  0.42563396572E+03  0.70417734547E+03  0.12527134988E+04  0.12499798024E+03 0.  0.
          2    1    1    2  501    0 -0.78487336800E+02 -0.43703388731E+02 -0.26190140640E+03  0.27688010925E+03  0.00000000000E+00 0. -1.
          1    1    1    2  502    0 -0.85780140515E+03 -0.38193057699E+03  0.26111201257E+03  0.97461464150E+03  0.00000000000E+00 0. -1.
         22    1    3    3    0    0  0.23601254456E+03  0.12387304987E+03  0.24844991921E+03  0.36438141559E+03  0.00000000000E+00 0.  1.
         22    1    3    3    0    0  0.70027619739E+03  0.30176091585E+03  0.45572742626E+03  0.88833208318E+03  0.00000000000E+00 0.  1.
</event>
<event>
 7    1  0.5213103E-005  0.4597942E+02  0.7818608E-02  0.1566832E+00
          2   -1    0    0  502    0  0.00000000000E+00  0.00000000000E+00  0.11301431789E+03  0.11301431789E+03  0.00000000000E+00 0. -1.
          1   -1    0    0  501    0 -0.00000000000E+00 -0.00000000000E+00 -0.53168617968E+03  0.53168617968E+03  0.00000000000E+00 0. -1.
         25    2    1    2    0    0 -0.20780393560E+02 -0.16400500527E+02 -0.24094623469E+03  0.27272628959E+03  0.12499495929E+03 0.  0.
          2    1    1    2  501    0  0.30400673342E+02  0.38089138289E+02 -0.27119576721E+03  0.27553970231E+03  0.00000000000E+00 0. -1.
          1    1    1    2  502    0 -0.96202797820E+01 -0.21688637762E+02  0.93470140115E+02  0.96434505672E+02  0.00000000000E+00 0. -1.
         22    1    3    3    0    0 -0.13872302631E+02  0.17846775159E+02  0.59470092117E+01  0.23373384060E+02  0.00000000000E+00 0.  1.
         22    1    3    3    0    0 -0.69080909289E+01 -0.34247275686E+02 -0.24689324390E+03  0.24935290553E+03  0.00000000000E+00 0.  1.
</event>
<event>
 7    1  0.5213103E-005  0.4740772E+03  0.7818608E-02  0.1165789E+00
          2   -1    0    0  502    0  0.00000000000E+00  0.00000000000E+00  0.93169421761E+03  0.93169421761E+03  0.00000000000E+00 0. -1.
          1   -1    0    0  501    0 -0.00000000000E+00 -0.00000000000E+00 -0.21186745595E+04  0.21186745595E+04  0.00000000000E+00 0. -1.
         25    2    1    2    0    0  0.96145140388E+02 -0.52350621923E+03 -0.21292989109E+03  0.58674263942E+03  0.12500054718E+03 0.  0.
          2    1    1    2  501    0 -0.20610218711E+00  0.69944754860E+02 -0.16458813742E+04  0.16473669321E+04  0.00000000000E+00 0. -1.
          1    1    1    2  502    0 -0.95939038201E+02  0.45356146437E+03  0.67183092340E+03  0.81625920555E+03  0.00000000000E+00 0. -1.
         22    1    3    3    0    0  0.48651141917E+02 -0.25938770947E+03 -0.38560452391E+02  0.26671300291E+03  0.00000000000E+00 0. -1.
         22    1    3    3    0    0  0.47493998471E+02 -0.26411850976E+03 -0.17436943870E+03  0.32002963651E+03  0.00000000000E+00 0. -1.
</event>
<event>
 7    1  0.5213103E-005  0.3765106E+03  0.7818608E-02  0.1148891E+00
          2   -1    0    0  502    0  0.00000000000E+00  0.00000000000E+00  0.27456787226E+04  0.27456787226E+04  0.00000000000E+00 0. -1.
          1   -1    0    0  501    0 -0.00000000000E+00 -0.00000000000E+00 -0.13392038334E+03  0.13392038334E+03  0.00000000000E+00 0. -1.
         25    2    1    2    0    0  0.39521514521E+03 -0.32750932827E+01  0.37618725441E+03  0.55977466677E+03  0.12500035975E+03 0.  0.
          2    1    1    2  501    0 -0.33043935177E+02  0.10209861005E+03  0.85455127644E+02  0.13718092676E+03  0.00000000000E+00 0. -1.
          1    1    1    2  502    0 -0.36217121004E+03 -0.98823516767E+02  0.21501159572E+04  0.21826435124E+04  0.00000000000E+00 0. -1.
         22    1    3    3    0    0  0.87262345034E+02 -0.17283065203E+00  0.21169447177E+02  0.89793609043E+02  0.00000000000E+00 0. -1.
         22    1    3    3    0    0  0.30795280018E+03 -0.31022626307E+01  0.35501780723E+03  0.46998105773E+03  0.00000000000E+00 0. -1.
</event>
<event>
 7    1  0.5213103E-005  0.1018999E+03  0.7818608E-02  0.1461393E+00
          2   -1    0    0  502    0  0.00000000000E+00  0.00000000000E+00  0.87209290491E+02  0.87209290491E+02  0.00000000000E+00 0. -1.
          1   -1    0    0  501    0 -0.00000000000E+00 -0.00000000000E+00 -0.46447813839E+03  0.46447813839E+03  0.00000000000E+00 0. -1.
         25    2    1    2    0    0  0.29226947202E+02  0.94130130213E+02 -0.10873547568E+02  0.15955425811E+03  0.12499852555E+03 0.  0.
          2    1    1    2  501    0 -0.89036736459E+01 -0.10204403529E+03 -0.35045873980E+03  0.36512133441E+03  0.00000000000E+00 0. -1.
          1    1    1    2  502    0 -0.20323273556E+02  0.79139050765E+01 -0.15936560536E+02  0.27011836355E+02  0.00000000000E+00 0. -1.
         22    1    3    3    0    0  0.62343406126E+02  0.53830608713E+02 -0.48181165150E+02  0.95424626785E+02  0.00000000000E+00 0.  1.
         22    1    3    3    0    0 -0.33116458924E+02  0.40299521500E+02  0.37307617582E+02  0.64129631330E+02  0.00000000000E+00 0.  1.
</event>
<event>
 7    1  0.5213103E-005  0.9481499E+02  0.7818608E-02  0.1299002E+00
          2   -1    0    0  502    0  0.00000000000E+00  0.00000000000E+00  0.19173331213E+03  0.19173331213E+03  0.00000000000E+00 0. -1.
          1   -1    0    0  501    0 -0.00000000000E+00 -0.00000000000E+00 -0.86950154809E+03  0.86950154809E+03  0.00000000000E+00 0. -1.
         25    2    1    2    0    0 -0.12586849921E+03  0.12551385856E+03 -0.56961873335E+03  0.60966166480E+03  0.12500094541E+03 0.  0.
          2    1    1    2  501    0  0.74330991967E+02 -0.48053561363E+02 -0.25935164109E+03  0.27403925788E+03  0.00000000000E+00 0. -1.
          1    1    1    2  502    0  0.51537507243E+02 -0.77460297201E+02  0.15120213848E+03  0.17753393753E+03  0.00000000000E+00 0. -1.
         22    1    3    3    0    0  0.20852787879E+02  0.28491548832E+01 -0.26403666097E+02  0.33765515385E+02  0.00000000000E+00 0.  1.
         22    1    3    3    0    0 -0.14672128709E+03  0.12266470368E+03 -0.54321506726E+03  0.57589614941E+03  0.00000000000E+00 0.  1.
</event>
<event>
 7    1  0.5213103E-005  0.4325191E+03  0.7818608E-02  0.1212785E+00
          2   -1    0    0  502    0  0.00000000000E+00  0.00000000000E+00  0.10024558599E+04  0.10024558599E+04  0.00000000000E+00 0. -1.
          1   -1    0    0  501    0 -0.00000000000E+00 -0.00000000000E+00 -0.39218502633E+03  0.39218502633E+03  0.00000000000E+00 0. -1.
         25    2    1    2    0    0  0.17601021488E+03 -0.41856103822E+03  0.96141701928E+01  0.47105121181E+03  0.12499549359E+03 0.  0.
          2    1    1    2  501    0 -0.16547402770E+03  0.37421696401E+03  0.10046165908E+03  0.42132236464E+03  0.00000000000E+00 0. -1.
          1    1    1    2  502    0 -0.10536187176E+02  0.44344074208E+02  0.50019500430E+03  0.50226730979E+03  0.00000000000E+00 0. -1.
         22    1    3    3    0    0  0.50285301127E+02 -0.93250427462E+02  0.54965969947E+02  0.11935456247E+03  0.00000000000E+00 0. -1.
         22    1    3    3    0    0  0.12572491375E+03 -0.32531061076E+03 -0.45351799754E+02  0.35169664933E+03  0.00000000000E+00 0. -1.
</event>
<event>
 7    1  0.5213103E-005  0.4078081E+03  0.7818608E-02  0.1230000E+00
          2   -1    0    0  502    0  0.00000000000E+00  0.00000000000E+00  0.14248664687E+04  0.14248664687E+04  0.00000000000E+00 0. -1.
          1   -1    0    0  501    0 -0.00000000000E+00 -0.00000000000E+00 -0.24170706189E+03  0.24170706189E+03  0.00000000000E+00 0. -1.
         25    2    1    2    0    0  0.38407733279E+02 -0.38722811092E+03  0.45709274122E+03  0.61316758744E+03  0.12497980777E+03 0.  0.
          2    1    1    2  501    0 -0.23850931541E+02 -0.32564128995E+02 -0.11031746462E+03  0.11747013422E+03  0.00000000000E+00 0. -1.
          1    1    1    2  502    0 -0.14556801738E+02  0.41979223991E+03  0.83638413022E+03  0.93593580893E+03  0.00000000000E+00 0. -1.
         22    1    3    3    0    0  0.33840999083E+02 -0.23008536932E+03  0.35938864465E+03  0.42807089167E+03  0.00000000000E+00 0.  1.
         22    1    3    3    0    0  0.45667341954E+01 -0.15714274160E+03  0.97704096575E+02  0.18509669577E+03  0.00000000000E+00 0.  1.
</event>
<event>
 7    1  0.5213103E-005  0.4813665E+02  0.7818608E-02  0.1511423E+00
          2   -1    0    0  502    0  0.00000000000E+00  0.00000000000E+00  0.22742364564E+03  0.22742364564E+03  0.00000000000E+00 0. -1.
          1   -1    0    0  501    0 -0.00000000000E+00 -0.00000000000E+00 -0.42232043076E+03  0.42232043076E+03  0.00000000000E+00 0. -1.
         25    2    1    2    0    0 -0.19236565582E+02  0.24786367147E+02  0.21147972669E+01  0.12889256729E+03  0.12499764831E+03 0.  0.
          2    1    1    2  501    0 -0.29211768855E+02 -0.14297145056E+02 -0.35437543527E+03  0.35586470030E+03  0.00000000000E+00 0. -1.
          1    1    1    2  502    0  0.48448334437E+02 -0.10489222091E+02  0.15736385288E+03  0.16498680881E+03  0.00000000000E+00 0. -1.
         22    1    3    3    0    0  0.58514305449E+01 -0.30070855497E+02  0.45313824948E+02  0.54697699414E+02  0.00000000000E+00 0. -1.
         22    1    3    3    0    0 -0.25087996127E+02  0.54857222644E+02 -0.43199027681E+02  0.74194867872E+02  0.00000000000E+00 0. -1.
</event>
<event>
 7    1  0.5213103E-005  0.2196633E+03  0.7818608E-02  0.1290407E+00
          2   -1    0    0  502    0  0.00000000000E+00  0.00000000000E+00  0.18539737660E+04  0.18539737660E+04  0.00000000000E+00 0. -1.
          1   -1    0    0  501    0 -0.00000000000E+00 -0.00000000000E+00 -0.17555802903E+04  0.17555802903E+04  0.00000000000E+00 0. -1.
         25    2    1    2    0    0 -0.18366943331E+03  0.92628503017E+02  0.11375523143E+04  0.11627402712E+04  0.12500068100E+03 0.  0.
          2    1    1    2  501    0 -0.41382254441E+02  0.11027503734E+00 -0.17216850500E+04  0.17221823116E+04  0.00000000000E+00 0. -1.
          1    1    1    2  502    0  0.22505168775E+03 -0.92738778055E+02  0.68252621138E+03  0.72463147347E+03  0.00000000000E+00 0. -1.
         22    1    3    3    0    0 -0.11520179909E+03  0.50428094649E+02  0.95515197291E+03  0.96339490273E+03  0.00000000000E+00 0. -1.
         22    1    3    3    0    0 -0.68467634225E+02  0.42200408368E+02  0.18240034141E+03  0.19934536851E+03  0.00000000000E+00 0. -1.
</event>
<event>
 7    1  0.5213103E-005  0.4335003E+03  0.7818608E-02  0.1260856E+00
          2   -1    0    0  502    0  0.00000000000E+00  0.00000000000E+00  0.37665730555E+04  0.37665730555E+04  0.00000000000E+00 0. -1.
          1   -1    0    0  501    0 -0.00000000000E+00 -0.00000000000E+00 -0.10327186955E+04  0.10327186955E+04  0.00000000000E+00 0. -1.
         25    2    1    2    0    0 -0.10687990049E+03  0.41158067392E+03  0.50289217237E+03  0.67033396906E+03  0.12500051511E+03 0.  0.
          2    1    1    2  501    0 -0.27750445702E+02  0.21540605669E+01 -0.93390708288E+03  0.93432176827E+03  0.00000000000E+00 0. -1.
          1    1    1    2  502    0  0.13463034619E+03 -0.41373473448E+03  0.31648692705E+04  0.31946360137E+04  0.00000000000E+00 0. -1.
         22    1    3    3    0    0 -0.91612989140E+02  0.37632677514E+03  0.49906188463E+03  0.63172584731E+03  0.00000000000E+00 0.  1.
         22    1    3    3    0    0 -0.15266911348E+02  0.35253898773E+02  0.38302877360E+01  0.38608121748E+02  0.00000000000E+00 0.  1.
</event>
<event>
 7    1  0.5213103E-005  0.5907545E+03  0.7818608E-02  0.1084531E+00
          2   -1    0    0  502    0  0.00000000000E+00  0.00000000000E+00  0.76323751561E+03  0.76323751561E+03  0.00000000000E+00 0. -1.
          1   -1    0    0  501    0 -0.00000000000E+00 -0.00000000000E+00 -0.11932158115E+04  0.11932158115E+04  0.00000000000E+00 0. -1.
         25    2    1    2    0    0 -0.46522715075E+03 -0.33923794528E+03 -0.48405107659E+03  0.76252906852E+03  0.12500580103E+03 0.  0.
          2    1    1    2  501    0  0.57466821497E+03  0.23118002323E+03 -0.38457249075E+03  0.72909790912E+03  0.00000000000E+00 0. -1.
          1    1    1    2  502    0 -0.10944106423E+03  0.10805792205E+03  0.43864527141E+03  0.46482634950E+03  0.00000000000E+00 0. -1.
         22    1    3    3    0    0 -0.36774497866E+03 -0.27495444478E+03 -0.31407675344E+03  0.55630973665E+03  0.00000000000E+00 0.  1.
         22    1    3    3    0    0 -0.97482172082E+02 -0.64283500492E+02 -0.16997432315E+03  0.20621933187E+03  0.00000000000E+00 0.  1.
</event>
<event>
 7    1  0.5213103E-005  0.3956333E+03  0.7818608E-02  0.1227224E+00
          2   -1    0    0  502    0  0.00000000000E+00  0.00000000000E+00  0.20516526154E+04  0.20516526154E+04  0.00000000000E+00 0. -1.
          1   -1    0    0  501    0 -0.00000000000E+00 -0.00000000000E+00 -0.49185857226E+03  0.49185857226E+03  0.00000000000E+00 0. -1.
         25    2    1    2    0    0  0.40231874207E+03  0.67246450280E+01  0.17123811561E+04  0.17634567433E+04  0.12499948230E+03 0.  0.
          2    1    1    2  501    0 -0.35838228848E+02  0.23433197642E+02 -0.35685089582E+03  0.35941070552E+03  0.00000000000E+00 0. -1.
          1    1    1    2  502    0 -0.36648051322E+03 -0.30157842670E+02  0.20426378286E+03  0.42064373885E+03  0.00000000000E+00 0. -1.
         22    1    3    3    0    0  0.40468291148E+03 -0.94227985718E+01  0.16564678393E+04  0.17052104711E+04  0.00000000000E+00 0. -1.
         22    1    3    3    0    0 -0.23641694080E+01  0.16147443600E+02  0.55913316801E+02  0.58246272220E+02  0.00000000000E+00 0. -1.
</event>
<event>
 7    1  0.5213103E-005  0.7850653E+03  0.7818608E-02  0.1118104E+00
          2   -1    0    0  502    0  0.00000000000E+00  0.00000000000E+00  0.12077575418E+04  0.12077575418E+04  0.00000000000E+00 0. -1.
          1   -1    0    0  501    0 -0.00000000000E+00 -0.00000000000E+00 -0.18161367330E+04  0.18161367330E+04  0.00000000000E+00 0. -1.
         25    2    1    2    0    0  0.68234705127E+03 -0.32148762853E+03 -0.45056812849E+03  0.88746802526E+03  0.12504424721E+03 0.  0.
          2    1    1    2  501    0 -0.70316835309E+03  0.39347575451E+03 -0.10037577161E+04  0.12871668325E+04  0.00000000000E+00 0. -1.
          1    1    1    2  502    0  0.20821301813E+02 -0.71988125975E+02  0.84594665341E+03  0.84925941697E+03  0.00000000000E+00 0. -1.
         22    1    3    3    0    0  0.43059056493E+03 -0.26730487148E+03 -0.28801595843E+03  0.58293509178E+03  0.00000000000E+00 0.  1.
         22    1    3    3    0    0  0.25175648634E+03 -0.54182757051E+02 -0.16255217006E+03  0.30453293347E+03  0.00000000000E+00 0.  1.
</event>
<event>
 7    1  0.5213103E-005  0.3318620E+03  0.7818608E-02  0.1176520E+00
          2   -1    0    0  502    0  0.00000000000E+00  0.00000000000E+00  0.59718215536E+03  0.59718215536E+03  0.00000000000E+00 0. -1.
          1   -1    0    0  501    0 -0.00000000000E+00 -0.00000000000E+00 -0.67778607718E+03  0.67778607718E+03  0.00000000000E+00 0. -1.
         25    2    1    2    0    0  0.11789725498E+03 -0.34751575608E+03  0.29003820598E+03  0.48416311965E+03  0.12499920818E+03 0.  0.
          2    1    1    2  501    0  0.20122095151E+02  0.86079460796E+02 -0.47052389942E+03  0.47875600488E+03  0.00000000000E+00 0. -1.
          1    1    1    2  502    0 -0.13801935013E+03  0.26143629529E+03  0.99881771627E+02  0.31204910801E+03  0.00000000000E+00 0. -1.
         22    1    3    3    0    0 -0.15265608994E+02 -0.28036201947E+02  0.61818695615E+02  0.69574554006E+02  0.00000000000E+00 0.  1.
         22    1    3    3    0    0  0.13316286397E+03 -0.31947955414E+03  0.22821951037E+03  0.41458856565E+03  0.00000000000E+00 0.  1.
</event>
<event>
 7    1  0.5213103E-005  0.4055783E+03  0.7818608E-02  0.1228940E+00
          2   -1    0    0  502    0  0.00000000000E+00  0.00000000000E+00  0.48521735287E+03  0.48521735287E+03  0.00000000000E+00 0. -1.
          1   -1    0    0  501    0 -0.00000000000E+00 -0.00000000000E+00 -0.13744799110E+04  0.13744799110E+04  0.00000000000E+00 0. -1.
         25    2    1    2    0    0 -0.40145026300E+02  0.39993293175E+03 -0.50786378855E+03  0.65962895879E+03  0.12500704991E+03 0.  0.
          2    1    1    2  501    0  0.40502939264E+02  0.65772115107E+01 -0.68904613358E+03  0.69026684840E+03  0.00000000000E+00 0. -1.
          1    1    1    2  502    0 -0.35791296326E+00 -0.40651014326E+03  0.30764736398E+03  0.50980145669E+03  0.00000000000E+00 0. -1.
         22    1    3    3    0    0 -0.42665421644E+02  0.30964606885E+03 -0.46337903837E+03  0.55894647272E+03  0.00000000000E+00 0.  1.
         22    1    3    3    0    0  0.25203953436E+01  0.90286862894E+02 -0.44484750175E+02  0.10068248607E+03  0.00000000000E+00 0.  1.
</event>
<event>
 7    1  0.5213103E-005  0.1530335E+03  0.7818608E-02  0.1222498E+00
          2   -1    0    0  502    0  0.00000000000E+00  0.00000000000E+00  0.60950791280E+03  0.60950791280E+03  0.00000000000E+00 0. -1.
          1   -1    0    0  501    0 -0.00000000000E+00 -0.00000000000E+00 -0.34654265500E+03  0.34654265500E+03  0.00000000000E+00 0. -1.
         25    2    1    2    0    0 -0.28173708112E+02  0.21464081504E+03  0.37968293900E+03  0.45458643354E+03  0.12500101632E+03 0.  0.
          2    1    1    2  501    0 -0.37004163734E+02 -0.11023822875E+03 -0.27639407140E+03  0.29985906342E+03  0.00000000000E+00 0. -1.
          1    1    1    2  502    0  0.65177871846E+02 -0.10440258629E+03  0.15967639020E+03  0.20160507084E+03  0.00000000000E+00 0. -1.
         22    1    3    3    0    0  0.81123715666E+00  0.80600798076E+02  0.43689876416E+02  0.91683979284E+02  0.00000000000E+00 0.  1.
         22    1    3    3    0    0 -0.28984945269E+02  0.13404001696E+03  0.33599306259E+03  0.36290245426E+03  0.00000000000E+00 0.  1.
</event>
<event>
 7    1  0.5213103E-005  0.2486860E+03  0.7818608E-02  0.1204962E+00
          2   -1    0    0  502    0  0.00000000000E+00  0.00000000000E+00  0.10694169332E+04  0.10694169332E+04  0.00000000000E+00 0. -1.
          1   -1    0    0  501    0 -0.00000000000E+00 -0.00000000000E+00 -0.59648572275E+03  0.59648572275E+03  0.00000000000E+00 0. -1.
         25    2    1    2    0    0  0.24562009816E+03  0.22271545505E+03  0.64959186627E+03  0.73995188040E+03  0.12501114366E+03 0.  0.
          2    1    1    2  501    0 -0.18052053094E+03 -0.16622911553E+03 -0.51837928233E+03  0.57353017470E+03  0.00000000000E+00 0. -1.
          1    1    1    2  502    0 -0.65099567221E+02 -0.56486339523E+02  0.34171862647E+03  0.35242060082E+03  0.00000000000E+00 0. -1.
         22    1    3    3    0    0  0.15830673473E+03  0.82970924729E+02  0.24648574686E+03  0.30446743671E+03  0.00000000000E+00 0. -1.
         22    1    3    3    0    0  0.87313363430E+02  0.13974453032E+03  0.40310611941E+03  0.43548444369E+03  0.00000000000E+00 0. -1.
</event>
<event>
 7    1  0.5213103E-005  0.4998899E+03  0.7818608E-02  0.1130662E+00
          2   -1    0    0  502    0  0.00000000000E+00  0.00000000000E+00  0.30590101051E+04  0.30590101051E+04  0.00000000000E+00 0. -1.
          1   -1    0    0  501    0 -0.00000000000E+00 -0.00000000000E+00 -0.20274118818E+04  0.20274118818E+04  0.00000000000E+00 0. -1.
         25    2    1    2    0    0 -0.31058841771E+03  0.41202658988E+03 -0.16754956767E+04  0.17575949099E+04  0.12499211520E+03 0.  0.
          2    1    1    2  501    0 -0.62258578154E+02 -0.79162246435E+02 -0.28137218399E+03  0.29885297010E+03  0.00000000000E+00 0. -1.
          1    1    1    2  502    0  0.37284699586E+03 -0.33286434344E+03  0.29884660840E+04  0.30299741069E+04  0.00000000000E+00 0. -1.
         22    1    3    3    0    0 -0.42603512812E+02  0.42192888741E+01 -0.12571698900E+03  0.13280671303E+03  0.00000000000E+00 0. -1.
         22    1    3    3    0    0 -0.26798490490E+03  0.40780730100E+03 -0.15497786877E+04  0.16247881969E+04  0.00000000000E+00 0. -1.
</event>
<event>
 7    1  0.5213103E-005  0.4097475E+03  0.7818608E-02  0.1199477E+00
          2   -1    0    0  502    0  0.00000000000E+00  0.00000000000E+00  0.62521490093E+03  0.62521490093E+03  0.00000000000E+00 0. -1.
          1   -1    0    0  501    0 -0.00000000000E+00 -0.00000000000E+00 -0.19507639294E+04  0.19507639294E+04  0.00000000000E+00 0. -1.
         25    2    1    2    0    0  0.19823066362E+03 -0.37555121542E+03 -0.19190559040E+03  0.48248017339E+03  0.12500100274E+03 0.  0.
          2    1    1    2  501    0 -0.23442147518E+03  0.33346222205E+03 -0.15861051549E+04  0.16376446635E+04  0.00000000000E+00 0. -1.
          1    1    1    2  502    0  0.36190811555E+02  0.42088993367E+02  0.45246171678E+03  0.45585399347E+03  0.00000000000E+00 0. -1.
         22    1    3    3    0    0  0.19659283254E+03 -0.32401609583E+03 -0.20271141825E+03  0.42979889629E+03  0.00000000000E+00 0.  1.
         22    1    3    3    0    0  0.16378310801E+01 -0.51535119583E+02  0.10805827848E+02  0.52681277097E+02  0.00000000000E+00 0.  1.
</event>
<event>
 7    1  0.5213103E-005  0.8385387E+03  0.7818608E-02  0.1151021E+00
          2   -1    0    0  502    0  0.00000000000E+00  0.00000000000E+00  0.12993656389E+04  0.12993656389E+04  0.00000000000E+00 0. -1.
          1   -1    0    0  501    0 -0.00000000000E+00 -0.00000000000E+00 -0.19547442402E+04  0.19547442402E+04  0.00000000000E+00 0. -1.
         25    2    1    2    0    0 -0.80794849068E+03  0.23576384197E+02 -0.39679161675E+03  0.90906838569E+03  0.12500053306E+03 0.  0.
          2    1    1    2  501    0  0.85486999703E+03 -0.21168241691E+02 -0.11607077690E+04  0.14416980721E+04  0.00000000000E+00 0. -1.
          1    1    1    2  502    0 -0.46921506356E+02 -0.24081425058E+01  0.90212078443E+03  0.90334342119E+03  0.00000000000E+00 0. -1.
         22    1    3    3    0    0  0.77451859405E+00 -0.64703939550E+01 -0.10410458019E+02  0.12281836717E+02  0.00000000000E+00 0.  1.
         22    1    3    3    0    0 -0.80872300927E+03  0.30046778152E+02 -0.38638115873E+03  0.89678654898E+03  0.00000000000E+00 0.  1.
</event>
<event>
 7    1  0.5213103E-005  0.3825987E+03  0.7818608E-02  0.1151594E+00
          2   -1    0    0  502    0  0.00000000000E+00  0.00000000000E+00  0.19671106106E+04  0.19671106106E+04  0.00000000000E+00 0. -1.
          1   -1    0    0  501    0 -0.00000000000E+00 -0.00000000000E+00 -0.10228791653E+04  0.10228791653E+04  0.00000000000E+00 0. -1.
         25    2    1    2    0    0  0.22527612415E+03 -0.38196720237E+03  0.84273208243E+03  0.96045303843E+03  0.12499760191E+03 0.  0.
          2    1    1    2  501    0 -0.12559410778E+03  0.35906715714E+03 -0.92384911200E+03  0.99909973726E+03  0.00000000000E+00 0. -1.
          1    1    1    2  502    0 -0.99682016368E+02  0.22900045229E+02  0.10253484749E+04  0.10304370002E+04  0.00000000000E+00 0. -1.
         22    1    3    3    0    0  0.54297560848E+02 -0.10053852970E+03  0.11716700561E+03  0.16365918329E+03  0.00000000000E+00 0.  1.
         22    1    3    3    0    0  0.17097856330E+03 -0.28142867266E+03  0.72556507682E+03  0.79679385515E+03  0.00000000000E+00 0.  1.
</event>
<event>
 7    1  0.5213103E-005  0.2530753E+03  0.7818608E-02  0.1301605E+00
          2   -1    0    0  502    0  0.00000000000E+00  0.00000000000E+00  0.96943597238E+03  0.96943597238E+03  0.00000000000E+00 0. -1.
          1   -1    0    0  501    0 -0.00000000000E+00 -0.00000000000E+00 -0.54758247692E+03  0.54758247692E+03  0.00000000000E+00 0. -1.
         25    2    1    2    0    0  0.23717049535E+03 -0.42173184622E+02 -0.24739146975E+03  0.36722719050E+03  0.12499939507E+03 0.  0.
          2    1    1    2  501    0 -0.26702985108E+03  0.29660967166E+02 -0.16475384011E+03  0.31516430981E+03  0.00000000000E+00 0. -1.
          1    1    1    2  502    0  0.29859355730E+02  0.12512217456E+02  0.83399880532E+03  0.83462694900E+03  0.00000000000E+00 0. -1.
         22    1    3    3    0    0  0.11518683427E+03  0.39909848922E+02 -0.13689392868E+03  0.18330507505E+03  0.00000000000E+00 0.  1.
         22    1    3    3    0    0  0.12198366109E+03 -0.82083033545E+02 -0.11049754107E+03  0.18392211545E+03  0.00000000000E+00 0.  1.
</event>
<event>
 7    1  0.5213103E-005  0.4814233E+03  0.7818608E-02  0.1213816E+00
          2   -1    0    0  502    0  0.00000000000E+00  0.00000000000E+00  0.16398907598E+04  0.16398907598E+04  0.00000000000E+00 0. -1.
          1   -1    0    0  501    0 -0.00000000000E+00 -0.00000000000E+00 -0.31815396502E+03  0.31815396502E+03  0.00000000000E+00 0. -1.
         25    2    1    2    0    0 -0.46588302692E+03 -0.10979351783E+03  0.13402828533E+04  0.14286652132E+04  0.12499821302E+03 0.  0.
          2    1    1    2  501    0  0.47687389112E+03  0.70810723702E+02 -0.39610082168E+02  0.48372701520E+03  0.00000000000E+00 0. -1.
          1    1    1    2  502    0 -0.10990864208E+02  0.38982794129E+02  0.21064023616E+02  0.45652496373E+02  0.00000000000E+00 0. -1.
         22    1    3    3    0    0 -0.24275943605E+03 -0.98968489732E+02  0.58533086578E+03  0.64135725472E+03  0.00000000000E+00 0. -1.
         22    1    3    3    0    0 -0.22312359086E+03 -0.10825028099E+02  0.75495198754E+03  0.78730795850E+03  0.00000000000E+00 0. -1.
</event>
<event>
 7    1  0.5213103E-005  0.4329566E+03  0.7818608E-02  0.1179154E+00
          2   -1    0    0  502    0  0.00000000000E+00  0.00000000000E+00  0.96416494961E+03  0.96416494961E+03  0.00000000000E+00 0. -1.
          1   -1    0    0  501    0 -0.00000000000E+00 -0.00000000000E+00 -0.18310068123E+04  0.18310068123E+04  0.00000000000E+00 0. -1.
         25    2    1    2    0    0 -0.18703537933E+03 -0.35677429859E+03 -0.69608314628E+03  0.81389571977E+03  0.12499745145E+03 0.  0.
          2    1    1    2  501    0  0.24513819041E+03  0.38760298897E+03 -0.10258294794E+04  0.11236791937E+04  0.00000000000E+00 0. -1.
          1    1    1    2  502    0 -0.58102811080E+02 -0.30828690382E+02  0.85507076299E+03  0.85759684849E+03  0.00000000000E+00 0. -1.
         22    1    3    3    0    0 -0.84075852262E+02 -0.49927807537E+02 -0.14814838402E+03  0.17750909438E+03  0.00000000000E+00 0. -1.
         22    1    3    3    0    0 -0.10295952707E+03 -0.30684649105E+03 -0.54793476225E+03  0.63638662539E+03  0.00000000000E+00 0. -1.
</event>
<event>
 7    1  0.5213103E-005  0.2177155E+03  0.7818608E-02  0.1184566E+00
          2   -1    0    0  502    0  0.00000000000E+00  0.00000000000E+00  0.49592614600E+03  0.49592614600E+03  0.00000000000E+00 0. -1.
          1   -1    0    0  501    0 -0.00000000000E+00 -0.00000000000E+00 -0.10076731994E+04  0.10076731994E+04  0.00000000000E+00 0. -1.
         25    2    1    2    0    0  0.34857958294E+02 -0.27218056231E+03  0.28204912779E+03  0.41290251177E+03  0.12505773860E+03 0.  0.
          2    1    1    2  501    0 -0.72372896403E+02  0.99587747599E+02 -0.88389061005E+03  0.89242263874E+03  0.00000000000E+00 0. -1.
          1    1    1    2  502    0  0.37514938108E+02  0.17259281471E+03  0.90094428814E+02  0.19827419493E+03  0.00000000000E+00 0. -1.
         22    1    3    3    0    0  0.58747034676E+02 -0.47339359600E+02  0.71448952930E+02  0.10390948910E+03  0.00000000000E+00 0.  1.
         22    1    3    3    0    0 -0.23889076381E+02 -0.22484120271E+03  0.21060017486E+03  0.30899302267E+03  0.00000000000E+00 0.  1.
</event>
<event>
 7    1  0.5213103E-005  0.2628668E+03  0.7818608E-02  0.1332378E+00
          2   -1    0    0  502    0  0.00000000000E+00  0.00000000000E+00  0.71127362589E+03  0.71127362589E+03  0.00000000000E+00 0. -1.
          1   -1    0    0  501    0 -0.00000000000E+00 -0.00000000000E+00 -0.21665893601E+04  0.21665893601E+04  0.00000000000E+00 0. -1.
         25    2    1    2    0    0 -0.25856353391E+03  0.28823965206E+02 -0.19151679183E+04  0.19367959226E+04  0.12499747424E+03 0.  0.
          2    1    1    2  501    0  0.28194198754E+03 -0.32368540121E+02 -0.15661887978E+03  0.32414268499E+03  0.00000000000E+00 0. -1.
          1    1    1    2  502    0 -0.23378453629E+02  0.35445749155E+01  0.61647106385E+03  0.61692437840E+03  0.00000000000E+00 0. -1.
         22    1    3    3    0    0 -0.12025670971E+03  0.10137951764E+02 -0.48319584158E+03  0.49803882943E+03  0.00000000000E+00 0.  1.
         22    1    3    3    0    0 -0.13830682420E+03  0.18686013442E+02 -0.14319720767E+04  0.14387570932E+04  0.00000000000E+00 0.  1.
</event>
<event>
 7    1  0.5213103E-005  0.1027217E+03  0.7818608E-02  0.1285485E+00
          2   -1    0    0  502    0  0.00000000000E+00  0.00000000000E+00  0.23927539559E+04  0.23927539559E+04  0.00000000000E+00 0. -1.
          1   -1    0    0  501    0 -0.00000000000E+00 -0.00000000000E+00 -0.90231387893E+02  0.90231387893E+02  0.00000000000E+00 0. -1.
         25    2    1    2    0    0  0.14658882729E+03 -0.40873226170E+01  0.14662216699E+04  0.14788291907E+04  0.12499919787E+03 0.  0.
          2    1    1    2  501    0 -0.74471530488E+02 -0.55171464858E+02 -0.55138581287E+02  0.10784323129E+03  0.00000000000E+00 0. -1.
          1    1    1    2  502    0 -0.72117296802E+02  0.59258787475E+02  0.89143947934E+03  0.89631292176E+03  0.00000000000E+00 0. -1.
         22    1    3    3    0    0  0.12306411858E+03 -0.32756785154E+02  0.68560370445E+03  0.69733078507E+03  0.00000000000E+00 0.  1.
         22    1    3    3    0    0  0.23524708710E+02  0.28669462537E+02  0.78061796548E+03  0.78149840565E+03  0.00000000000E+00 0.  1.
</event>
<event>
 7    1  0.5213103E-005  0.2455401E+03  0.7818608E-02  0.1202204E+00
          2   -1    0    0  502    0  0.00000000000E+00  0.00000000000E+00  0.11495598158E+04  0.11495598158E+04  0.00000000000E+00 0. -1.
          1   -1    0    0  501    0 -0.00000000000E+00 -0.00000000000E+00 -0.42689765513E+03  0.42689765513E+03  0.00000000000E+00 0. -1.
         25    2    1    2    0    0 -0.22518103172E+03 -0.77184000358E+01  0.38076540401E+01  0.25769312560E+03  0.12500071202E+03 0.  0.
          2    1    1    2  501    0  0.23978635857E+03  0.96456224636E+02 -0.24178604810E+03  0.35392342969E+03  0.00000000000E+00 0. -1.
          1    1    1    2  502    0 -0.14605326842E+02 -0.88737824600E+02  0.96064055473E+03  0.96484091563E+03  0.00000000000E+00 0. -1.
         22    1    3    3    0    0 -0.12569179181E+03 -0.50406360015E+02  0.43727240842E+02  0.14230705973E+03  0.00000000000E+00 0. -1.
         22    1    3    3    0    0 -0.99489239916E+02  0.42687959979E+02 -0.39919586802E+02  0.11538606587E+03  0.00000000000E+00 0. -1.
</event>
<event>
 7    1  0.5213103E-005  0.7408373E+03  0.7818608E-02  0.1128747E+00
          2   -1    0    0  502    0  0.00000000000E+00  0.00000000000E+00  0.18030672349E+04  0.18030672349E+04  0.00000000000E+00 0. -1.
          1   -1    0    0  501    0 -0.00000000000E+00 -0.00000000000E+00 -0.10529014262E+04  0.10529014262E+04  0.00000000000E+00 0. -1.
         25    2    1    2    0    0 -0.72368373849E+03  0.10226069924E+03 -0.51159502761E+02  0.74324793530E+03  0.12499917856E+03 0.  0.
          2    1    1    2  501    0 -0.19303743794E+02 -0.66842914394E+02 -0.55846414264E+03  0.56278131485E+03  0.00000000000E+00 0. -1.
          1    1    1    2  502    0  0.74298748229E+03 -0.35417784851E+02  0.13597894541E+04  0.15499394110E+04  0.00000000000E+00 0. -1.
         22    1    3    3    0    0 -0.64737526638E+03  0.72131030706E+02 -0.80020765395E+02  0.65627809960E+03  0.00000000000E+00 0.  1.
         22    1    3    3    0    0 -0.76308472111E+02  0.30129668539E+02  0.28861262633E+02  0.86969835707E+02  0.00000000000E+00 0.  1.
</event>
<event>
 7    1  0.5213103E-005  0.4439602E+03  0.7818608E-02  0.1082732E+00
          2   -1    0    0  502    0  0.00000000000E+00  0.00000000000E+00  0.13971499790E+04  0.13971499790E+04  0.00000000000E+00 0. -1.
          1   -1    0    0  501    0 -0.00000000000E+00 -0.00000000000E+00 -0.16508640405E+04  0.16508640405E+04  0.00000000000E+00 0. -1.
         25    2    1    2    0    0 -0.38134892162E+03 -0.54713740852E+02 -0.28460209048E+03  0.49501933157E+03  0.12500078108E+03 0.  0.
          2    1    1    2  501    0  0.40334915094E+03  0.26318976257E+03 -0.12059241163E+04  0.12985423994E+04  0.00000000000E+00 0. -1.
          1    1    1    2  502    0 -0.22000229319E+02 -0.20847602172E+03  0.12368121452E+04  0.12544522886E+04  0.00000000000E+00 0. -1.
         22    1    3    3    0    0 -0.19299068740E+03 -0.58825738056E+02 -0.21322525718E+03  0.29354877479E+03  0.00000000000E+00 0.  1.
         22    1    3    3    0    0 -0.18835823422E+03  0.41119972040E+01 -0.71376833295E+02  0.20147055678E+03  0.00000000000E+00 0.  1.
</event>
<event>
 7    1  0.5213103E-005  0.7001396E+03  0.7818608E-02  0.1239645E+00
          2   -1    0    0  502    0  0.00000000000E+00  0.00000000000E+00  0.20444359592E+04  0.20444359592E+04  0.00000000000E+00 0. -1.
          1   -1    0    0  501    0 -0.00000000000E+00 -0.00000000000E+00 -0.16969064593E+04  0.16969064593E+04  0.00000000000E+00 0. -1.
         25    2    1    2    0    0  0.64270800699E+03 -0.26691747049E+03  0.14576119817E+04  0.16200544872E+04  0.12500133642E+03 0.  0.
          2    1    1    2  501    0  0.20711699576E+02  0.49687204771E+01 -0.13640080228E+04  0.13641743103E+04  0.00000000000E+00 0. -1.
          1    1    1    2  502    0 -0.66341970656E+03  0.26194875001E+03  0.25392554101E+03  0.75711362098E+03  0.00000000000E+00 0. -1.
         22    1    3    3    0    0  0.25076146495E+02 -0.16967679418E+02  0.14373085720E+03  0.14688524289E+03  0.00000000000E+00 0.  1.
         22    1    3    3    0    0  0.61763186049E+03 -0.24994979107E+03  0.13138811245E+04  0.14731692444E+04  0.00000000000E+00 0.  1.
</event>
<event>
 7    1  0.5213103E-005  0.5053978E+03  0.7818608E-02  0.1118479E+00
          2   -1    0    0  502    0  0.00000000000E+00  0.00000000000E+00  0.23355610293E+04  0.23355610293E+04  0.00000000000E+00 0. -1.
          1   -1    0    0  501    0 -0.00000000000E+00 -0.00000000000E+00 -0.34700420144E+03  0.34700420144E+03  0.00000000000E+00 0. -1.
         25    2    1    2    0    0 -0.21683513439E+03  0.39242560935E+03  0.34358390591E+03  0.57852347361E+03  0.12499669892E+03 0.  0.
          2    1    1    2  501    0  0.20535941558E+03 -0.50771614953E+03  0.10245173132E+03  0.55717549777E+03  0.00000000000E+00 0. -1.
          1    1    1    2  502    0  0.11475718815E+02  0.11529054019E+03  0.15425211907E+04  0.15468662594E+04  0.00000000000E+00 0. -1.
         22    1    3    3    0    0 -0.25428573198E+02  0.15752547566E+03  0.14969533045E+03  0.21879117847E+03  0.00000000000E+00 0. -1.
         22    1    3    3    0    0 -0.19140656120E+03  0.23490013369E+03  0.19388857546E+03  0.35973229514E+03  0.00000000000E+00 0. -1.
</event>
<event>
 7    1  0.5213103E-005  0.3382692E+03  0.7818608E-02  0.1213514E+00
          2   -1    0    0  502    0  0.00000000000E+00  0.00000000000E+00  0.17686169730E+04  0.17686169730E+04  0.00000000000E+00 0. -1.
          1   -1    0    0  501    0 -0.00000000000E+00 -0.00000000000E+00 -0.35432412485E+03  0.35432412485E+03  0.00000000000E+00 0. -1.
         25    2    1    2    0    0  0.17458008763E+03 -0.34749446218E+03  0.17386983357E+03  0.44394349547E+03  0.12499799958E+03 0.  0.
          2    1    1    2  501    0 -0.29387150853E+02  0.49804808273E+02 -0.19627459721E+03  0.20461632651E+03  0.00000000000E+00 0. -1.
          1    1    1    2  502    0 -0.14519293678E+03  0.29768965391E+03  0.14366976118E+04  0.14743812759E+04  0.00000000000E+00 0. -1.
         22    1    3    3    0    0  0.41983099481E+02 -0.79539641236E+02  0.10290345373E+03  0.13666841610E+03  0.00000000000E+00 0. -1.
         22    1    3    3    0    0  0.13259698815E+03 -0.26795482094E+03  0.70966379846E+02  0.30727507937E+03  0.00000000000E+00 0. -1.
</event>
<event>
 7    1  0.5213103E-005  0.1309120E+03  0.7818608E-02  0.1281858E+00
          2   -1    0    0  502    0  0.00000000000E+00  0.00000000000E+00  0.34075988321E+03  0.34075988321E+03  0.00000000000E+00 0. -1.
          1   -1    0    0  501    0 -0.00000000000E+00 -0.00000000000E+00 -0.16939242992E+03  0.16939242992E+03  0.00000000000E+00 0. -1.
         25    2    1    2    0    0  0.95856162807E+02  0.89339614698E+02  0.19073326469E+03  0.26300852991E+03  0.12499735134E+03 0.  0.
          2    1    1    2  501    0 -0.57560073948E+02  0.48489059097E+02 -0.62394828838E+02  0.97762291456E+02  0.00000000000E+00 0. -1.
          1    1    1    2  502    0 -0.38296088859E+02 -0.13782867379E+03  0.43029017439E+02  0.14938149177E+03  0.00000000000E+00 0. -1.
         22    1    3    3    0    0  0.10602885086E+03  0.21079077331E+02  0.88748668882E+02  0.13986697589E+03  0.00000000000E+00 0.  1.
         22    1    3    3    0    0 -0.10172688051E+02  0.68260537366E+02  0.10198459581E+03  0.12314155402E+03  0.00000000000E+00 0.  1.
</event>
<event>
 7    1  0.5213103E-005  0.2257335E+03  0.7818608E-02  0.1139171E+00
          2   -1    0    0  502    0  0.00000000000E+00  0.00000000000E+00  0.87284278254E+03  0.87284278254E+03  0.00000000000E+00 0. -1.
          1   -1    0    0  501    0 -0.00000000000E+00 -0.00000000000E+00 -0.12181505721E+04  0.12181505721E+04  0.00000000000E+00 0. -1.
         25    2    1    2    0    0  0.41349131044E+03  0.79063365642E+02  0.26988514928E+03  0.51545057976E+03  0.12500090712E+03 0.  0.
          2    1    1    2  501    0 -0.21741663435E+03 -0.34454265025E+02 -0.10625273923E+04  0.10850905716E+04  0.00000000000E+00 0. -1.
          1    1    1    2  502    0 -0.19607467610E+03 -0.44609100617E+02  0.44733445343E+03  0.49045220327E+03  0.00000000000E+00 0. -1.
         22    1    3    3    0    0  0.37923342588E+03  0.59579880459E+02  0.19441077913E+03  0.43030605910E+03  0.00000000000E+00 0.  1.
         22    1    3    3    0    0  0.34257884566E+02  0.19483485183E+02  0.75474370143E+02  0.85144520659E+02  0.00000000000E+00 0.  1.
</event>
<event>
 7    1  0.5213103E-005  0.2416798E+03  0.7818608E-02  0.1259183E+00
          2   -1    0    0  502    0  0.00000000000E+00  0.00000000000E+00  0.97135154677E+03  0.97135154677E+03  0.00000000000E+00 0. -1.
          1   -1    0    0  501    0 -0.00000000000E+00 -0.00000000000E+00 -0.33177421729E+03  0.33177421729E+03  0.00000000000E+00 0. -1.
         25    2    1    2    0    0  0.19459385173E+03  0.18792208435E+03  0.10004125193E+03  0.31434885000E+03  0.12500188194E+03 0.  0.
          2    1    1    2  501    0 -0.18905902826E+03 -0.13747153107E+03 -0.16263986388E+03  0.28476914043E+03  0.00000000000E+00 0. -1.
          1    1    1    2  502    0 -0.55348234719E+01 -0.50450553288E+02  0.70217594143E+03  0.70400777363E+03  0.00000000000E+00 0. -1.
         22    1    3    3    0    0 -0.11793168510E+02 -0.61418465824E+01 -0.15537545579E+01  0.13387130244E+02  0.00000000000E+00 0.  1.
         22    1    3    3    0    0  0.20638702024E+03  0.19406393094E+03  0.10159500648E+03  0.30096171975E+03  0.00000000000E+00 0.  1.
</event>
<event>
 7    1  0.5213103E-005  0.4967320E+03  0.7818608E-02  0.1022030E+00
          2   -1    0    0  502    0  0.00000000000E+00  0.00000000000E+00  0.10173703557E+04  0.10173703557E+04  0.00000000000E+00 0. -1.
          1   -1    0    0  501    0 -0.00000000000E+00 -0.00000000000E+00 -0.78497804991E+03  0.78497804991E+03  0.00000000000E+00 0. -1.
         25    2    1    2    0    0 -0.18195691723E+03  0.68125414478E+03  0.62107298807E+02  0.71881695235E+03  0.12499985962E+03 0.  0.
          2    1    1    2  501    0 -0.17635501288E+03 -0.41910769426E+03 -0.20822707540E+03  0.50011085260E+03  0.00000000000E+00 0. -1.
          1    1    1    2  502    0  0.35831193011E+03 -0.26214645052E+03  0.37851208239E+03  0.58342060068E+03  0.00000000000E+00 0. -1.
         22    1    3    3    0    0 -0.10876539210E+03  0.57734985321E+03  0.68951868701E+02  0.59153793092E+03  0.00000000000E+00 0. -1.
         22    1    3    3    0    0 -0.73191525135E+02  0.10390429157E+03 -0.68445698938E+01  0.12727902143E+03  0.00000000000E+00 0. -1.
</event>
<event>
 7    1  0.5213103E-005  0.3750744E+03  0.7818608E-02  0.1193704E+00
          2   -1    0    0  502    0  0.00000000000E+00  0.00000000000E+00  0.30791801406E+03  0.30791801406E+03  0.00000000000E+00 0. -1.
          1   -1    0    0  501    0 -0.00000000000E+00 -0.00000000000E+00 -0.17249978186E+04  0.17249978186E+04  0.00000000000E+00 0. -1.
         25    2    1    2    0    0 -0.12414827526E+03  0.36093398385E+03  0.82543025810E+02  0.41002889110E+03  0.12499682186E+03 0.  0.
          2    1    1    2  501    0  0.64012755436E+02 -0.85959545079E+01 -0.10333981833E+04  0.10354145684E+04  0.00000000000E+00 0. -1.
          1    1    1    2  502    0  0.60135519826E+02 -0.35233802935E+03 -0.46622464706E+03  0.58747237313E+03  0.00000000000E+00 0. -1.
         22    1    3    3    0    0 -0.14611587254E+03  0.34150754870E+03  0.69343374098E+02  0.37787002734E+03  0.00000000000E+00 0. -1.
         22    1    3    3    0    0  0.21967597281E+02  0.19426435152E+02  0.13199651712E+02  0.32158863760E+02  0.00000000000E+00 0. -1.
</event>
<event>
 7    1  0.5213103E-005  0.1048474E+03  0.7818608E-02  0.1336566E+00
          2   -1    0    0  502    0  0.00000000000E+00  0.00000000000E+00  0.20595986461E+03  0.20595986461E+03  0.00000000000E+00 0. -1.
          1   -1    0    0  501    0 -0.00000000000E+00 -0.00000000000E+00 -0.45063499825E+03  0.45063499825E+03  0.00000000000E+00 0. -1.
         25    2    1    2    0    0  0.26742438998E+01 -0.12656301552E+03 -0.36472034007E+03  0.40579717146E+03  0.12500027769E+03 0.  0.
          2    1    1    2  501    0 -0.27245219170E+02  0.74961420974E+02 -0.33840702914E+02  0.86641270627E+02  0.00000000000E+00 0. -1.
          1    1    1    2  502    0  0.24570975270E+02  0.51601594544E+02  0.15388590935E+03  0.16415642077E+03  0.00000000000E+00 0. -1.
         22    1    3    3    0    0 -0.55976572364E+02 -0.47304959549E+02 -0.10549636085E+03  0.12845473134E+03  0.00000000000E+00 0.  1.
         22    1    3    3    0    0  0.58650816264E+02 -0.79258055969E+02 -0.25922397923E+03  0.27734244012E+03  0.00000000000E+00 0.  1.
</event>
<event>
 7    1  0.5213103E-005  0.7390143E+03  0.7818608E-02  0.1143828E+00
          2   -1    0    0  502    0  0.00000000000E+00  0.00000000000E+00  0.24924410770E+04  0.24924410770E+04  0.00000000000E+00 0. -1.
          1   -1    0    0  501    0 -0.00000000000E+00 -0.00000000000E+00 -0.99038087026E+03  0.99038087026E+03  0.00000000000E+00 0. -1.
         25    2    1    2    0    0 -0.31418098999E+03 -0.67491402422E+03  0.35836218477E+03  0.83562418438E+03  0.12500274996E+03 0.  0.
          2    1    1    2  501    0 -0.48329522667E+02  0.32203561282E+02 -0.67864707957E+03  0.68112749962E+03  0.00000000000E+00 0. -1.
          1    1    1    2  502    0  0.36251051265E+03  0.64271046293E+03  0.18223451015E+04  0.19660702632E+04  0.00000000000E+00 0. -1.
         22    1    3    3    0    0 -0.13493778894E+03 -0.43420620940E+03  0.22167606942E+03  0.50584930456E+03  0.00000000000E+00 0. -1.
         22    1    3    3    0    0 -0.17924320104E+03 -0.24070781481E+03  0.13668611535E+03  0.32977487983E+03  0.00000000000E+00 0. -1.
</event>
<event>
 7    1  0.5213103E-005  0.7133439E+03  0.7818608E-02  0.1098759E+00
          2   -1    0    0  502    0  0.00000000000E+00  0.00000000000E+00  0.21444278795E+04  0.21444278795E+04  0.00000000000E+00 0. -1.
          1   -1    0    0  501    0 -0.00000000000E+00 -0.00000000000E+00 -0.11102653172E+04  0.11102653172E+04  0.00000000000E+00 0. -1.
         25    2    1    2    0    0 -0.47650843455E+03  0.59313796948E+03  0.68489364815E+03  0.10312987170E+04  0.12499918168E+03 0.  0.
          2    1    1    2  501    0  0.10485330331E+03 -0.12466518310E+02 -0.84114784454E+03  0.84774956542E+03  0.00000000000E+00 0. -1.
          1    1    1    2  502    0  0.37165513125E+03 -0.58067145117E+03  0.11904167587E+04  0.13756449143E+04  0.00000000000E+00 0. -1.
         22    1    3    3    0    0 -0.10552339172E+03  0.78802206489E+02  0.16597934897E+03  0.21188232166E+03  0.00000000000E+00 0.  1.
         22    1    3    3    0    0 -0.37098504283E+03  0.51433576299E+03  0.51891429918E+03  0.81941639536E+03  0.00000000000E+00 0.  1.
</event>
<event>
 7    1  0.5213103E-005  0.1957236E+04  0.7818608E-02  0.1058499E+00
          2   -1    0    0  502    0  0.00000000000E+00  0.00000000000E+00  0.19215506221E+04  0.19215506221E+04  0.00000000000E+00 0. -1.
          1   -1    0    0  501    0 -0.00000000000E+00 -0.00000000000E+00 -0.37344818146E+04  0.37344818146E+04  0.00000000000E+00 0. -1.
         25    2    1    2    0    0  0.19865346441E+04  0.92032349350E+02 -0.28580760174E+03  0.20129824535E+04  0.12499010984E+03 0.  0.
          2    1    1    2  501    0 -0.19436656849E+04 -0.41463732485E+02 -0.22177596257E+04  0.29492394431E+04  0.00000000000E+00 0. -1.
          1    1    1    2  502    0 -0.42868959216E+02 -0.50568616866E+02  0.69063603496E+03  0.69381054003E+03  0.00000000000E+00 0. -1.
         22    1    3    3    0    0  0.62990152954E+03  0.69156412753E+02 -0.48285935631E+02  0.63552346764E+03  0.00000000000E+00 0.  1.
         22    1    3    3    0    0  0.13566331145E+04  0.22875936597E+02 -0.23752166611E+03  0.13774589859E+04  0.00000000000E+00 0.  1.
</event>
<event>
 7    1  0.5213103E-005  0.2838069E+03  0.7818608E-02  0.1212351E+00
          2   -1    0    0  502    0  0.00000000000E+00  0.00000000000E+00  0.11564337126E+04  0.11564337126E+04  0.00000000000E+00 0. -1.
          1   -1    0    0  501    0 -0.00000000000E+00 -0.00000000000E+00 -0.33079607329E+04  0.33079607329E+04  0.00000000000E+00 0. -1.
         25    2    1    2    0    0  0.24538335375E+03  0.21289729531E+03 -0.66244642707E+03  0.74833212388E+03  0.12500980062E+03 0.  0.
          2    1    1    2  501    0 -0.69263945349E+02  0.84901734794E+01 -0.25841244654E+04  0.25850665040E+04  0.00000000000E+00 0. -1.
          1    1    1    2  502    0 -0.17611940840E+03 -0.22138746879E+03  0.10950438722E+04  0.11309958176E+04  0.00000000000E+00 0. -1.
         22    1    3    3    0    0  0.17161178187E+03  0.17863489203E+03 -0.58807719963E+03  0.63811897092E+03  0.00000000000E+00 0.  1.
         22    1    3    3    0    0  0.73771571877E+02  0.34262403277E+02 -0.74369227446E+02  0.11021315296E+03  0.00000000000E+00 0.  1.
</event>
<event>
 7    1  0.5213103E-005  0.2555710E+03  0.7818608E-02  0.1285415E+00
          2   -1    0    0  502    0  0.00000000000E+00  0.00000000000E+00  0.34548441811E+04  0.34548441811E+04  0.00000000000E+00 0. -1.
          1   -1    0    0  501    0 -0.00000000000E+00 -0.00000000000E+00 -0.12608558450E+03  0.12608558450E+03  0.00000000000E+00 0. -1.
         25    2    1    2    0    0  0.18683424087E+03 -0.16817007235E+03  0.12220176233E+04  0.12538510726E+04  0.12500893528E+03 0.  0.
          2    1    1    2  501    0 -0.21341866861E+03  0.14204024022E+03  0.39368363706E+02  0.25937005613E+03  0.00000000000E+00 0. -1.
          1    1    1    2  502    0  0.26584427743E+02  0.26129832130E+02  0.20673726096E+04  0.20677086368E+04  0.00000000000E+00 0. -1.
         22    1    3    3    0    0  0.16834184750E+03 -0.76133961751E+02  0.73477109862E+03  0.75764366632E+03  0.00000000000E+00 0. -1.
         22    1    3    3    0    0  0.18492393368E+02 -0.92036110604E+02  0.48724652469E+03  0.49620740632E+03  0.00000000000E+00 0. -1.
</event>
<event>
 7    1  0.5213103E-005  0.3261825E+03  0.7818608E-02  0.1130348E+00
          2   -1    0    0  502    0  0.00000000000E+00  0.00000000000E+00  0.18232877352E+04  0.18232877352E+04  0.00000000000E+00 0. -1.
          1   -1    0    0  501    0 -0.00000000000E+00 -0.00000000000E+00 -0.30507268833E+03  0.30507268833E+03  0.00000000000E+00 0. -1.
         25    2    1    2    0    0  0.37204818386E+03  0.26480697258E+03  0.49764103730E+03  0.68688756422E+03  0.12500136013E+03 0.  0.
          2    1    1    2  501    0 -0.24660798028E+03 -0.17386059522E+03 -0.94112285085E+02  0.31606980987E+03  0.00000000000E+00 0. -1.
          1    1    1    2  502    0 -0.12544020358E+03 -0.90946377362E+02  0.11146862946E+04  0.11254030494E+04  0.00000000000E+00 0. -1.
         22    1    3    3    0    0  0.19967827514E+03  0.20625131035E+03  0.34878145451E+03  0.45172947612E+03  0.00000000000E+00 0. -1.
         22    1    3    3    0    0  0.17236990872E+03  0.58555662229E+02  0.14885958279E+03  0.23515808810E+03  0.00000000000E+00 0. -1.
</event>
<event>
 7    1  0.5213103E-005  0.1695051E+04  0.7818608E-02  0.1111209E+00
          2   -1    0    0  502    0  0.00000000000E+00  0.00000000000E+00  0.12132255663E+04  0.12132255663E+04  0.00000000000E+00 0. -1.
          1   -1    0    0  501    0 -0.00000000000E+00 -0.00000000000E+00 -0.33536292780E+04  0.33536292780E+04  0.00000000000E+00 0. -1.
         25    2    1    2    0    0  0.69901565912E+03 -0.15578030116E+04  0.19967170049E+02  0.17121322032E+04  0.12499951431E+03 0.  0.
          2    1    1    2  501    0 -0.66117494677E+03  0.15564328018E+04 -0.22159414411E+04  0.27874776855E+04  0.00000000000E+00 0. -1.
          1    1    1    2  502    0 -0.37840712344E+02  0.13702098210E+01  0.55570559435E+02  0.67244955659E+02  0.00000000000E+00 0. -1.
         22    1    3    3    0    0  0.34230603978E+03 -0.89648281111E+03 -0.18050125832E+02  0.95978157022E+03  0.00000000000E+00 0. -1.
         22    1    3    3    0    0  0.35670961934E+03 -0.66132020049E+03  0.38017295881E+02  0.75235063294E+03  0.00000000000E+00 0. -1.
</event>
<event>
 7    1  0.5213103E-005  0.2411735E+03  0.7818608E-02  0.1177343E+00
          2   -1    0    0  502    0  0.00000000000E+00  0.00000000000E+00  0.10353561939E+03  0.10353561939E+03  0.00000000000E+00 0. -1.
          1   -1    0    0  501    0 -0.00000000000E+00 -0.00000000000E+00 -0.12725179092E+04  0.12725179092E+04  0.00000000000E+00 0. -1.
         25    2    1    2    0    0  0.26532427425E+03  0.12849421030E+03 -0.79803054056E+03  0.85987493682E+03  0.12499772286E+03 0.  0.
          2    1    1    2  501    0 -0.19691593487E+03 -0.29275439123E+02 -0.33625262192E+03  0.39076689021E+03  0.00000000000E+00 0. -1.
          1    1    1    2  502    0 -0.68408339379E+02 -0.99218771180E+02 -0.34699127342E+02  0.12541170156E+03  0.00000000000E+00 0. -1.
         22    1    3    3    0    0  0.16082917059E+03  0.18972659579E+02 -0.32325782480E+03  0.36155442912E+03  0.00000000000E+00 0. -1.
         22    1    3    3    0    0  0.10449510366E+03  0.10952155073E+03 -0.47477271576E+03  0.49832050770E+03  0.00000000000E+00 0. -1.
</event>
<event>
 7    1  0.1071843E-004  0.1931940E+03  0.7818608E-02  0.1175470E+00
          2   -1    0    0  502    0  0.00000000000E+00  0.00000000000E+00  0.26923814511E+04  0.26923814511E+04  0.00000000000E+00 0. -1.
          1   -1    0    0  501    0 -0.00000000000E+00 -0.00000000000E+00 -0.24417707727E+04  0.24417707727E+04  0.00000000000E+00 0. -1.
         25    2    1    2    0    0  0.12845480134E+03  0.29480993148E+03 -0.87270682514E+03  0.93843272520E+03  0.12500098158E+03 0.  0.
          2    1    1    2  501    0 -0.98348759753E+02 -0.14412121598E+03 -0.15290156214E+04  0.15389386518E+04  0.00000000000E+00 0. -1.
          1    1    1    2  502    0 -0.30106041585E+02 -0.15068871550E+03  0.26523331249E+04  0.26567808468E+04  0.00000000000E+00 0. -1.
         22    1    3    3    0    0  0.11320367200E+03  0.11506687462E+03 -0.34878310468E+03  0.38432422653E+03  0.00000000000E+00 0. -1.
         22    1    3    3    0    0  0.15251129336E+02  0.17974305686E+03 -0.52392372046E+03  0.55410849867E+03  0.00000000000E+00 0. -1.
</event>
<event>
 7    1  0.5213103E-005  0.7265092E+03  0.7818608E-02  0.1225771E+00
          2   -1    0    0  502    0  0.00000000000E+00  0.00000000000E+00  0.47744243424E+03  0.47744243424E+03  0.00000000000E+00 0. -1.
          1   -1    0    0  501    0 -0.00000000000E+00 -0.00000000000E+00 -0.14005281033E+04  0.14005281033E+04  0.00000000000E+00 0. -1.
         25    2    1    2    0    0  0.69263243463E+03 -0.23920871523E+03 -0.11752545082E+03  0.75259469465E+03  0.12500417543E+03 0.  0.
          2    1    1    2  501    0 -0.21977032004E+02 -0.87971697018E+01 -0.16090517756E+03  0.16263719223E+03  0.00000000000E+00 0. -1.
          1    1    1    2  502    0 -0.67065540263E+03  0.24800588493E+03 -0.64465504073E+03  0.96273865071E+03  0.00000000000E+00 0. -1.
         22    1    3    3    0    0  0.40090679843E+03 -0.13378001370E+03 -0.12991545027E+03  0.44215537689E+03  0.00000000000E+00 0.  1.
         22    1    3    3    0    0  0.29172563621E+03 -0.10542870153E+03  0.12389999452E+02  0.31043931776E+03  0.00000000000E+00 0.  1.
</event>
<event>
 7    1  0.5213103E-005  0.6919505E+03  0.7818608E-02  0.1120897E+00
          2   -1    0    0  502    0  0.00000000000E+00  0.00000000000E+00  0.43764789771E+03  0.43764789771E+03  0.00000000000E+00 0. -1.
          1   -1    0    0  501    0 -0.00000000000E+00 -0.00000000000E+00 -0.29412914476E+04  0.29412914476E+04  0.00000000000E+00 0. -1.
         25    2    1    2    0    0  0.70898270525E+03 -0.11957659248E+02 -0.72156732434E+03  0.10193546317E+04  0.12499999825E+03 0.  0.
          2    1    1    2  501    0 -0.68082372390E+03  0.89079917484E+02 -0.20064383555E+04  0.21206723106E+04  0.00000000000E+00 0. -1.
          1    1    1    2  502    0 -0.28158981348E+02 -0.77122258236E+02  0.22436212996E+03  0.23891240300E+03  0.00000000000E+00 0. -1.
         22    1    3    3    0    0  0.53635786843E+03 -0.15949942975E+02 -0.46470024511E+03  0.70984539268E+03  0.00000000000E+00 0. -1.
         22    1    3    3    0    0  0.17262483682E+03  0.39922837271E+01 -0.25686707924E+03  0.30950923898E+03  0.00000000000E+00 0. -1.
</event>
<event>
 7    1  0.5213103E-005  0.2107610E+03  0.7818608E-02  0.1280774E+00
          2   -1    0    0  502    0  0.00000000000E+00  0.00000000000E+00  0.12154387858E+04  0.12154387858E+04  0.00000000000E+00 0. -1.
          1   -1    0    0  501    0 -0.00000000000E+00 -0.00000000000E+00 -0.11502895860E+04  0.11502895860E+04  0.00000000000E+00 0. -1.
         25    2    1    2    0    0 -0.31453059234E+02  0.22133472280E+03  0.19789004846E+03  0.32367189879E+03  0.12499868934E+03 0.  0.
          2    1    1    2  501    0  0.45509216524E+02 -0.12640150501E+02 -0.10754168356E+04  0.10764535441E+04  0.00000000000E+00 0. -1.
          1    1    1    2  502    0 -0.14056157290E+02 -0.20869457230E+03  0.94267598696E+03  0.96560292898E+03  0.00000000000E+00 0. -1.
         22    1    3    3    0    0  0.45101912937E+02  0.10959327468E+03  0.11342948782E+03  0.16404608229E+03  0.00000000000E+00 0. -1.
         22    1    3    3    0    0 -0.76554972171E+02  0.11174144812E+03  0.84460560641E+02  0.15962581651E+03  0.00000000000E+00 0. -1.
</event>
<event>
 7    1  0.5213103E-005  0.2414214E+03  0.7818608E-02  0.1180524E+00
          2   -1    0    0  502    0  0.00000000000E+00  0.00000000000E+00  0.34098376939E+04  0.34098376939E+04  0.00000000000E+00 0. -1.
          1   -1    0    0  501    0 -0.00000000000E+00 -0.00000000000E+00 -0.27101518027E+03  0.27101518027E+03  0.00000000000E+00 0. -1.
         25    2    1    2    0    0 -0.95284930252E+02  0.23453474133E+03  0.12892156935E+03  0.31037354069E+03  0.12500080358E+03 0.  0.
          2    1    1    2  501    0 -0.87806726581E+02 -0.76040798977E+02 -0.15646425110E+03  0.19486735544E+03  0.00000000000E+00 0. -1.
          1    1    1    2  502    0  0.18309165683E+03 -0.15849394235E+03  0.31663651954E+04  0.31756119781E+04  0.00000000000E+00 0. -1.
         22    1    3    3    0    0 -0.48427887329E+02  0.20813686015E+03  0.13998735284E+03  0.25546559804E+03  0.00000000000E+00 0.  1.
         22    1    3    3    0    0 -0.46857042923E+02  0.26397881174E+02 -0.11065783495E+02  0.54907942652E+02  0.00000000000E+00 0.  1.
</event>
<event>
 7    1  0.5213103E-005  0.4512055E+03  0.7818608E-02  0.1162620E+00
          2   -1    0    0  502    0  0.00000000000E+00  0.00000000000E+00  0.30600808694E+04  0.30600808694E+04  0.00000000000E+00 0. -1.
          1   -1    0    0  501    0 -0.00000000000E+00 -0.00000000000E+00 -0.10505223037E+04  0.10505223037E+04  0.00000000000E+00 0. -1.
         25    2    1    2    0    0 -0.12512496336E+03 -0.47553774774E+03  0.13468080576E+04  0.14392043556E+04  0.12499930826E+03 0.  0.
          2    1    1    2  501    0  0.54166411243E+02  0.53639384675E+02 -0.97536414023E+03  0.97833858645E+03  0.00000000000E+00 0. -1.
          1    1    1    2  502    0  0.70958552112E+02  0.42189836307E+03  0.16381146484E+04  0.16930602311E+04  0.00000000000E+00 0. -1.
         22    1    3    3    0    0 -0.46751390991E+02 -0.64632374414E+02  0.33433747653E+03  0.34372166733E+03  0.00000000000E+00 0.  1.
         22    1    3    3    0    0 -0.78373572364E+02 -0.41090537333E+03  0.10124705811E+04  0.10954826883E+04  0.00000000000E+00 0.  1.
</event>
<event>
 7    1  0.5213103E-005  0.5737457E+03  0.7818608E-02  0.1110982E+00
          2   -1    0    0  502    0  0.00000000000E+00  0.00000000000E+00  0.80503755328E+03  0.80503755328E+03  0.00000000000E+00 0. -1.
          1   -1    0    0  501    0 -0.00000000000E+00 -0.00000000000E+00 -0.91378000783E+03  0.91378000783E+03  0.00000000000E+00 0. -1.
         25    2    1    2    0    0 -0.14403608369E+03  0.58175188206E+03  0.55924937305E+02  0.61476367829E+03  0.12500054342E+03 0.  0.
          2    1    1    2  501    0  0.11021989394E+03 -0.20941031138E+02 -0.45710542812E+03  0.47067220464E+03  0.00000000000E+00 0. -1.
          1    1    1    2  502    0  0.33816189741E+02 -0.56081085092E+03  0.29243803626E+03  0.63338167818E+03  0.00000000000E+00 0. -1.
         22    1    3    3    0    0 -0.61260943443E+02  0.35801357425E+03  0.88894272694E+02  0.37393691213E+03  0.00000000000E+00 0.  1.
         22    1    3    3    0    0 -0.82775140242E+02  0.22373830781E+03 -0.32969335389E+02  0.24082676616E+03  0.00000000000E+00 0.  1.
</event>
<event>
 7    1  0.5213103E-005  0.1463753E+04  0.7818608E-02  0.1157619E+00
          2   -1    0    0  502    0  0.00000000000E+00  0.00000000000E+00  0.37143151824E+04  0.37143151824E+04  0.00000000000E+00 0. -1.
          1   -1    0    0  501    0 -0.00000000000E+00 -0.00000000000E+00 -0.11157442452E+04  0.11157442452E+04  0.00000000000E+00 0. -1.
         25    2    1    2    0    0 -0.23208121971E+02  0.14687456011E+04 -0.15201469706E+03  0.14820548320E+04  0.12500319731E+03 0.  0.
          2    1    1    2  501    0  0.66948049403E+01 -0.14501006067E+04  0.14620547809E+04  0.20592330544E+04  0.00000000000E+00 0. -1.
          1    1    1    2  502    0  0.16513317030E+02 -0.18644994386E+02  0.12885308534E+04  0.12887715413E+04  0.00000000000E+00 0. -1.
         22    1    3    3    0    0 -0.32602351479E+02  0.19258643603E+03  0.10201844342E+02  0.19559275623E+03  0.00000000000E+00 0. -1.
         22    1    3    3    0    0  0.93942295087E+01  0.12761591650E+04 -0.16221654140E+03  0.12864620758E+04  0.00000000000E+00 0. -1.
</event>
<event>
 7    1  0.5213103E-005  0.7144937E+03  0.7818608E-02  0.1120721E+00
          2   -1    0    0  502    0  0.00000000000E+00  0.00000000000E+00  0.65588207996E+03  0.65588207996E+03  0.00000000000E+00 0. -1.
          1   -1    0    0  501    0 -0.00000000000E+00 -0.00000000000E+00 -0.12953191331E+04  0.12953191331E+04  0.00000000000E+00 0. -1.
         25    2    1    2    0    0 -0.41484277247E+03  0.62904391550E+03 -0.51618160178E+03  0.92187810036E+03  0.12500004963E+03 0.  0.
          2    1    1    2  501    0  0.38682710030E+03 -0.55444414211E+03 -0.36954783469E+03  0.77046032628E+03  0.00000000000E+00 0. -1.
          1    1    1    2  502    0  0.28015672176E+02 -0.74599773390E+02  0.24629238336E+03  0.25886278639E+03  0.00000000000E+00 0. -1.
         22    1    3    3    0    0 -0.75779197065E+00 -0.31551803820E+01 -0.14314428130E+02  0.14677610997E+02  0.00000000000E+00 0. -1.
         22    1    3    3    0    0 -0.41408498050E+03  0.63219909588E+03 -0.50186717365E+03  0.90720048937E+03  0.00000000000E+00 0. -1.
</event>
<event>
 7    1  0.5213103E-005  0.3200766E+03  0.7818608E-02  0.1151997E+00
          2   -1    0    0  502    0  0.00000000000E+00  0.00000000000E+00  0.24819856757E+04  0.24819856757E+04  0.00000000000E+00 0. -1.
          1   -1    0    0  501    0 -0.00000000000E+00 -0.00000000000E+00 -0.32941742016E+03  0.32941742016E+03  0.00000000000E+00 0. -1.
         25    2    1    2    0    0  0.15013232888E+03  0.35057785755E+03 -0.28854056292E+02  0.40235955631E+03  0.12496441736E+03 0.  0.
          2    1    1    2  501    0 -0.69278316911E+02 -0.25965063350E+03  0.49014720737E+02  0.27316731049E+03  0.00000000000E+00 0. -1.
          1    1    1    2  502    0 -0.80854011973E+02 -0.90927224052E+02  0.21324075911E+04  0.21358762290E+04  0.00000000000E+00 0. -1.
         22    1    3    3    0    0  0.15547678114E+03  0.28316873472E+03 -0.58890324513E+02  0.32836813505E+03  0.00000000000E+00 0.  1.
         22    1    3    3    0    0 -0.53444522559E+01  0.67409122835E+02  0.30036268222E+02  0.73991421260E+02  0.00000000000E+00 0.  1.
</event>
<event>
 7    1  0.5213103E-005  0.1762137E+04  0.7818608E-02  0.9581055E-01
          2   -1    0    0  502    0  0.00000000000E+00  0.00000000000E+00  0.37557181704E+04  0.37557181704E+04  0.00000000000E+00 0. -1.
          1   -1    0    0  501    0 -0.00000000000E+00 -0.00000000000E+00 -0.18839925660E+04  0.18839925660E+04  0.00000000000E+00 0. -1.
         25    2    1    2    0    0 -0.50666063062E+03 -0.19155158680E+04  0.62890892504E+03  0.20825605671E+04  0.12500417790E+03 0.  0.
          2    1    1    2  501    0  0.55895798663E+03  0.15691785920E+04 -0.53157226341E+03  0.17485206764E+04  0.00000000000E+00 0. -1.
          1    1    1    2  502    0 -0.52297356002E+02  0.34633727591E+03  0.17743889428E+04  0.18086294929E+04  0.00000000000E+00 0. -1.
         22    1    3    3    0    0 -0.37264913229E+03 -0.15063427627E+04  0.44441282703E+03  0.16141371241E+04  0.00000000000E+00 0. -1.
         22    1    3    3    0    0 -0.13401149833E+03 -0.40917310526E+03  0.18449609801E+03  0.46842344298E+03  0.00000000000E+00 0. -1.
</event>
<event>
 7    1  0.5213103E-005  0.7502574E+03  0.7818608E-02  0.1204610E+00
          2   -1    0    0  502    0  0.00000000000E+00  0.00000000000E+00  0.81060747708E+03  0.81060747708E+03  0.00000000000E+00 0. -1.
          1   -1    0    0  501    0 -0.00000000000E+00 -0.00000000000E+00 -0.18319081843E+04  0.18319081843E+04  0.00000000000E+00 0. -1.
         25    2    1    2    0    0  0.51902373795E+03 -0.52645208721E+03 -0.27151878683E+03  0.79742380535E+03  0.12499933221E+03 0.  0.
          2    1    1    2  501    0  0.28198507723E+02  0.52212865716E+01 -0.10364262274E+04  0.10368229079E+04  0.00000000000E+00 0. -1.
          1    1    1    2  502    0 -0.54722224567E+03  0.52123080064E+03  0.28664430700E+03  0.80826894807E+03  0.00000000000E+00 0. -1.
         22    1    3    3    0    0  0.84083759632E+02 -0.58582492890E+02 -0.81553590164E+02  0.13096936732E+03  0.00000000000E+00 0.  1.
         22    1    3    3    0    0  0.43493997831E+03 -0.46786959432E+03 -0.18996519667E+03  0.66645443803E+03  0.00000000000E+00 0.  1.
</event>
<event>
 7    1  0.5213103E-005  0.3865395E+03  0.7818608E-02  0.1156220E+00
          2   -1    0    0  502    0  0.00000000000E+00  0.00000000000E+00  0.58769897967E+03  0.58769897967E+03  0.00000000000E+00 0. -1.
          1   -1    0    0  501    0 -0.00000000000E+00 -0.00000000000E+00 -0.57759851967E+03  0.57759851967E+03  0.00000000000E+00 0. -1.
         25    2    1    2    0    0 -0.38666491931E+03 -0.97058068075E+02 -0.11358632659E+03  0.43296225257E+03  0.12499772063E+03 0.  0.
          2    1    1    2  501    0  0.38220119258E+03  0.12885414854E+01 -0.17373920886E+03  0.41983892703E+03  0.00000000000E+00 0. -1.
          1    1    1    2  502    0  0.44637267271E+01  0.95769526589E+02  0.29742599546E+03  0.31249631974E+03  0.00000000000E+00 0. -1.
         22    1    3    3    0    0 -0.23721365363E+03 -0.28590778532E+02 -0.10985071557E+02  0.23918282104E+03  0.00000000000E+00 0.  1.
         22    1    3    3    0    0 -0.14945126568E+03 -0.68467289542E+02 -0.10260125503E+03  0.19377943153E+03  0.00000000000E+00 0.  1.
</event>
<event>
 7    1  0.5213103E-005  0.3633863E+03  0.7818608E-02  0.1141630E+00
          2   -1    0    0  502    0  0.00000000000E+00  0.00000000000E+00  0.21528454023E+04  0.21528454023E+04  0.00000000000E+00 0. -1.
          1   -1    0    0  501    0 -0.00000000000E+00 -0.00000000000E+00 -0.15777896944E+04  0.15777896944E+04  0.00000000000E+00 0. -1.
         25    2    1    2    0    0  0.41907316412E+03 -0.17779751108E+03  0.63699024435E+03  0.79285278514E+03  0.12499878269E+03 0.  0.
          2    1    1    2  501    0 -0.94683412767E+02  0.75765297541E+02 -0.14772338934E+04  0.14822028555E+04  0.00000000000E+00 0. -1.
          1    1    1    2  502    0 -0.32438975135E+03  0.10203221354E+03  0.14152993569E+04  0.14555794561E+04  0.00000000000E+00 0. -1.
         22    1    3    3    0    0  0.17327849956E+03 -0.65749923979E+02  0.16074258791E+03  0.24532971789E+03  0.00000000000E+00 0.  1.
         22    1    3    3    0    0  0.24579466456E+03 -0.11204758710E+03  0.47624765644E+03  0.54752306725E+03  0.00000000000E+00 0.  1.
</event>
<event>
 7    1  0.5213103E-005  0.1830418E+03  0.7818608E-02  0.1287884E+00
          2   -1    0    0  502    0  0.00000000000E+00  0.00000000000E+00  0.81531450310E+03  0.81531450310E+03  0.00000000000E+00 0. -1.
          1   -1    0    0  501    0 -0.00000000000E+00 -0.00000000000E+00 -0.18045616107E+04  0.18045616107E+04  0.00000000000E+00 0. -1.
         25    2    1    2    0    0 -0.11154055447E+03 -0.18461406057E+03  0.17539911732E+02  0.24991259351E+03  0.12500003696E+03 0.  0.
          2    1    1    2  501    0 -0.82092806084E+01  0.50183755374E+02 -0.16760947039E+04  0.16768659034E+04  0.00000000000E+00 0. -1.
          1    1    1    2  502    0  0.11974983508E+03  0.13443030520E+03  0.66930768454E+03  0.69309761689E+03  0.00000000000E+00 0. -1.
         22    1    3    3    0    0 -0.73122733250E+02 -0.18313204791E+02  0.24000618202E+02  0.79109653404E+02  0.00000000000E+00 0. -1.
         22    1    3    3    0    0 -0.38417821220E+02 -0.16630085578E+03 -0.64607064703E+01  0.17080294011E+03  0.00000000000E+00 0. -1.
</event>
<event>
 7    1  0.5213103E-005  0.1599383E+03  0.7818608E-02  0.1279542E+00
          2   -1    0    0  502    0  0.00000000000E+00  0.00000000000E+00  0.30697240836E+03  0.30697240836E+03  0.00000000000E+00 0. -1.
          1   -1    0    0  501    0 -0.00000000000E+00 -0.00000000000E+00 -0.37523832734E+03  0.37523832734E+03  0.00000000000E+00 0. -1.
         25    2    1    2    0    0  0.83143810606E+02 -0.11521615428E+03 -0.22637671955E+03  0.29505733838E+03  0.12499903331E+03 0.  0.
          2    1    1    2  501    0 -0.45905193546E+02 -0.43110260588E+02 -0.78121982143E+02  0.10034353719E+03  0.00000000000E+00 0. -1.
          1    1    1    2  502    0 -0.37238617060E+02  0.15832641487E+03  0.23623278270E+03  0.28680986013E+03  0.00000000000E+00 0. -1.
         22    1    3    3    0    0  0.82973612239E+02 -0.11259242589E+02 -0.11993071036E+03  0.14626949839E+03  0.00000000000E+00 0. -1.
         22    1    3    3    0    0  0.17019836742E+00 -0.10395691169E+03 -0.10644600918E+03  0.14878783998E+03  0.00000000000E+00 0. -1.
</event>
<event>
 7    1  0.5213103E-005  0.1337831E+03  0.7818608E-02  0.1316043E+00
          2   -1    0    0  502    0  0.00000000000E+00  0.00000000000E+00  0.28168198650E+04  0.28168198650E+04  0.00000000000E+00 0. -1.
          1   -1    0    0  501    0 -0.00000000000E+00 -0.00000000000E+00 -0.16223210385E+03  0.16223210385E+03  0.00000000000E+00 0. -1.
         25    2    1    2    0    0 -0.15381273277E+03 -0.96665224581E+02  0.19846457545E+04  0.19968591191E+04  0.12500019370E+03 0.  0.
          2    1    1    2  501    0  0.10104005482E+03  0.86677760444E+02 -0.12667780245E+03  0.18376450274E+03  0.00000000000E+00 0. -1.
          1    1    1    2  502    0  0.52772677949E+02  0.99874641376E+01  0.79661980916E+03  0.79842834702E+03  0.00000000000E+00 0. -1.
         22    1    3    3    0    0 -0.13047341364E+03 -0.28240364985E+02  0.15939757453E+04  0.15995560342E+04  0.00000000000E+00 0. -1.
         22    1    3    3    0    0 -0.23339319133E+02 -0.68424859596E+02  0.39067000921E+03  0.39730308497E+03  0.00000000000E+00 0. -1.
</event>
<event>
 7    1  0.5213103E-005  0.3277159E+03  0.7818608E-02  0.1221391E+00
          2   -1    0    0  502    0  0.00000000000E+00  0.00000000000E+00  0.18864519877E+04  0.18864519877E+04  0.00000000000E+00 0. -1.
          1   -1    0    0  501    0 -0.00000000000E+00 -0.00000000000E+00 -0.49475143081E+03  0.49475143081E+03  0.00000000000E+00 0. -1.
         25    2    1    2    0    0 -0.23736363650E+02  0.32381309617E+03 -0.39594638398E+03  0.52708300825E+03  0.12499848954E+03 0.  0.
          2    1    1    2  501    0  0.30797228639E+02 -0.37829107521E+03  0.10876280861E+04  0.11519494175E+04  0.00000000000E+00 0. -1.
          1    1    1    2  502    0 -0.70608649890E+01  0.54477979039E+02  0.70001885474E+03  0.70217099271E+03  0.00000000000E+00 0. -1.
         22    1    3    3    0    0  0.46132706521E+02  0.18753517922E+03 -0.19521664009E+03  0.27460372653E+03  0.00000000000E+00 0. -1.
         22    1    3    3    0    0 -0.69869070171E+02  0.13627791695E+03 -0.20072974389E+03  0.25247928171E+03  0.00000000000E+00 0. -1.
</event>
<event>
 7    1  0.5213103E-005  0.6330529E+03  0.7818608E-02  0.1082083E+00
          2   -1    0    0  502    0  0.00000000000E+00  0.00000000000E+00  0.66269563934E+03  0.66269563934E+03  0.00000000000E+00 0. -1.
          1   -1    0    0  501    0 -0.00000000000E+00 -0.00000000000E+00 -0.17168861135E+04  0.17168861135E+04  0.00000000000E+00 0. -1.
         25    2    1    2    0    0 -0.60438032773E+02  0.72194980856E+03 -0.30332353759E+03  0.79529528199E+03  0.12500054083E+03 0.  0.
          2    1    1    2  501    0 -0.59376356208E+02 -0.13589627333E+03 -0.94409807126E+03  0.95567490128E+03  0.00000000000E+00 0. -1.
          1    1    1    2  502    0  0.11981438898E+03 -0.58605353523E+03  0.19323113471E+03  0.62861156956E+03  0.00000000000E+00 0. -1.
         22    1    3    3    0    0 -0.99491588729E+02  0.53947294882E+03 -0.22612075797E+03  0.59334664060E+03  0.00000000000E+00 0. -1.
         22    1    3    3    0    0  0.39053555957E+02  0.18247685975E+03 -0.77202779617E+02  0.20194864138E+03  0.00000000000E+00 0. -1.
</event>
<event>
 7    1  0.5213103E-005  0.7846630E+03  0.7818608E-02  0.1206705E+00
          2   -1    0    0  502    0  0.00000000000E+00  0.00000000000E+00  0.56460500100E+03  0.56460500100E+03  0.00000000000E+00 0. -1.
          1   -1    0    0  501    0 -0.00000000000E+00 -0.00000000000E+00 -0.16625463246E+04  0.16625463246E+04  0.00000000000E+00 0. -1.
         25    2    1    2    0    0 -0.71652944841E+03  0.27433885087E+03 -0.59304730802E+03  0.97775635616E+03  0.12500450759E+03 0.  0.
          2    1    1    2  501    0 -0.24927343504E+02  0.98677314555E+01 -0.45283736705E+03  0.45363027410E+03  0.00000000000E+00 0. -1.
          1    1    1    2  502    0  0.74145679192E+03 -0.28420658232E+03 -0.52056648546E+02  0.79576469535E+03  0.00000000000E+00 0. -1.
         22    1    3    3    0    0 -0.38898506150E+03  0.83401125900E+02 -0.28778903832E+03  0.49100677841E+03  0.00000000000E+00 0.  1.
         22    1    3    3    0    0 -0.32754438692E+03  0.19093772497E+03 -0.30525826970E+03  0.48674957775E+03  0.00000000000E+00 0.  1.
</event>
<event>
 7    1  0.5213103E-005  0.6654277E+03  0.7818608E-02  0.1179754E+00
          2   -1    0    0  502    0  0.00000000000E+00  0.00000000000E+00  0.25141258240E+04  0.25141258240E+04  0.00000000000E+00 0. -1.
          1   -1    0    0  501    0 -0.00000000000E+00 -0.00000000000E+00 -0.30150376444E+03  0.30150376444E+03  0.00000000000E+00 0. -1.
         25    2    1    2    0    0  0.50834359241E+03 -0.45312502581E+03  0.77489111664E+03  0.10391428461E+04  0.12500445990E+03 0.  0.
          2    1    1    2  501    0 -0.46635834907E+03  0.45977408945E+03  0.46585361832E+03  0.80368023292E+03  0.00000000000E+00 0. -1.
          1    1    1    2  502    0 -0.41985243345E+02 -0.66490636367E+01  0.97187732455E+03  0.97280650938E+03  0.00000000000E+00 0. -1.
         22    1    3    3    0    0  0.30871850246E+03 -0.23404831672E+03  0.35699017007E+03  0.52680898801E+03  0.00000000000E+00 0.  1.
         22    1    3    3    0    0  0.19962508995E+03 -0.21907670909E+03  0.41790094657E+03  0.51233385809E+03  0.00000000000E+00 0.  1.
</event>
<event>
 7    1  0.5213103E-005  0.4198225E+03  0.7818608E-02  0.1105818E+00
          2   -1    0    0  502    0  0.00000000000E+00  0.00000000000E+00  0.20122388565E+04  0.20122388565E+04  0.00000000000E+00 0. -1.
          1   -1    0    0  501    0 -0.00000000000E+00 -0.00000000000E+00 -0.25730012357E+03  0.25730012357E+03  0.00000000000E+00 0. -1.
         25    2    1    2    0    0 -0.46994476420E+03 -0.23937536917E+02  0.40770800923E+03  0.63503653571E+03  0.12499797525E+03 0.  0.
          2    1    1    2  501    0  0.38384684822E+03 -0.11538568992E+03  0.15288987785E+03  0.42898435294E+03  0.00000000000E+00 0. -1.
          1    1    1    2  502    0  0.86097915989E+02  0.13932322683E+03  0.11943408458E+04  0.12055180914E+04  0.00000000000E+00 0. -1.
         22    1    3    3    0    0 -0.33444218184E+03 -0.25376328734E+02  0.35832692131E+03  0.49080924359E+03  0.00000000000E+00 0. -1.
         22    1    3    3    0    0 -0.13550258236E+03  0.14387918177E+01  0.49381087920E+02  0.14422729212E+03  0.00000000000E+00 0. -1.
</event>
<event>
 7    1  0.5213103E-005  0.1254766E+04  0.7818608E-02  0.1043223E+00
          2   -1    0    0  502    0  0.00000000000E+00  0.00000000000E+00  0.11702816851E+04  0.11702816851E+04  0.00000000000E+00 0. -1.
          1   -1    0    0  501    0 -0.00000000000E+00 -0.00000000000E+00 -0.29598526547E+04  0.29598526547E+04  0.00000000000E+00 0. -1.
         25    2    1    2    0    0 -0.20219843832E+03 -0.11761190769E+04 -0.20562854039E+03  0.12173928136E+04  0.12498749718E+03 0.  0.
          2    1    1    2  501    0 -0.72607387312E+02 -0.10607313994E+03 -0.15962062668E+04  0.16013737196E+04  0.00000000000E+00 0. -1.
          1    1    1    2  502    0  0.27480582563E+03  0.12821922168E+04  0.12263837538E+02  0.13113678067E+04  0.00000000000E+00 0. -1.
         22    1    3    3    0    0 -0.13586288196E+03 -0.66416486620E+03 -0.17556935587E+03  0.70028443572E+03  0.00000000000E+00 0. -1.
         22    1    3    3    0    0 -0.66335556355E+02 -0.51195421066E+03 -0.30059184515E+02  0.51710837783E+03  0.00000000000E+00 0. -1.
</event>
<event>
 7    1  0.5213103E-005  0.4079562E+03  0.7818608E-02  0.1081943E+00
          2   -1    0    0  502    0  0.00000000000E+00  0.00000000000E+00  0.36892659672E+04  0.36892659672E+04  0.00000000000E+00 0. -1.
          1   -1    0    0  501    0 -0.00000000000E+00 -0.00000000000E+00 -0.10330888324E+04  0.10330888324E+04  0.00000000000E+00 0. -1.
         25    2    1    2    0    0  0.56070059437E+03  0.25612390086E+03  0.12304561910E+04  0.13818942482E+04  0.12499866433E+03 0.  0.
          2    1    1    2  501    0 -0.38789819669E+03 -0.10348880345E+03 -0.90935330335E+03  0.99403137463E+03  0.00000000000E+00 0. -1.
          1    1    1    2  502    0 -0.17280239768E+03 -0.15263509741E+03  0.23350742472E+04  0.23464291768E+04  0.00000000000E+00 0. -1.
         22    1    3    3    0    0  0.89462168706E+02 -0.61346330334E+01  0.17424832969E+03  0.19596834885E+03  0.00000000000E+00 0. -1.
         22    1    3    3    0    0  0.47123842566E+03  0.26225853389E+03  0.10562078613E+04  0.11859258993E+04  0.00000000000E+00 0. -1.
</event>
<event>
 7    1  0.5213103E-005  0.1874258E+03  0.7818608E-02  0.1164705E+00
          2   -1    0    0  502    0  0.00000000000E+00  0.00000000000E+00  0.18888808781E+04  0.18888808781E+04  0.00000000000E+00 0. -1.
          1   -1    0    0  501    0 -0.00000000000E+00 -0.00000000000E+00 -0.58414225826E+03  0.58414225826E+03  0.00000000000E+00 0. -1.
         25    2    1    2    0    0  0.33029628749E+03  0.73712434971E+02  0.35789862871E+03  0.50817564413E+03  0.12498758440E+03 0.  0.
          2    1    1    2  501    0 -0.18071884085E+03  0.24874141382E+02 -0.48690379399E+03  0.51995512013E+03  0.00000000000E+00 0. -1.
          1    1    1    2  502    0 -0.14957744664E+03 -0.98586576354E+02  0.14337437851E+04  0.14448923721E+04  0.00000000000E+00 0. -1.
         22    1    3    3    0    0  0.26627708226E+03  0.10878750407E+03  0.29073579859E+03  0.40898106333E+03  0.00000000000E+00 0.  1.
         22    1    3    3    0    0  0.64019205232E+02 -0.35075069098E+02  0.67162830112E+02  0.99194580797E+02  0.00000000000E+00 0.  1.
</event>
<event>
 7    1  0.5213103E-005  0.3571870E+03  0.7818608E-02  0.1170322E+00
          2   -1    0    0  502    0  0.00000000000E+00  0.00000000000E+00  0.72595970497E+03  0.72595970497E+03  0.00000000000E+00 0. -1.
          1   -1    0    0  501    0 -0.00000000000E+00 -0.00000000000E+00 -0.79058633603E+03  0.79058633603E+03  0.00000000000E+00 0. -1.
         25    2    1    2    0    0  0.35452624553E+03  0.13502925585E+02  0.94892971813E+02  0.38794503998E+03  0.12500196068E+03 0.  0.
          2    1    1    2  501    0 -0.59240170099E+00 -0.88126485494E+02 -0.57271086935E+03  0.57945178251E+03  0.00000000000E+00 0. -1.
          1    1    1    2  502    0 -0.35393384383E+03  0.74623559910E+02  0.41319126648E+03  0.54914921852E+03  0.00000000000E+00 0. -1.
         22    1    3    3    0    0  0.57607423038E+02  0.18854613131E+01 -0.30749854459E+02  0.65327817220E+02  0.00000000000E+00 0.  1.
         22    1    3    3    0    0  0.29691882249E+03  0.11617464272E+02  0.12564282627E+03  0.32261722276E+03  0.00000000000E+00 0.  1.
</event>
<event>
 7    1  0.5213103E-005  0.6561344E+03  0.7818608E-02  0.1243180E+00
          2   -1    0    0  502    0  0.00000000000E+00  0.00000000000E+00  0.28170311637E+04  0.28170311637E+04  0.00000000000E+00 0. -1.
          1   -1    0    0  501    0 -0.00000000000E+00 -0.00000000000E+00 -0.18138241865E+04  0.18138241865E+04  0.00000000000E+00 0. -1.
         25    2    1    2    0    0  0.58636145713E+03 -0.33919276848E+03 -0.12801221852E+04  0.14536879236E+04  0.12499711028E+03 0.  0.
          2    1    1    2  501    0 -0.18210344564E+02  0.12216183870E+02 -0.40727283233E+03  0.40786273641E+03  0.00000000000E+00 0. -1.
          1    1    1    2  502    0 -0.56815111256E+03  0.32697658461E+03  0.26906019947E+04  0.27693046903E+04  0.00000000000E+00 0. -1.
         22    1    3    3    0    0  0.25404521476E+03 -0.18790939460E+03 -0.70312406903E+03  0.77086468862E+03  0.00000000000E+00 0.  1.
         22    1    3    3    0    0  0.33231624236E+03 -0.15128337389E+03 -0.57699811615E+03  0.68282323496E+03  0.00000000000E+00 0.  1.
</event>
<event>
 7    1  0.5213103E-005  0.6210062E+03  0.7818608E-02  0.1184474E+00
          2   -1    0    0  502    0  0.00000000000E+00  0.00000000000E+00  0.15225727272E+04  0.15225727272E+04  0.00000000000E+00 0. -1.
          1   -1    0    0  501    0 -0.00000000000E+00 -0.00000000000E+00 -0.64004300194E+03  0.64004300194E+03  0.00000000000E+00 0. -1.
         25    2    1    2    0    0 -0.62899389891E+03  0.21861381708E+02 -0.33532534459E+03  0.72400243165E+03  0.12500075769E+03 0.  0.
          2    1    1    2  501    0  0.58644156389E+03 -0.29335060120E+02  0.67751760334E+03  0.89655136855E+03  0.00000000000E+00 0. -1.
          1    1    1    2  502    0  0.42552335027E+02  0.74736784117E+01  0.54033746656E+03  0.54206192898E+03  0.00000000000E+00 0. -1.
         22    1    3    3    0    0 -0.42247237396E+03  0.52423222059E+02 -0.17287725069E+03  0.45947540172E+03  0.00000000000E+00 0.  1.
         22    1    3    3    0    0 -0.20652152495E+03 -0.30561840351E+02 -0.16244809390E+03  0.26452702993E+03  0.00000000000E+00 0.  1.
</event>
<event>
 7    1  0.5213103E-005  0.3130531E+03  0.7818608E-02  0.1211734E+00
          2   -1    0    0  502    0  0.00000000000E+00  0.00000000000E+00  0.14190872483E+04  0.14190872483E+04  0.00000000000E+00 0. -1.
          1   -1    0    0  501    0 -0.00000000000E+00 -0.00000000000E+00 -0.46721180638E+03  0.46721180638E+03  0.00000000000E+00 0. -1.
         25    2    1    2    0    0 -0.70132911174E+02 -0.34884834771E+03  0.42830855149E+03  0.57068892360E+03  0.12499534917E+03 0.  0.
          2    1    1    2  501    0  0.98750315425E+02  0.29196099141E+03 -0.33469593307E+03  0.45498814591E+03  0.00000000000E+00 0. -1.
          1    1    1    2  502    0 -0.28617404251E+02  0.56887356299E+02  0.85826282352E+03  0.86062198518E+03  0.00000000000E+00 0. -1.
         22    1    3    3    0    0 -0.73801015115E+02 -0.12897841380E+03  0.11495179602E+03  0.18787212797E+03  0.00000000000E+00 0. -1.
         22    1    3    3    0    0  0.36681039417E+01 -0.21986993391E+03  0.31335675547E+03  0.38281679564E+03  0.00000000000E+00 0. -1.
</event>
<event>
 7    1  0.5213103E-005  0.3235213E+03  0.7818608E-02  0.1148474E+00
          2   -1    0    0  502    0  0.00000000000E+00  0.00000000000E+00  0.19382120990E+04  0.19382120990E+04  0.00000000000E+00 0. -1.
          1   -1    0    0  501    0 -0.00000000000E+00 -0.00000000000E+00 -0.54056274743E+03  0.54056274743E+03  0.00000000000E+00 0. -1.
         25    2    1    2    0    0 -0.29895975675E+03  0.22529291798E+03  0.10642080077E+03  0.40876012663E+03  0.12500247694E+03 0.  0.
          2    1    1    2  501    0  0.17815505992E+03 -0.25933343447E+03 -0.32300103631E+03  0.45091321234E+03  0.00000000000E+00 0. -1.
          1    1    1    2  502    0  0.12080469683E+03  0.34040516493E+02  0.16142295871E+04  0.16191015074E+04  0.00000000000E+00 0. -1.
         22    1    3    3    0    0 -0.11324580736E+03  0.66921309980E+02  0.98898329729E+02  0.16457203358E+03  0.00000000000E+00 0. -1.
         22    1    3    3    0    0 -0.18571394939E+03  0.15837160800E+03  0.75224710402E+01  0.24418809305E+03  0.00000000000E+00 0. -1.
</event>
<event>
 7    1  0.5588150E-005  0.6534190E+03  0.7818608E-02  0.1159540E+00
          2   -1    0    0  502    0  0.00000000000E+00  0.00000000000E+00  0.29867270806E+04  0.29867270806E+04  0.00000000000E+00 0. -1.
          1   -1    0    0  501    0 -0.00000000000E+00 -0.00000000000E+00 -0.17892578683E+04  0.17892578683E+04  0.00000000000E+00 0. -1.
         25    2    1    2    0    0  0.31776573027E+03 -0.53183478265E+03 -0.34138753780E+03  0.71832714294E+03  0.12500055180E+03 0.  0.
          2    1    1    2  501    0 -0.17854793044E+02 -0.51553050678E+02 -0.12203401947E+04  0.12215591273E+04  0.00000000000E+00 0. -1.
          1    1    1    2  502    0 -0.29991093723E+03  0.58338783333E+03  0.27591969449E+04  0.28360986786E+04  0.00000000000E+00 0. -1.
         22    1    3    3    0    0  0.19045572944E+03 -0.23960198301E+03 -0.22129361352E+03  0.37769479546E+03  0.00000000000E+00 0. -1.
         22    1    3    3    0    0  0.12731000084E+03 -0.29223279965E+03 -0.12009392428E+03  0.34063234748E+03  0.00000000000E+00 0. -1.
</event>
<event>
 7    1  0.5213103E-005  0.1104825E+04  0.7818608E-02  0.1160655E+00
          2   -1    0    0  502    0  0.00000000000E+00  0.00000000000E+00  0.12850369034E+04  0.12850369034E+04  0.00000000000E+00 0. -1.
          1   -1    0    0  501    0 -0.00000000000E+00 -0.00000000000E+00 -0.15697321973E+04  0.15697321973E+04  0.00000000000E+00 0. -1.
         25    2    1    2    0    0 -0.59596088630E+03 -0.93532302238E+03  0.54189469807E+03  0.12406763769E+04  0.12501789579E+03 0.  0.
          2    1    1    2  501    0  0.61928335748E+03  0.91363185147E+03 -0.96864834482E+03  0.14685076278E+04  0.00000000000E+00 0. -1.
          1    1    1    2  502    0 -0.23322471183E+02  0.21691170908E+02  0.14205835287E+03  0.14558509600E+03  0.00000000000E+00 0. -1.
         22    1    3    3    0    0 -0.54302339823E+03 -0.88890912407E+03  0.47995603734E+03  0.11469052444E+04  0.00000000000E+00 0.  1.
         22    1    3    3    0    0 -0.52937488076E+02 -0.46413898310E+02  0.61938660731E+02  0.93771132515E+02  0.00000000000E+00 0.  1.
</event>
<event>
 7    1  0.5213103E-005  0.4156536E+02  0.7818608E-02  0.1522776E+00
          2   -1    0    0  502    0  0.00000000000E+00  0.00000000000E+00  0.34345307866E+03  0.34345307866E+03  0.00000000000E+00 0. -1.
          1   -1    0    0  501    0 -0.00000000000E+00 -0.00000000000E+00 -0.57743980917E+03  0.57743980917E+03  0.00000000000E+00 0. -1.
         25    2    1    2    0    0 -0.23270395281E+02  0.28825877123E+02  0.75773822565E+02  0.15079681013E+03  0.12500225307E+03 0.  0.
          2    1    1    2  501    0 -0.95909403550E+01 -0.40581288432E+02 -0.53779354566E+03  0.53940775380E+03  0.00000000000E+00 0. -1.
          1    1    1    2  502    0  0.32861335636E+02  0.11755411309E+02  0.22803299258E+03  0.23068832389E+03  0.00000000000E+00 0. -1.
         22    1    3    3    0    0  0.50261651960E+02  0.17246806199E+01  0.17922535410E+02  0.53389375877E+02  0.00000000000E+00 0.  1.
         22    1    3    3    0    0 -0.73532047241E+02  0.27101196503E+02  0.57851287155E+02  0.97407434258E+02  0.00000000000E+00 0.  1.
</event>
<event>
 7    1  0.5213103E-005  0.6999991E+03  0.7818608E-02  0.9848119E-01
          2   -1    0    0  502    0  0.00000000000E+00  0.00000000000E+00  0.32201902913E+04  0.32201902913E+04  0.00000000000E+00 0. -1.
          1   -1    0    0  501    0 -0.00000000000E+00 -0.00000000000E+00 -0.12844994394E+04  0.12844994394E+04  0.00000000000E+00 0. -1.
         25    2    1    2    0    0  0.30876708010E+03  0.75558078777E+03  0.83002420160E+03  0.11708133208E+04  0.12499688091E+03 0.  0.
          2    1    1    2  501    0  0.33811289944E+03 -0.45163597046E+03 -0.97909002314E+03  0.11300056000E+04  0.00000000000E+00 0. -1.
          1    1    1    2  502    0 -0.64687997954E+03 -0.30394481731E+03  0.20847566734E+04  0.22038708100E+04  0.00000000000E+00 0. -1.
         22    1    3    3    0    0  0.25969327517E+03  0.62524738056E+03  0.74921259995E+03  0.10097991899E+04  0.00000000000E+00 0. -1.
         22    1    3    3    0    0  0.49073804932E+02  0.13033340722E+03  0.80811601645E+02  0.16101413083E+03  0.00000000000E+00 0. -1.
</event>
<event>
 7    1  0.5213103E-005  0.3251030E+03  0.7818608E-02  0.1277318E+00
          2   -1    0    0  502    0  0.00000000000E+00  0.00000000000E+00  0.75850861055E+03  0.75850861055E+03  0.00000000000E+00 0. -1.
          1   -1    0    0  501    0 -0.00000000000E+00 -0.00000000000E+00 -0.16885989924E+04  0.16885989924E+04  0.00000000000E+00 0. -1.
         25    2    1    2    0    0 -0.17480546672E+03 -0.29108770326E+03  0.12919941411E+02  0.36205096244E+03  0.12499988936E+03 0.  0.
          2    1    1    2  501    0  0.31480809874E+02  0.32221347589E+01 -0.14685761503E+04  0.14689170612E+04  0.00000000000E+00 0. -1.
          1    1    1    2  502    0  0.14332465684E+03  0.28786556850E+03  0.52556582695E+03  0.61613957935E+03  0.00000000000E+00 0. -1.
         22    1    3    3    0    0  0.97820150443E+01 -0.23960223791E+02 -0.23954337925E+02  0.35264577807E+02  0.00000000000E+00 0.  1.
         22    1    3    3    0    0 -0.18458748176E+03 -0.26712747947E+03  0.36874279336E+02  0.32678638464E+03  0.00000000000E+00 0.  1.
</event>
<event>
 7    1  0.5213103E-005  0.3444834E+03  0.7818608E-02  0.1208502E+00
          2   -1    0    0  502    0  0.00000000000E+00  0.00000000000E+00  0.15793791054E+04  0.15793791054E+04  0.00000000000E+00 0. -1.
          1   -1    0    0  501    0 -0.00000000000E+00 -0.00000000000E+00 -0.16799319303E+03  0.16799319303E+03  0.00000000000E+00 0. -1.
         25    2    1    2    0    0 -0.21318321465E+02  0.35275083253E+03  0.44749842235E+03  0.58375302328E+03  0.12500053400E+03 0.  0.
          2    1    1    2  501    0  0.58584549145E+02 -0.12488916281E+02 -0.59545195349E+02  0.84461545791E+02  0.00000000000E+00 0. -1.
          1    1    1    2  502    0 -0.37266227680E+02 -0.34026191625E+03  0.10234326854E+04  0.10791577294E+04  0.00000000000E+00 0. -1.
         22    1    3    3    0    0  0.76008033785E+01  0.15699049564E+02  0.89585131276E+02  0.91267344187E+02  0.00000000000E+00 0. -1.
         22    1    3    3    0    0 -0.28919124843E+02  0.33705178297E+03  0.35791329108E+03  0.49248567909E+03  0.00000000000E+00 0. -1.
</event>
<event>
 7    1  0.5213103E-005  0.6564036E+03  0.7818608E-02  0.1126185E+00
          2   -1    0    0  502    0  0.00000000000E+00  0.00000000000E+00  0.23949051030E+04  0.23949051030E+04  0.00000000000E+00 0. -1.
          1   -1    0    0  501    0 -0.00000000000E+00 -0.00000000000E+00 -0.34786875545E+03  0.34786875545E+03  0.00000000000E+00 0. -1.
         25    2    1    2    0    0  0.68842180891E+02  0.69418393143E+03  0.12274519868E+04  0.14173544983E+04  0.12499926990E+03 0.  0.
          2    1    1    2  501    0 -0.19769312080E+02 -0.78597166808E+02 -0.15311878055E+03  0.17324462845E+03  0.00000000000E+00 0. -1.
          1    1    1    2  502    0 -0.49072868812E+02 -0.61558676462E+03  0.97270314137E+03  0.11521747317E+04  0.00000000000E+00 0. -1.
         22    1    3    3    0    0  0.10431339295E+03  0.45410720749E+03  0.81730694365E+03  0.94078971082E+03  0.00000000000E+00 0.  1.
         22    1    3    3    0    0 -0.35471212063E+02  0.24007672394E+03  0.41014504311E+03  0.47656478746E+03  0.00000000000E+00 0.  1.
</event>
<event>
 7    1  0.5213103E-005  0.5627549E+03  0.7818608E-02  0.1145767E+00
          2   -1    0    0  502    0  0.00000000000E+00  0.00000000000E+00  0.87030116228E+03  0.87030116228E+03  0.00000000000E+00 0. -1.
          1   -1    0    0  501    0 -0.00000000000E+00 -0.00000000000E+00 -0.11533376509E+04  0.11533376509E+04  0.00000000000E+00 0. -1.
         25    2    1    2    0    0  0.43208681823E+02 -0.57932460442E+03 -0.83706956138E+03  0.10265444492E+04  0.12499627272E+03 0.  0.
          2    1    1    2  501    0 -0.40559780685E+02  0.50485424261E+03  0.74648173995E+02  0.51195239229E+03  0.00000000000E+00 0. -1.
          1    1    1    2  502    0 -0.26489011380E+01  0.74470361809E+02  0.47938489878E+03  0.48514197164E+03  0.00000000000E+00 0. -1.
         22    1    3    3    0    0  0.32136782532E+02 -0.17913328629E+03 -0.17279925205E+03  0.25096033263E+03  0.00000000000E+00 0.  1.
         22    1    3    3    0    0  0.11071899291E+02 -0.40019131813E+03 -0.66427030933E+03  0.77558411660E+03  0.00000000000E+00 0.  1.
</event>
<event>
 7    1  0.5213103E-005  0.9304291E+03  0.7818608E-02  0.1113386E+00
          2   -1    0    0  502    0  0.00000000000E+00  0.00000000000E+00  0.23082595273E+04  0.23082595273E+04  0.00000000000E+00 0. -1.
          1   -1    0    0  501    0 -0.00000000000E+00 -0.00000000000E+00 -0.94351463585E+03  0.94351463585E+03  0.00000000000E+00 0. -1.
         25    2    1    2    0    0 -0.79724883101E+03 -0.42558775737E+03  0.79670543502E+03  0.12112357200E+04  0.12498712519E+03 0.  0.
          2    1    1    2  501    0 -0.64643681075E+02  0.18004735375E+02 -0.55974786290E+03  0.56375583901E+03  0.00000000000E+00 0. -1.
          1    1    1    2  502    0  0.86189251208E+03  0.40758302200E+03  0.11277873193E+04  0.14767826041E+04  0.00000000000E+00 0. -1.
         22    1    3    3    0    0 -0.32260172838E+03 -0.16960209807E+03  0.24137144401E+03  0.43714633798E+03  0.00000000000E+00 0. -1.
         22    1    3    3    0    0 -0.47464710262E+03 -0.25598565930E+03  0.55533399101E+03  0.77408938203E+03  0.00000000000E+00 0. -1.
</event>
<event>
 7    1  0.5213103E-005  0.2914083E+03  0.7818608E-02  0.1185280E+00
          2   -1    0    0  502    0  0.00000000000E+00  0.00000000000E+00  0.37026929243E+04  0.37026929243E+04  0.00000000000E+00 0. -1.
          1   -1    0    0  501    0 -0.00000000000E+00 -0.00000000000E+00 -0.20926647820E+04  0.20926647820E+04  0.00000000000E+00 0. -1.
         25    2    1    2    0    0  0.21418239581E+03  0.30073109111E+01  0.20562341152E+02  0.24885925151E+03  0.12499989839E+03 0.  0.
          2    1    1    2  501    0 -0.29554163670E+03  0.38303488368E+02 -0.19667057413E+04  0.19891564768E+04  0.00000000000E+00 0. -1.
          1    1    1    2  502    0  0.81359240898E+02 -0.41310799279E+02  0.35561715425E+04  0.35573419779E+04  0.00000000000E+00 0. -1.
         22    1    3    3    0    0  0.67072734678E+02 -0.55495132909E+02  0.24697004806E+02  0.90489798100E+02  0.00000000000E+00 0. -1.
         22    1    3    3    0    0  0.14710966113E+03  0.58502443821E+02 -0.41346636541E+01  0.15836945341E+03  0.00000000000E+00 0. -1.
</event>
<event>
 7    1  0.5213103E-005  0.4596926E+03  0.7818608E-02  0.1112690E+00
          2   -1    0    0  502    0  0.00000000000E+00  0.00000000000E+00  0.17466857996E+04  0.17466857996E+04  0.00000000000E+00 0. -1.
          1   -1    0    0  501    0 -0.00000000000E+00 -0.00000000000E+00 -0.23104201700E+04  0.23104201700E+04  0.00000000000E+00 0. -1.
         25    2    1    2    0    0 -0.41864988655E+03 -0.16977064865E+03  0.14826044911E+04  0.15549362826E+04  0.12498386025E+03 0.  0.
          2    1    1    2  501    0 -0.29712129062E+02 -0.13376366692E+03 -0.19468440178E+04  0.19516601033E+04  0.00000000000E+00 0. -1.
          1    1    1    2  502    0  0.44836201561E+03  0.30353431558E+03 -0.99494843666E+02  0.55050958365E+03  0.00000000000E+00 0. -1.
         22    1    3    3    0    0 -0.81206605826E+02  0.57615504334E+01  0.17274672166E+03  0.19096894548E+03  0.00000000000E+00 0. -1.
         22    1    3    3    0    0 -0.33744328072E+03 -0.17553219909E+03  0.13098577694E+04  0.13639673371E+04  0.00000000000E+00 0. -1.
</event>
<event>
 7    1  0.5213103E-005  0.2974745E+03  0.7818608E-02  0.1214662E+00
          2   -1    0    0  502    0  0.00000000000E+00  0.00000000000E+00  0.18672816389E+04  0.18672816389E+04  0.00000000000E+00 0. -1.
          1   -1    0    0  501    0 -0.00000000000E+00 -0.00000000000E+00 -0.40071222816E+03  0.40071222816E+03  0.00000000000E+00 0. -1.
         25    2    1    2    0    0  0.66051007634E+02 -0.30070591197E+03 -0.22483477055E+03  0.40120490082E+03  0.12501166864E+03 0.  0.
          2    1    1    2  501    0 -0.10982793764E+03  0.25270825428E+03  0.13111351017E+03  0.30514650615E+03  0.00000000000E+00 0. -1.
          1    1    1    2  502    0  0.43776930003E+02  0.47997657686E+02  0.15602906711E+04  0.15616424600E+04  0.00000000000E+00 0. -1.
         22    1    3    3    0    0 -0.46535580108E+01 -0.23381264163E+03 -0.17328512715E+03  0.29106312422E+03  0.00000000000E+00 0.  1.
         22    1    3    3    0    0  0.70704565645E+02 -0.66893270331E+02 -0.51549643403E+02  0.11014177660E+03  0.00000000000E+00 0.  1.
</event>
<event>
 7    1  0.5213103E-005  0.2935626E+03  0.7818608E-02  0.1161252E+00
          2   -1    0    0  502    0  0.00000000000E+00  0.00000000000E+00  0.60636599810E+03  0.60636599810E+03  0.00000000000E+00 0. -1.
          1   -1    0    0  501    0 -0.00000000000E+00 -0.00000000000E+00 -0.27220520384E+04  0.27220520384E+04  0.00000000000E+00 0. -1.
         25    2    1    2    0    0 -0.51521900797E+02  0.33584674115E+03 -0.14226738784E+04  0.14680169036E+04  0.12500050153E+03 0.  0.
          2    1    1    2  501    0 -0.45282596931E+02 -0.26656660335E+03 -0.12560979038E+04  0.12848697255E+04  0.00000000000E+00 0. -1.
          1    1    1    2  502    0  0.96804497728E+02 -0.69280137795E+02  0.56308574181E+03  0.57553140740E+03  0.00000000000E+00 0. -1.
         22    1    3    3    0    0 -0.31222784400E+02  0.17370611316E+03 -0.48287218045E+03  0.51411498585E+03  0.00000000000E+00 0.  1.
         22    1    3    3    0    0 -0.20299116397E+02  0.16214062799E+03 -0.93980169790E+03  0.95390191778E+03  0.00000000000E+00 0.  1.
</event>
<event>
 7    1  0.9501738E-005  0.6252977E+03  0.7818608E-02  0.1198766E+00
          2   -1    0    0  502    0  0.00000000000E+00  0.00000000000E+00  0.20730807817E+04  0.20730807817E+04  0.00000000000E+00 0. -1.
          1   -1    0    0  501    0 -0.00000000000E+00 -0.00000000000E+00 -0.20260241383E+04  0.20260241383E+04  0.00000000000E+00 0. -1.
         25    2    1    2    0    0  0.38662675847E+03 -0.47281176464E+03 -0.32598402649E+03  0.70350584966E+03  0.12499471924E+03 0.  0.
          2    1    1    2  501    0  0.35443946863E+02  0.93498774231E+01 -0.14589096616E+04  0.14593701019E+04  0.00000000000E+00 0. -1.
          1    1    1    2  502    0 -0.42207070533E+03  0.46346188721E+03  0.18319503314E+04  0.19362289684E+04  0.00000000000E+00 0. -1.
         22    1    3    3    0    0  0.18642896727E+03 -0.30128060027E+03 -0.14038949014E+03  0.38109705965E+03  0.00000000000E+00 0. -1.
         22    1    3    3    0    0  0.20019779119E+03 -0.17153116437E+03 -0.18559453635E+03  0.32240879000E+03  0.00000000000E+00 0. -1.
</event>
<event>
 7    1  0.5213103E-005  0.2777737E+03  0.7818608E-02  0.1288787E+00
          2   -1    0    0  502    0  0.00000000000E+00  0.00000000000E+00  0.59394814280E+03  0.59394814280E+03  0.00000000000E+00 0. -1.
          1   -1    0    0  501    0 -0.00000000000E+00 -0.00000000000E+00 -0.31783806828E+03  0.31783806828E+03  0.00000000000E+00 0. -1.
         25    2    1    2    0    0 -0.31096133629E+01 -0.26964245988E+03  0.37194961710E+03  0.47611796455E+03  0.12500029057E+03 0.  0.
          2    1    1    2  501    0  0.16425302900E+02 -0.28881540864E+02 -0.13066666280E+03  0.13482474085E+03  0.00000000000E+00 0. -1.
          1    1    1    2  502    0 -0.13315689537E+02  0.29852400074E+03  0.34827120212E+02  0.30084350568E+03  0.00000000000E+00 0. -1.
         22    1    3    3    0    0  0.51708251814E+02 -0.20213390206E+03  0.23906132197E+03  0.31730454351E+03  0.00000000000E+00 0.  1.
         22    1    3    3    0    0 -0.54817865176E+02 -0.67508557816E+02  0.13288829513E+03  0.15881342104E+03  0.00000000000E+00 0.  1.
</event>
<event>
 7    1  0.5213103E-005  0.3052154E+03  0.7818608E-02  0.1196142E+00
          2   -1    0    0  502    0  0.00000000000E+00  0.00000000000E+00  0.21117005310E+04  0.21117005310E+04  0.00000000000E+00 0. -1.
          1   -1    0    0  501    0 -0.00000000000E+00 -0.00000000000E+00 -0.26791804080E+03  0.26791804080E+03  0.00000000000E+00 0. -1.
         25    2    1    2    0    0  0.31632467644E+03 -0.13152852823E+03  0.20059235974E+03  0.41620154222E+03  0.12500149716E+03 0.  0.
          2    1    1    2  501    0 -0.20188035223E+02  0.74595525182E+02 -0.13730850067E+03  0.15756164983E+03  0.00000000000E+00 0. -1.
          1    1    1    2  502    0 -0.29613664122E+03  0.56933003046E+02  0.17804986311E+04  0.18058553797E+04  0.00000000000E+00 0. -1.
         22    1    3    3    0    0  0.28639171931E+03 -0.12927635247E+03  0.13103771208E+03  0.34044599305E+03  0.00000000000E+00 0. -1.
         22    1    3    3    0    0  0.29932957135E+02 -0.22521757538E+01  0.69554647657E+02  0.75755549164E+02  0.00000000000E+00 0. -1.
</event>
<event>
 7    1  0.5213103E-005  0.2355327E+03  0.7818608E-02  0.1256471E+00
          2   -1    0    0  502    0  0.00000000000E+00  0.00000000000E+00  0.81852966814E+03  0.81852966814E+03  0.00000000000E+00 0. -1.
          1   -1    0    0  501    0 -0.00000000000E+00 -0.00000000000E+00 -0.81778513462E+03  0.81778513462E+03  0.00000000000E+00 0. -1.
         25    2    1    2    0    0  0.37943916875E+02 -0.27281420207E+03 -0.16501345884E+03  0.34456231232E+03  0.12500566303E+03 0.  0.
          2    1    1    2  501    0 -0.48445877499E+02  0.22036557516E+03 -0.53933771246E+03  0.58463078763E+03  0.00000000000E+00 0. -1.
          1    1    1    2  502    0  0.10501960624E+02  0.52448626918E+02  0.70509570482E+03  0.70712170282E+03  0.00000000000E+00 0. -1.
         22    1    3    3    0    0  0.47128539644E+01 -0.26897927851E+03 -0.14750439312E+03  0.30680549090E+03  0.00000000000E+00 0. -1.
         22    1    3    3    0    0  0.33231062911E+02 -0.38349235691E+01 -0.17509065718E+02  0.37756821414E+02  0.00000000000E+00 0. -1.
</event>
<event>
 7    1  0.5213103E-005  0.2970221E+03  0.7818608E-02  0.1228203E+00
          2   -1    0    0  502    0  0.00000000000E+00  0.00000000000E+00  0.96979635869E+03  0.96979635869E+03  0.00000000000E+00 0. -1.
          1   -1    0    0  501    0 -0.00000000000E+00 -0.00000000000E+00 -0.66207382819E+03  0.66207382819E+03  0.00000000000E+00 0. -1.
         25    2    1    2    0    0 -0.16958629550E+03 -0.29375908794E+03 -0.19508706665E+03  0.41077736739E+03  0.12500067447E+03 0.  0.
          2    1    1    2  501    0  0.50456405569E+02  0.25333665232E+02 -0.33167242579E+03  0.33644351901E+03  0.00000000000E+00 0. -1.
          1    1    1    2  502    0  0.11912988993E+03  0.26842542271E+03  0.83448202293E+03  0.88464930047E+03  0.00000000000E+00 0. -1.
         22    1    3    3    0    0 -0.57681922193E+02 -0.21036062771E+03 -0.89501227413E+02  0.23577376348E+03  0.00000000000E+00 0.  1.
         22    1    3    3    0    0 -0.11190437331E+03 -0.83398460231E+02 -0.10558583924E+03  0.17500360391E+03  0.00000000000E+00 0.  1.
</event>
<event>
 7    1  0.5213103E-005  0.6430287E+03  0.7818608E-02  0.1195691E+00
          2   -1    0    0  502    0  0.00000000000E+00  0.00000000000E+00  0.10795636233E+04  0.10795636233E+04  0.00000000000E+00 0. -1.
          1   -1    0    0  501    0 -0.00000000000E+00 -0.00000000000E+00 -0.90799997246E+03  0.90799997246E+03  0.00000000000E+00 0. -1.
         25    2    1    2    0    0 -0.54707308345E+03  0.33071369836E+03 -0.13855271877E+03  0.66594529384E+03  0.12500307833E+03 0.  0.
          2    1    1    2  501    0  0.15385721362E+02  0.33497475311E+02 -0.37744303935E+03  0.37923877601E+03  0.00000000000E+00 0. -1.
          1    1    1    2  502    0  0.53168736209E+03 -0.36421117367E+03  0.68755940901E+03  0.94237952596E+03  0.00000000000E+00 0. -1.
         22    1    3    3    0    0 -0.40446208052E+03  0.27421878795E+03 -0.56297095987E+02  0.49188909447E+03  0.00000000000E+00 0.  1.
         22    1    3    3    0    0 -0.14261100293E+03  0.56494910406E+02 -0.82255622785E+02  0.17405619937E+03  0.00000000000E+00 0.  1.
</event>
<event>
 7    1  0.5213103E-005  0.1654530E+04  0.7818608E-02  0.1111694E+00
          2   -1    0    0  502    0  0.00000000000E+00  0.00000000000E+00  0.36689156326E+04  0.36689156326E+04  0.00000000000E+00 0. -1.
          1   -1    0    0  501    0 -0.00000000000E+00 -0.00000000000E+00 -0.24898161668E+04  0.24898161668E+04  0.00000000000E+00 0. -1.
         25    2    1    2    0    0  0.16272380831E+04 -0.71749140980E+02  0.47790668503E+03  0.17020786636E+04  0.12500103705E+03 0.  0.
          2    1    1    2  501    0 -0.16623074199E+04  0.55731137271E+02 -0.15092158062E+04  0.22459083391E+04  0.00000000000E+00 0. -1.
          1    1    1    2  502    0  0.35069336759E+02  0.16018003710E+02  0.22104085869E+04  0.22107447967E+04  0.00000000000E+00 0. -1.
         22    1    3    3    0    0  0.52612020788E+03 -0.75695740495E+02  0.18282631553E+03  0.56210121857E+03  0.00000000000E+00 0.  1.
         22    1    3    3    0    0  0.11011178752E+04  0.39465995147E+01  0.29508036949E+03  0.11399774451E+04  0.00000000000E+00 0.  1.
</event>
<event>
 7    1  0.5213103E-005  0.2383309E+03  0.7818608E-02  0.1181442E+00
          2   -1    0    0  502    0  0.00000000000E+00  0.00000000000E+00  0.16287843137E+04  0.16287843137E+04  0.00000000000E+00 0. -1.
          1   -1    0    0  501    0 -0.00000000000E+00 -0.00000000000E+00 -0.86435804383E+03  0.86435804383E+03  0.00000000000E+00 0. -1.
         25    2    1    2    0    0  0.21118476351E+02  0.34377689993E+03  0.27468186652E+03  0.45793421340E+03  0.12500027615E+03 0.  0.
          2    1    1    2  501    0  0.14438914001E+02 -0.23288195103E+03 -0.75233219202E+03  0.78768408166E+03  0.00000000000E+00 0. -1.
          1    1    1    2  502    0 -0.35557390352E+02 -0.11089494890E+03  0.12420765954E+04  0.12475240625E+04  0.00000000000E+00 0. -1.
         22    1    3    3    0    0 -0.13610806923E+02 -0.28707342841E+01 -0.59146837208E+00  0.13922823538E+02  0.00000000000E+00 0. -1.
         22    1    3    3    0    0  0.34729283274E+02  0.34664763422E+03  0.27527333489E+03  0.44401138986E+03  0.00000000000E+00 0. -1.
</event>
<event>
 7    1  0.5213103E-005  0.9357468E+03  0.7818608E-02  0.1184016E+00
          2   -1    0    0  502    0  0.00000000000E+00  0.00000000000E+00  0.42137798558E+04  0.42137798558E+04  0.00000000000E+00 0. -1.
          1   -1    0    0  501    0 -0.00000000000E+00 -0.00000000000E+00 -0.86632261554E+03  0.86632261554E+03  0.00000000000E+00 0. -1.
         25    2    1    2    0    0 -0.72153002716E+03  0.57122959511E+03  0.25778359927E+04  0.27400314211E+04  0.12499981186E+03 0.  0.
          2    1    1    2  501    0  0.72020877603E+03 -0.60001848355E+03 -0.50523612604E+03  0.10648879776E+04  0.00000000000E+00 0. -1.
          1    1    1    2  502    0  0.13212511284E+01  0.28788888438E+02  0.12748573737E+04  0.12751830728E+04  0.00000000000E+00 0. -1.
         22    1    3    3    0    0 -0.67873323153E+03  0.55969971601E+03  0.25024224807E+04  0.26525574157E+04  0.00000000000E+00 0. -1.
         22    1    3    3    0    0 -0.42796795632E+02  0.11529879105E+02  0.75413511935E+02  0.87474005344E+02  0.00000000000E+00 0. -1.
</event>
<event>
 7    1  0.5213103E-005  0.2561808E+03  0.7818608E-02  0.1295379E+00
          2   -1    0    0  502    0  0.00000000000E+00  0.00000000000E+00  0.14776018242E+04  0.14776018242E+04  0.00000000000E+00 0. -1.
          1   -1    0    0  501    0 -0.00000000000E+00 -0.00000000000E+00 -0.97880436988E+02  0.97880436988E+02  0.00000000000E+00 0. -1.
         25    2    1    2    0    0  0.26744457475E+03 -0.21384984405E+02  0.22629791166E+03  0.37258548806E+03  0.12500113187E+03 0.  0.
          2    1    1    2  501    0 -0.13474892579E+02  0.31080886498E+02  0.16074021560E+02  0.37496245207E+02  0.00000000000E+00 0. -1.
          1    1    1    2  502    0 -0.25396968217E+03 -0.96959020924E+01  0.11373494540E+04  0.11654005279E+04  0.00000000000E+00 0. -1.
         22    1    3    3    0    0  0.58035569155E+02  0.41349460895E+02  0.90687231898E+02  0.11533464021E+03  0.00000000000E+00 0.  1.
         22    1    3    3    0    0  0.20940900560E+03 -0.62734445300E+02  0.13561067976E+03  0.25725084785E+03  0.00000000000E+00 0.  1.
</event>
<event>
 7    1  0.5213103E-005  0.2342880E+03  0.7818608E-02  0.1294890E+00
          2   -1    0    0  502    0  0.00000000000E+00  0.00000000000E+00  0.66261872772E+03  0.66261872772E+03  0.00000000000E+00 0. -1.
          1   -1    0    0  501    0 -0.00000000000E+00 -0.00000000000E+00 -0.18757074070E+03  0.18757074070E+03  0.00000000000E+00 0. -1.
         25    2    1    2    0    0  0.18694971628E+03  0.16143269979E+03  0.19669339316E+03  0.33959363395E+03  0.12499932930E+03 0.  0.
          2    1    1    2  501    0 -0.19273077943E+03 -0.12467408575E+03 -0.22662480322E+00  0.22954048086E+03  0.00000000000E+00 0. -1.
          1    1    1    2  502    0  0.57810631511E+01 -0.36758614046E+02  0.27858121866E+03  0.28105535361E+03  0.00000000000E+00 0. -1.
         22    1    3    3    0    0 -0.16034647394E+02  0.31820839300E+02  0.19707877137E+02  0.40719481235E+02  0.00000000000E+00 0. -1.
         22    1    3    3    0    0  0.20298436367E+03  0.12961186049E+03  0.17698551603E+03  0.29887415271E+03  0.00000000000E+00 0. -1.
</event>
<event>
 7    1  0.5213103E-005  0.5210162E+03  0.7818608E-02  0.1130812E+00
          2   -1    0    0  502    0  0.00000000000E+00  0.00000000000E+00  0.26350808820E+04  0.26350808820E+04  0.00000000000E+00 0. -1.
          1   -1    0    0  501    0 -0.00000000000E+00 -0.00000000000E+00 -0.24236453105E+03  0.24236453105E+03  0.00000000000E+00 0. -1.
         25    2    1    2    0    0 -0.39747656364E+03  0.32592373951E+03  0.12879705650E+04  0.13923747043E+04  0.12500095281E+03 0.  0.
          2    1    1    2  501    0  0.33777914202E+03 -0.40167915945E+03  0.17929249926E+03  0.55460499115E+03  0.00000000000E+00 0. -1.
          1    1    1    2  502    0  0.59697421616E+02  0.75755419948E+02  0.92545328667E+03  0.93046571759E+03  0.00000000000E+00 0. -1.
         22    1    3    3    0    0 -0.25573711106E+03  0.14149291083E+03  0.80226059085E+03  0.85384059954E+03  0.00000000000E+00 0. -1.
         22    1    3    3    0    0 -0.14173945257E+03  0.18443082868E+03  0.48570997416E+03  0.53853410475E+03  0.00000000000E+00 0. -1.
</event>
<event>
 7    1  0.5213103E-005  0.1468201E+04  0.7818608E-02  0.1154127E+00
          2   -1    0    0  502    0  0.00000000000E+00  0.00000000000E+00  0.19139641357E+04  0.19139641357E+04  0.00000000000E+00 0. -1.
          1   -1    0    0  501    0 -0.00000000000E+00 -0.00000000000E+00 -0.29981080922E+04  0.29981080922E+04  0.00000000000E+00 0. -1.
         25    2    1    2    0    0  0.93059293462E+03  0.11620063444E+04 -0.13937358778E+04  0.20431315186E+04  0.12499900344E+03 0.  0.
          2    1    1    2  501    0 -0.21701755858E+02 -0.14079269527E+02 -0.94222500908E+03  0.94258005484E+03  0.00000000000E+00 0. -1.
          1    1    1    2  502    0 -0.90889117877E+03 -0.11479270749E+04  0.12518169304E+04  0.19263606545E+04  0.00000000000E+00 0. -1.
         22    1    3    3    0    0  0.56390758258E+03  0.66340328797E+03 -0.89068287690E+03  0.12455567716E+04  0.00000000000E+00 0.  1.
         22    1    3    3    0    0  0.36668535204E+03  0.49860305642E+03 -0.50305300092E+03  0.79757474697E+03  0.00000000000E+00 0.  1.
</event>
<event>
 7    1  0.5213103E-005  0.7137060E+02  0.7818608E-02  0.1475253E+00
          2   -1    0    0  502    0  0.00000000000E+00  0.00000000000E+00  0.15718058474E+04  0.15718058474E+04  0.00000000000E+00 0. -1.
          1   -1    0    0  501    0 -0.00000000000E+00 -0.00000000000E+00 -0.68842933554E+03  0.68842933554E+03  0.00000000000E+00 0. -1.
         25    2    1    2    0    0  0.51003631137E+02  0.60901222004E+02 -0.38104568614E+03  0.40881677771E+03  0.12500005434E+03 0.  0.
          2    1    1    2  501    0  0.11176456455E+02 -0.25879473956E+02 -0.29200171219E+03  0.29335926825E+03  0.00000000000E+00 0. -1.
          1    1    1    2  502    0 -0.62180087592E+02 -0.35021748047E+02  0.15564239102E+04  0.15580591370E+04  0.00000000000E+00 0. -1.
         22    1    3    3    0    0  0.34123767784E+02  0.22530904978E+02 -0.35925049712E+03  0.36157017699E+03  0.00000000000E+00 0.  1.
         22    1    3    3    0    0  0.16879863353E+02  0.38370317026E+02 -0.21795189016E+02  0.47246600722E+02  0.00000000000E+00 0.  1.
</event>
<event>
 7    1  0.5213103E-005  0.1933538E+03  0.7818608E-02  0.1202993E+00
          2   -1    0    0  502    0  0.00000000000E+00  0.00000000000E+00  0.66652824400E+03  0.66652824400E+03  0.00000000000E+00 0. -1.
          1   -1    0    0  501    0 -0.00000000000E+00 -0.00000000000E+00 -0.94384739042E+03  0.94384739042E+03  0.00000000000E+00 0. -1.
         25    2    1    2    0    0  0.25951114368E+03  0.10074262430E+03 -0.40992579006E+03  0.51103672654E+03  0.12499708986E+03 0.  0.
          2    1    1    2  501    0 -0.16397837683E+03 -0.39952070568E+02 -0.46313617547E+03  0.49293021113E+03  0.00000000000E+00 0. -1.
          1    1    1    2  502    0 -0.95532766847E+02 -0.60790553734E+02  0.59574281912E+03  0.60640869675E+03  0.00000000000E+00 0. -1.
         22    1    3    3    0    0  0.11876002326E+03  0.10895474866E+03 -0.25402353252E+03  0.30083722419E+03  0.00000000000E+00 0. -1.
         22    1    3    3    0    0  0.14075112042E+03 -0.82121243615E+01 -0.15590225754E+03  0.21019950236E+03  0.00000000000E+00 0. -1.
</event>
<event>
 7    1  0.5213103E-005  0.5206986E+03  0.7818608E-02  0.1207905E+00
          2   -1    0    0  502    0  0.00000000000E+00  0.00000000000E+00  0.16948495151E+04  0.16948495151E+04  0.00000000000E+00 0. -1.
          1   -1    0    0  501    0 -0.00000000000E+00 -0.00000000000E+00 -0.48114918248E+03  0.48114918248E+03  0.00000000000E+00 0. -1.
         25    2    1    2    0    0  0.46147681399E+03  0.21276332750E+03  0.31083001418E+03  0.60866064623E+03  0.12499360452E+03 0.  0.
          2    1    1    2  501    0  0.30062620555E+02 -0.26209283677E+02 -0.27477946077E+03  0.27765885501E+03  0.00000000000E+00 0. -1.
          1    1    1    2  502    0 -0.49153943455E+03 -0.18655404383E+03  0.11776497792E+04  0.12896791963E+04  0.00000000000E+00 0. -1.
         22    1    3    3    0    0  0.30033545625E+03  0.19166543808E+03  0.24950070378E+03  0.43495704112E+03  0.00000000000E+00 0. -1.
         22    1    3    3    0    0  0.16114135774E+03  0.21097889426E+02  0.61329310398E+02  0.17370360511E+03  0.00000000000E+00 0. -1.
</event>
<event>
 7    1  0.5213103E-005  0.3990265E+03  0.7818608E-02  0.1244323E+00
          2   -1    0    0  502    0  0.00000000000E+00  0.00000000000E+00  0.91265583603E+03  0.91265583603E+03  0.00000000000E+00 0. -1.
          1   -1    0    0  501    0 -0.00000000000E+00 -0.00000000000E+00 -0.84821284972E+03  0.84821284972E+03  0.00000000000E+00 0. -1.
         25    2    1    2    0    0 -0.41504078567E+03 -0.47041584928E+02 -0.35941980289E+01  0.43601669228E+03  0.12500349275E+03 0.  0.
          2    1    1    2  501    0  0.39344441535E+03  0.18684867735E+02 -0.56613520190E+03  0.68967869264E+03  0.00000000000E+00 0. -1.
          1    1    1    2  502    0  0.21596370324E+02  0.28356717193E+02  0.63417238624E+03  0.63517330083E+03  0.00000000000E+00 0. -1.
         22    1    3    3    0    0 -0.21348858517E+03 -0.88867577994E+01 -0.62442574030E+02  0.22261047935E+03  0.00000000000E+00 0.  1.
         22    1    3    3    0    0 -0.20155220050E+03 -0.38154827128E+02  0.58848376001E+02  0.21340621293E+03  0.00000000000E+00 0.  1.
</event>
<event>
 7    1  0.5213103E-005  0.1644467E+03  0.7818608E-02  0.1235832E+00
          2   -1    0    0  502    0  0.00000000000E+00  0.00000000000E+00  0.11519323871E+04  0.11519323871E+04  0.00000000000E+00 0. -1.
          1   -1    0    0  501    0 -0.00000000000E+00 -0.00000000000E+00 -0.19906965689E+03  0.19906965689E+03  0.00000000000E+00 0. -1.
         25    2    1    2    0    0  0.20756610277E+03 -0.58323109955E+02  0.14987327073E+03  0.29081584898E+03  0.12500635409E+03 0.  0.
          2    1    1    2  501    0 -0.83368759273E+02 -0.44020511249E+02 -0.10322187559E+03  0.13979596215E+03  0.00000000000E+00 0. -1.
          1    1    1    2  502    0 -0.12419734350E+03  0.10234362120E+03  0.90621133503E+03  0.92039023282E+03  0.00000000000E+00 0. -1.
         22    1    3    3    0    0  0.57113248944E+01 -0.17703684364E+02  0.65856060219E+02  0.68432889312E+02  0.00000000000E+00 0. -1.
         22    1    3    3    0    0  0.20185477788E+03 -0.40619425592E+02  0.84017210512E+02  0.22238295967E+03  0.00000000000E+00 0. -1.
</event>
<event>
 7    1  0.5213103E-005  0.3041981E+03  0.7818608E-02  0.1157382E+00
          2   -1    0    0  502    0  0.00000000000E+00  0.00000000000E+00  0.80750152730E+03  0.80750152730E+03  0.00000000000E+00 0. -1.
          1   -1    0    0  501    0 -0.00000000000E+00 -0.00000000000E+00 -0.35098673470E+03  0.35098673470E+03  0.00000000000E+00 0. -1.
         25    2    1    2    0    0  0.21875315299E+03  0.16519835890E+03  0.75905588628E+02  0.31068691505E+03  0.12498504339E+03 0.  0.
          2    1    1    2  501    0 -0.51687916737E+02  0.10849496957E+03 -0.17144998648E+03  0.20937501528E+03  0.00000000000E+00 0. -1.
          1    1    1    2  502    0 -0.16706523625E+03 -0.27369332847E+03  0.55205919046E+03  0.63842633168E+03  0.00000000000E+00 0. -1.
         22    1    3    3    0    0  0.73027057669E+01 -0.10932102277E+02 -0.15853625103E+02  0.20595577210E+02  0.00000000000E+00 0.  1.
         22    1    3    3    0    0  0.21145044722E+03  0.17613046118E+03  0.91759213731E+02  0.29009133784E+03  0.00000000000E+00 0.  1.
</event>
<event>
 7    1  0.5213103E-005  0.1033739E+04  0.7818608E-02  0.1005887E+00
          2   -1    0    0  502    0  0.00000000000E+00  0.00000000000E+00  0.17072226914E+04  0.17072226914E+04  0.00000000000E+00 0. -1.
          1   -1    0    0  501    0 -0.00000000000E+00 -0.00000000000E+00 -0.25972334703E+04  0.25972334703E+04  0.00000000000E+00 0. -1.
         25    2    1    2    0    0 -0.60534426286E+02  0.93608375278E+03  0.27748276928E+02  0.94673238838E+03  0.12496015103E+03 0.  0.
          2    1    1    2  501    0 -0.24873631807E+03  0.11299170166E+03 -0.18807447377E+04  0.19004835303E+04  0.00000000000E+00 0. -1.
          1    1    1    2  502    0  0.30927074436E+03 -0.10490754544E+04  0.96298568181E+03  0.14572402430E+04  0.00000000000E+00 0. -1.
         22    1    3    3    0    0  0.17331244039E+02  0.53093884591E+03 -0.18805926324E+02  0.53155441206E+03  0.00000000000E+00 0. -1.
         22    1    3    3    0    0 -0.77865670325E+02  0.40514490687E+03  0.46554203253E+02  0.41517797632E+03  0.00000000000E+00 0. -1.
</event>
<event>
 7    1  0.5213103E-005  0.4742930E+03  0.7818608E-02  0.1047318E+00
          2   -1    0    0  502    0  0.00000000000E+00  0.00000000000E+00  0.25648401954E+04  0.25648401954E+04  0.00000000000E+00 0. -1.
          1   -1    0    0  501    0 -0.00000000000E+00 -0.00000000000E+00 -0.62415562076E+03  0.62415562076E+03  0.00000000000E+00 0. -1.
         25    2    1    2    0    0  0.61137424852E+03 -0.29976903581E+03  0.21320115062E+04  0.22415927202E+04  0.12499965634E+03 0.  0.
          2    1    1    2  501    0 -0.46617760907E+03  0.13935345236E+02 -0.35624125277E+03  0.58687612596E+03  0.00000000000E+00 0. -1.
          1    1    1    2  502    0 -0.14519663944E+03  0.28583369057E+03  0.16491432124E+03  0.36052697003E+03  0.00000000000E+00 0. -1.
         22    1    3    3    0    0  0.51024550492E+03 -0.27868911556E+03  0.19138423380E+04  0.20002026380E+04  0.00000000000E+00 0. -1.
         22    1    3    3    0    0  0.10112874360E+03 -0.21079920255E+02  0.21816916818E+03  0.24139008216E+03  0.00000000000E+00 0. -1.
</event>
<event>
 7    1  0.5213103E-005  0.3419906E+03  0.7818608E-02  0.1318797E+00
          2   -1    0    0  502    0  0.00000000000E+00  0.00000000000E+00  0.32953251575E+04  0.32953251575E+04  0.00000000000E+00 0. -1.
          1   -1    0    0  501    0 -0.00000000000E+00 -0.00000000000E+00 -0.45341306974E+03  0.45341306974E+03  0.00000000000E+00 0. -1.
         25    2    1    2    0    0 -0.16720814602E+03  0.32010304865E+03  0.12984601306E+03  0.40362527069E+03  0.12501538379E+03 0.  0.
          2    1    1    2  501    0  0.98763881594E+01 -0.17961822718E+02 -0.30660120607E+03  0.30728564835E+03  0.00000000000E+00 0. -1.
          1    1    1    2  502    0  0.15733175786E+03 -0.30214122594E+03  0.30186672807E+04  0.30378273082E+04  0.00000000000E+00 0. -1.
         22    1    3    3    0    0 -0.80916172532E+01  0.28820234349E+02 -0.23449146901E+02  0.38025552831E+02  0.00000000000E+00 0.  1.
         22    1    3    3    0    0 -0.15911652876E+03  0.29128281431E+03  0.15329515996E+03  0.36559971786E+03  0.00000000000E+00 0.  1.
</event>
<event>
 7    1  0.5213103E-005  0.4694072E+03  0.7818608E-02  0.1250671E+00
          2   -1    0    0  502    0  0.00000000000E+00  0.00000000000E+00  0.28494694948E+04  0.28494694948E+04  0.00000000000E+00 0. -1.
          1   -1    0    0  501    0 -0.00000000000E+00 -0.00000000000E+00 -0.46836965089E+03  0.46836965089E+03  0.00000000000E+00 0. -1.
         25    2    1    2    0    0  0.38305616259E+03 -0.24406921017E+03  0.11621477416E+04  0.12539995762E+04  0.12500304283E+03 0.  0.
          2    1    1    2  501    0  0.27685504367E+02 -0.64664111185E+01 -0.38665450616E+03  0.38769834763E+03  0.00000000000E+00 0. -1.
          1    1    1    2  502    0 -0.41074166695E+03  0.25053562128E+03  0.16056066084E+04  0.16761412218E+04  0.00000000000E+00 0. -1.
         22    1    3    3    0    0  0.16846814009E+03 -0.45899339202E+02  0.52019315507E+03  0.54871593939E+03  0.00000000000E+00 0.  1.
         22    1    3    3    0    0  0.21458802250E+03 -0.19816987096E+03  0.64195458658E+03  0.70528363684E+03  0.00000000000E+00 0.  1.
</event>
<event>
 7    1  0.5213103E-005  0.4055368E+03  0.7818608E-02  0.1223887E+00
          2   -1    0    0  502    0  0.00000000000E+00  0.00000000000E+00  0.18484333688E+04  0.18484333688E+04  0.00000000000E+00 0. -1.
          1   -1    0    0  501    0 -0.00000000000E+00 -0.00000000000E+00 -0.22338259742E+04  0.22338259742E+04  0.00000000000E+00 0. -1.
         25    2    1    2    0    0  0.43642412954E+03  0.57689315006E+02 -0.14525340237E+03  0.48012313461E+03  0.12500238228E+03 0.  0.
          2    1    1    2  501    0 -0.39504408854E+03 -0.70265566876E+02 -0.18999021964E+04  0.19418098356E+04  0.00000000000E+00 0. -1.
          1    1    1    2  502    0 -0.41380040998E+02  0.12576251870E+02  0.16597629933E+04  0.16603263727E+04  0.00000000000E+00 0. -1.
         22    1    3    3    0    0  0.30295220687E+03  0.60607063228E+01 -0.14747848950E+03  0.33699655291E+03  0.00000000000E+00 0. -1.
         22    1    3    3    0    0  0.13347192267E+03  0.51628608683E+02  0.22250871263E+01  0.14312658170E+03  0.00000000000E+00 0. -1.
</event>
<event>
 7    1  0.5213103E-005  0.3835464E+03  0.7818608E-02  0.1160790E+00
          2   -1    0    0  502    0  0.00000000000E+00  0.00000000000E+00  0.70707249475E+03  0.70707249475E+03  0.00000000000E+00 0. -1.
          1   -1    0    0  501    0 -0.00000000000E+00 -0.00000000000E+00 -0.90747064612E+03  0.90747064612E+03  0.00000000000E+00 0. -1.
         25    2    1    2    0    0  0.10452249290E+03 -0.43922356693E+03  0.48266199173E+02  0.47095293706E+03  0.12499899871E+03 0.  0.
          2    1    1    2  501    0 -0.15827311570E+02  0.90225033435E+02 -0.61976605764E+03  0.62649902366E+03  0.00000000000E+00 0. -1.
          1    1    1    2  502    0 -0.88695181332E+02  0.34899853349E+03  0.37110170710E+03  0.51709118014E+03  0.00000000000E+00 0. -1.
         22    1    3    3    0    0 -0.28428051175E+02 -0.10125698783E+03  0.15377877679E+02  0.10629021969E+03  0.00000000000E+00 0.  1.
         22    1    3    3    0    0  0.13295054408E+03 -0.33796657909E+03  0.32888321494E+02  0.36466271738E+03  0.00000000000E+00 0.  1.
</event>
<event>
 7    1  0.5213103E-005  0.3027777E+03  0.7818608E-02  0.1217231E+00
          2   -1    0    0  502    0  0.00000000000E+00  0.00000000000E+00  0.12992946946E+03  0.12992946946E+03  0.00000000000E+00 0. -1.
          1   -1    0    0  501    0 -0.00000000000E+00 -0.00000000000E+00 -0.23655670576E+04  0.23655670576E+04  0.00000000000E+00 0. -1.
         25    2    1    2    0    0 -0.67458580963E+02  0.31076691341E+03 -0.17425832087E+03  0.38356042463E+03  0.12500360930E+03 0.  0.
          2    1    1    2  501    0  0.40465528445E+02 -0.47126207925E+02 -0.13714710910E+04  0.13728770127E+04  0.00000000000E+00 0. -1.
          1    1    1    2  502    0  0.26993052517E+02 -0.26364070548E+03 -0.68990817626E+03  0.73905908975E+03  0.00000000000E+00 0. -1.
         22    1    3    3    0    0  0.36275149380E+02  0.10756412328E+03 -0.55695788874E+02  0.12644345763E+03  0.00000000000E+00 0. -1.
         22    1    3    3    0    0 -0.10373373034E+03  0.20320279013E+03 -0.11856253200E+03  0.25711696700E+03  0.00000000000E+00 0. -1.
</event>
<event>
 7    1  0.5213103E-005  0.3526057E+03  0.7818608E-02  0.1308815E+00
          2   -1    0    0  502    0  0.00000000000E+00  0.00000000000E+00  0.16630549225E+04  0.16630549225E+04  0.00000000000E+00 0. -1.
          1   -1    0    0  501    0 -0.00000000000E+00 -0.00000000000E+00 -0.20149322543E+03  0.20149322543E+03  0.00000000000E+00 0. -1.
         25    2    1    2    0    0 -0.16981544121E+03 -0.32477831820E+03  0.97031968858E+02  0.39919686682E+03  0.12499878182E+03 0.  0.
          2    1    1    2  501    0 -0.54254791672E+01  0.21066706205E+02 -0.24490259550E+02  0.32756903812E+02  0.00000000000E+00 0. -1.
          1    1    1    2  502    0  0.17524092038E+03  0.30371161199E+03  0.13890199877E+04  0.14325943773E+04  0.00000000000E+00 0. -1.
         22    1    3    3    0    0 -0.49559426078E+02 -0.43123732462E+02 -0.23935087498E+02  0.69919106317E+02  0.00000000000E+00 0.  1.
         22    1    3    3    0    0 -0.12025601514E+03 -0.28165458573E+03  0.12096705636E+03  0.32927776051E+03  0.00000000000E+00 0.  1.
</event>
<event>
 7    1  0.5213103E-005  0.3415274E+03  0.7818608E-02  0.1105528E+00
          2   -1    0    0  502    0  0.00000000000E+00  0.00000000000E+00  0.36509454024E+03  0.36509454024E+03  0.00000000000E+00 0. -1.
          1   -1    0    0  501    0 -0.00000000000E+00 -0.00000000000E+00 -0.20793391837E+04  0.20793391837E+04  0.00000000000E+00 0. -1.
         25    2    1    2    0    0 -0.42476458518E+02 -0.39888134463E+03  0.16480549866E+03  0.45132803671E+03  0.12500227079E+03 0.  0.
          2    1    1    2  501    0  0.20198694758E+03  0.27482155931E+03 -0.16616578626E+04  0.16962996400E+04  0.00000000000E+00 0. -1.
          1    1    1    2  502    0 -0.15951048907E+03  0.12405978533E+03 -0.21739227951E+03  0.29680604719E+03  0.00000000000E+00 0. -1.
         22    1    3    3    0    0 -0.24823170143E+02 -0.49268764094E+01  0.15399461186E+02  0.29624437411E+02  0.00000000000E+00 0. -1.
         22    1    3    3    0    0 -0.17653288375E+02 -0.39395446823E+03  0.14940603747E+03  0.42170359929E+03  0.00000000000E+00 0. -1.
</event>
<event>
 7    1  0.5213103E-005  0.1678530E+04  0.7818608E-02  0.1053837E+00
          2   -1    0    0  502    0  0.00000000000E+00  0.00000000000E+00  0.33880701530E+04  0.33880701530E+04  0.00000000000E+00 0. -1.
          1   -1    0    0  501    0 -0.00000000000E+00 -0.00000000000E+00 -0.13012560270E+04  0.13012560270E+04  0.00000000000E+00 0. -1.
         25    2    1    2    0    0 -0.14345166648E+04 -0.76552519423E+03  0.15349598033E+04  0.22395520614E+04  0.12499981448E+03 0.  0.
          2    1    1    2  501    0  0.14816184814E+04  0.83332181996E+03 -0.18353371582E+03  0.17097670031E+04  0.00000000000E+00 0. -1.
          1    1    1    2  502    0 -0.47101816639E+02 -0.67796625728E+02  0.73538803854E+03  0.74000711538E+03  0.00000000000E+00 0. -1.
         22    1    3    3    0    0 -0.12426423845E+04 -0.69206402041E+03  0.13841524972E+04  0.19846891040E+04  0.00000000000E+00 0.  1.
         22    1    3    3    0    0 -0.19187428031E+03 -0.73461173824E+02  0.15080730611E+03  0.25486295745E+03  0.00000000000E+00 0.  1.
</event>
<event>
 7    1  0.5213103E-005  0.2823195E+03  0.7818608E-02  0.1259231E+00
          2   -1    0    0  502    0  0.00000000000E+00  0.00000000000E+00  0.85804683512E+03  0.85804683512E+03  0.00000000000E+00 0. -1.
          1   -1    0    0  501    0 -0.00000000000E+00 -0.00000000000E+00 -0.33220589713E+03  0.33220589713E+03  0.00000000000E+00 0. -1.
         25    2    1    2    0    0  0.31011408177E+03 -0.57513351368E+02  0.49001588607E+02  0.34279038433E+03  0.12500225042E+03 0.  0.
          2    1    1    2  501    0 -0.42416906978E+02 -0.93109826406E+01 -0.15342385805E+03  0.15945146162E+03  0.00000000000E+00 0. -1.
          1    1    1    2  502    0 -0.26769717479E+03  0.66824334009E+02  0.63026320743E+03  0.68801088629E+03  0.00000000000E+00 0. -1.
         22    1    3    3    0    0  0.29533603321E+02 -0.50551900972E+02  0.10823105252E+02  0.59538794280E+02  0.00000000000E+00 0.  1.
         22    1    3    3    0    0  0.28058047845E+03 -0.69614503960E+01  0.38178483356E+02  0.28325159005E+03  0.00000000000E+00 0.  1.
</event>
<event>
 7    1  0.5213103E-005  0.1371744E+03  0.7818608E-02  0.1242997E+00
          2   -1    0    0  502    0  0.00000000000E+00  0.00000000000E+00  0.28123177908E+03  0.28123177908E+03  0.00000000000E+00 0. -1.
          1   -1    0    0  501    0 -0.00000000000E+00 -0.00000000000E+00 -0.57285075608E+03  0.57285075608E+03  0.00000000000E+00 0. -1.
         25    2    1    2    0    0  0.37638956482E+02 -0.34762169604E+02  0.10698393199E+02  0.13551620666E+03  0.12500034868E+03 0.  0.
          2    1    1    2  501    0 -0.14062954155E+03  0.55625457316E+02 -0.48488231123E+03  0.50791900457E+03  0.00000000000E+00 0. -1.
          1    1    1    2  502    0  0.10299058507E+03 -0.20863287712E+02  0.18256494103E+03  0.21064732394E+03  0.00000000000E+00 0. -1.
         22    1    3    3    0    0 -0.66420121002E+01  0.36998173306E+02 -0.23710675756E+02  0.44442966794E+02  0.00000000000E+00 0.  1.
         22    1    3    3    0    0  0.44280968583E+02 -0.71760342910E+02  0.34409068954E+02  0.91073239865E+02  0.00000000000E+00 0.  1.
</event>
<event>
 7    1  0.5213103E-005  0.9827195E+03  0.7818608E-02  0.1119070E+00
          2   -1    0    0  502    0  0.00000000000E+00  0.00000000000E+00  0.26592388622E+04  0.26592388622E+04  0.00000000000E+00 0. -1.
          1   -1    0    0  501    0 -0.00000000000E+00 -0.00000000000E+00 -0.81195530116E+03  0.81195530116E+03  0.00000000000E+00 0. -1.
         25    2    1    2    0    0 -0.13421378768E+03 -0.97304879582E+03 -0.27425257791E+03  0.10274648464E+04  0.12502893356E+03 0.  0.
          2    1    1    2  501    0  0.75921852239E+02  0.98306102345E+03  0.13595389467E+04  0.16794401600E+04  0.00000000000E+00 0. -1.
          1    1    1    2  502    0  0.58291935439E+02 -0.10012227630E+02  0.76199719225E+03  0.76428915696E+03  0.00000000000E+00 0. -1.
         22    1    3    3    0    0 -0.14018651520E+03 -0.62904967093E+03 -0.20694942684E+03  0.67689276315E+03  0.00000000000E+00 0. -1.
         22    1    3    3    0    0  0.59727275259E+01 -0.34399912489E+03 -0.67303151068E+02  0.35057208324E+03  0.00000000000E+00 0. -1.
</event>
<event>
 7    1  0.5213103E-005  0.1609111E+03  0.7818608E-02  0.1385312E+00
          2   -1    0    0  502    0  0.00000000000E+00  0.00000000000E+00  0.15913807828E+04  0.15913807828E+04  0.00000000000E+00 0. -1.
          1   -1    0    0  501    0 -0.00000000000E+00 -0.00000000000E+00 -0.12426266893E+03  0.12426266893E+03  0.00000000000E+00 0. -1.
         25    2    1    2    0    0  0.16874353668E+03  0.80067372993E+01  0.69727892118E+03  0.72825907082E+03  0.12499956522E+03 0.  0.
          2    1    1    2  501    0 -0.15753167257E+03 -0.30054226182E+02 -0.49371347094E+02  0.16780051933E+03  0.00000000000E+00 0. -1.
          1    1    1    2  502    0 -0.11211864107E+02  0.22047488883E+02  0.81921053979E+03  0.81958386159E+03  0.00000000000E+00 0. -1.
         22    1    3    3    0    0  0.10821852334E+03  0.30136671495E+02  0.60718516346E+03  0.61748950638E+03  0.00000000000E+00 0.  1.
         22    1    3    3    0    0  0.60525013342E+02 -0.22129934196E+02  0.90093757713E+02  0.11076956444E+03  0.00000000000E+00 0.  1.
</event>
<event>
 7    1  0.5213103E-005  0.4058955E+03  0.7818608E-02  0.1238525E+00
          2   -1    0    0  502    0  0.00000000000E+00  0.00000000000E+00  0.17369373942E+04  0.17369373942E+04  0.00000000000E+00 0. -1.
          1   -1    0    0  501    0 -0.00000000000E+00 -0.00000000000E+00 -0.35890673057E+03  0.35890673057E+03  0.00000000000E+00 0. -1.
         25    2    1    2    0    0  0.99618188610E+02  0.39865978592E+03  0.59402065121E+03  0.73303409725E+03  0.12500018104E+03 0.  0.
          2    1    1    2  501    0  0.32889872157E+02 -0.17296949920E+02 -0.25001588594E+03  0.25276248018E+03  0.00000000000E+00 0. -1.
          1    1    1    2  502    0 -0.13250806077E+03 -0.38136283600E+03  0.10340258983E+04  0.11100475473E+04  0.00000000000E+00 0. -1.
         22    1    3    3    0    0 -0.22361642466E+01  0.16674066225E+03  0.31338964795E+03  0.35499369054E+03  0.00000000000E+00 0.  1.
         22    1    3    3    0    0  0.10185435286E+03  0.23191912368E+03  0.28063100325E+03  0.37804040671E+03  0.00000000000E+00 0.  1.
</event>
<event>
 7    1  0.5213103E-005  0.1179078E+04  0.7818608E-02  0.9731727E-01
          2   -1    0    0  502    0  0.00000000000E+00  0.00000000000E+00  0.11718388844E+04  0.11718388844E+04  0.00000000000E+00 0. -1.
          1   -1    0    0  501    0 -0.00000000000E+00 -0.00000000000E+00 -0.27734813311E+04  0.27734813311E+04  0.00000000000E+00 0. -1.
         25    2    1    2    0    0 -0.11111772421E+04  0.68596244369E+03 -0.20252847537E+04  0.24130192320E+04  0.12499657108E+03 0.  0.
          2    1    1    2  501    0  0.78527766990E+03 -0.44442134081E+03 -0.56086057061E+02  0.90405585713E+03  0.00000000000E+00 0. -1.
          1    1    1    2  502    0  0.32589957221E+03 -0.24154110289E+03  0.47972836406E+03  0.62824512639E+03  0.00000000000E+00 0. -1.
         22    1    3    3    0    0 -0.23114031942E+03  0.12655970309E+03 -0.50258390631E+03  0.56748020987E+03  0.00000000000E+00 0. -1.
         22    1    3    3    0    0 -0.88003692270E+03  0.55940274061E+03 -0.15227008474E+04  0.18455390221E+04  0.00000000000E+00 0. -1.
</event>
<event>
 7    1  0.5213103E-005  0.7115523E+03  0.7818608E-02  0.1149819E+00
          2   -1    0    0  502    0  0.00000000000E+00  0.00000000000E+00  0.14744004959E+04  0.14744004959E+04  0.00000000000E+00 0. -1.
          1   -1    0    0  501    0 -0.00000000000E+00 -0.00000000000E+00 -0.62063326152E+03  0.62063326152E+03  0.00000000000E+00 0. -1.
         25    2    1    2    0    0 -0.72277591386E+03 -0.17027000823E+03  0.44227855117E+02  0.75430630902E+03  0.12500002919E+03 0.  0.
          2    1    1    2  501    0  0.32092466036E+02  0.46089369869E+02 -0.14528218482E+03  0.15575965337E+03  0.00000000000E+00 0. -1.
          1    1    1    2  502    0  0.69068344783E+03  0.12418063836E+03  0.95482156410E+03  0.11849677951E+04  0.00000000000E+00 0. -1.
         22    1    3    3    0    0 -0.85070709277E+02 -0.18108898635E+02  0.46643948088E+02  0.98694557499E+02  0.00000000000E+00 0.  1.
         22    1    3    3    0    0 -0.63770520459E+03 -0.15216110960E+03 -0.24160929707E+01  0.65561175152E+03  0.00000000000E+00 0.  1.
</event>
<event>
 7    1  0.5213103E-005  0.1960634E+03  0.7818608E-02  0.1190932E+00
          2   -1    0    0  502    0  0.00000000000E+00  0.00000000000E+00  0.31031428610E+04  0.31031428610E+04  0.00000000000E+00 0. -1.
          1   -1    0    0  501    0 -0.00000000000E+00 -0.00000000000E+00 -0.26672191932E+03  0.26672191932E+03  0.00000000000E+00 0. -1.
         25    2    1    2    0    0  0.24850929898E+03 -0.91493175939E+02  0.16388258814E+04  0.16647830411E+04  0.12499772505E+03 0.  0.
          2    1    1    2  501    0 -0.12384541426E+03 -0.29819715864E+02 -0.23214527830E+03  0.26479866375E+03  0.00000000000E+00 0. -1.
          1    1    1    2  502    0 -0.12466388472E+03  0.12131289180E+03  0.14297403385E+04  0.14402830755E+04  0.00000000000E+00 0. -1.
         22    1    3    3    0    0  0.13049846540E+03  0.12219641544E+02  0.60042552547E+03  0.61456487106E+03  0.00000000000E+00 0.  1.
         22    1    3    3    0    0  0.11801083359E+03 -0.10371281748E+03  0.10384003560E+04  0.10502181700E+04  0.00000000000E+00 0.  1.
</event>
<event>
 7    1  0.5213103E-005  0.4344709E+03  0.7818608E-02  0.1230471E+00
          2   -1    0    0  502    0  0.00000000000E+00  0.00000000000E+00  0.49009585939E+03  0.49009585939E+03  0.00000000000E+00 0. -1.
          1   -1    0    0  501    0 -0.00000000000E+00 -0.00000000000E+00 -0.97959801565E+03  0.97959801565E+03  0.00000000000E+00 0. -1.
         25    2    1    2    0    0  0.84410303835E+02  0.45524945444E+03 -0.26358845855E+03  0.54724856070E+03  0.12499978621E+03 0.  0.
          2    1    1    2  501    0 -0.63388041749E+01 -0.37166754940E+02 -0.44323072878E+03  0.44483145915E+03  0.00000000000E+00 0. -1.
          1    1    1    2  502    0 -0.78071499660E+02 -0.41808269950E+03  0.21731703107E+03  0.47761385519E+03  0.00000000000E+00 0. -1.
         22    1    3    3    0    0  0.77986212197E+02  0.20251700874E+03 -0.67395116980E+02  0.22723795879E+03  0.00000000000E+00 0.  1.
         22    1    3    3    0    0  0.64240916380E+01  0.25273244569E+03 -0.19619334157E+03  0.32001060191E+03  0.00000000000E+00 0.  1.
</event>
<event>
 7    1  0.5213103E-005  0.3779389E+03  0.7818608E-02  0.1096806E+00
          2   -1    0    0  502    0  0.00000000000E+00  0.00000000000E+00  0.24405749038E+04  0.24405749038E+04  0.00000000000E+00 0. -1.
          1   -1    0    0  501    0 -0.00000000000E+00 -0.00000000000E+00 -0.55125122032E+03  0.55125122032E+03  0.00000000000E+00 0. -1.
         25    2    1    2    0    0  0.92508103796E+02 -0.55137125620E+03  0.51362934215E+03  0.76942126290E+03  0.12500386898E+03 0.  0.
          2    1    1    2  501    0 -0.80783968844E+02  0.34727090547E+03 -0.34113086100E+03  0.49345049979E+03  0.00000000000E+00 0. -1.
          1    1    1    2  502    0 -0.11724134952E+02  0.20410035073E+03  0.17168252024E+04  0.17289543615E+04  0.00000000000E+00 0. -1.
         22    1    3    3    0    0  0.10613822830E+03 -0.25551216012E+03  0.24418584394E+03  0.36902373075E+03  0.00000000000E+00 0.  1.
         22    1    3    3    0    0 -0.13630124507E+02 -0.29585909608E+03  0.26944349821E+03  0.40039753215E+03  0.00000000000E+00 0.  1.
</event>
<event>
 7    1  0.5213103E-005  0.6427807E+02  0.7818608E-02  0.1492200E+00
          2   -1    0    0  502    0  0.00000000000E+00  0.00000000000E+00  0.31784663821E+03  0.31784663821E+03  0.00000000000E+00 0. -1.
          1   -1    0    0  501    0 -0.00000000000E+00 -0.00000000000E+00 -0.47798903533E+03  0.47798903533E+03  0.00000000000E+00 0. -1.
         25    2    1    2    0    0 -0.45220308964E+02 -0.10896913381E+01 -0.40110436021E+03  0.42255918582E+03  0.12500197586E+03 0.  0.
          2    1    1    2  501    0 -0.14210093559E+02 -0.23877358397E+02 -0.59664154329E+02  0.65816915111E+02  0.00000000000E+00 0. -1.
          1    1    1    2  502    0  0.59430402523E+02  0.24967049735E+02  0.30062611742E+03  0.30745957261E+03  0.00000000000E+00 0. -1.
         22    1    3    3    0    0 -0.22348662002E+02 -0.62638546909E+02 -0.17915164856E+03  0.19109778501E+03  0.00000000000E+00 0. -1.
         22    1    3    3    0    0 -0.22871646962E+02  0.61548855571E+02 -0.22195271165E+03  0.23146140081E+03  0.00000000000E+00 0. -1.
</event>
<event>
 7    1  0.5213103E-005  0.9237769E+03  0.7818608E-02  0.1079737E+00
          2   -1    0    0  502    0  0.00000000000E+00  0.00000000000E+00  0.26180284546E+04  0.26180284546E+04  0.00000000000E+00 0. -1.
          1   -1    0    0  501    0 -0.00000000000E+00 -0.00000000000E+00 -0.22593839500E+04  0.22593839500E+04  0.00000000000E+00 0. -1.
         25    2    1    2    0    0  0.84058773455E+03  0.38763148962E+03  0.39154762150E+03  0.10128082044E+04  0.12500003092E+03 0.  0.
          2    1    1    2  501    0 -0.50118048597E+02  0.92137923526E+02 -0.18355973228E+04  0.18385915118E+04  0.00000000000E+00 0. -1.
          1    1    1    2  502    0 -0.79046968595E+03 -0.47976941314E+03  0.18026942059E+04  0.20260126885E+04  0.00000000000E+00 0. -1.
         22    1    3    3    0    0  0.61737760547E+03  0.22189797549E+03  0.27666818925E+03  0.71199656333E+03  0.00000000000E+00 0.  1.
         22    1    3    3    0    0  0.22321012908E+03  0.16573351413E+03  0.11487943224E+03  0.30081164104E+03  0.00000000000E+00 0.  1.
</event>
<event>
 7    1  0.5213103E-005  0.3957872E+03  0.7818608E-02  0.1188276E+00
          2   -1    0    0  502    0  0.00000000000E+00  0.00000000000E+00  0.13442333160E+04  0.13442333160E+04  0.00000000000E+00 0. -1.
          1   -1    0    0  501    0 -0.00000000000E+00 -0.00000000000E+00 -0.15308137637E+04  0.15308137637E+04  0.00000000000E+00 0. -1.
         25    2    1    2    0    0  0.13301216857E+02 -0.40997874104E+03  0.10932442077E+04  0.11743366972E+04  0.12499716083E+03 0.  0.
          2    1    1    2  501    0 -0.48994945704E+01  0.64798113466E+02 -0.13473252263E+04  0.13488914211E+04  0.00000000000E+00 0. -1.
          1    1    1    2  502    0 -0.84017222871E+01  0.34518062757E+03  0.67500570870E+02  0.35181896148E+03  0.00000000000E+00 0. -1.
         22    1    3    3    0    0 -0.17991928758E+02 -0.36304874409E+03  0.84679785422E+03  0.92151761025E+03  0.00000000000E+00 0. -1.
         22    1    3    3    0    0  0.31293145615E+02 -0.46929996945E+02  0.24644635350E+03  0.25281908695E+03  0.00000000000E+00 0. -1.
</event>
<event>
 7    1  0.5213103E-005  0.4368121E+03  0.7818608E-02  0.1271929E+00
          2   -1    0    0  502    0  0.00000000000E+00  0.00000000000E+00  0.34879937444E+03  0.34879937444E+03  0.00000000000E+00 0. -1.
          1   -1    0    0  501    0 -0.00000000000E+00 -0.00000000000E+00 -0.13327463057E+04  0.13327463057E+04  0.00000000000E+00 0. -1.
         25    2    1    2    0    0 -0.98590509052E+02 -0.43035358702E+03 -0.42105937625E+03  0.62276787272E+03  0.12499810652E+03 0.  0.
          2    1    1    2  501    0  0.24763659616E+02  0.13896570467E+01 -0.61936241562E+03  0.61985883221E+03  0.00000000000E+00 0. -1.
          1    1    1    2  502    0  0.73826849436E+02  0.42896392997E+03  0.56474860613E+02  0.43891897520E+03  0.00000000000E+00 0. -1.
         22    1    3    3    0    0 -0.68645415588E+02 -0.25992467754E+03 -0.33493062744E+03  0.42947823725E+03  0.00000000000E+00 0.  1.
         22    1    3    3    0    0 -0.29945093464E+02 -0.17042890948E+03 -0.86128748805E+02  0.19328963547E+03  0.00000000000E+00 0.  1.
</event>
<event>
 7    1  0.5213103E-005  0.3542411E+03  0.7818608E-02  0.1170875E+00
          2   -1    0    0  502    0  0.00000000000E+00  0.00000000000E+00  0.16206639725E+04  0.16206639725E+04  0.00000000000E+00 0. -1.
          1   -1    0    0  501    0 -0.00000000000E+00 -0.00000000000E+00 -0.66175604053E+03  0.66175604053E+03  0.00000000000E+00 0. -1.
         25    2    1    2    0    0  0.18221151263E+03 -0.28117518107E+03  0.80466045531E+03  0.88054772716E+03  0.12500133468E+03 0.  0.
          2    1    1    2  501    0  0.87706576670E+02  0.10238759451E+02 -0.57323082983E+03  0.57999212069E+03  0.00000000000E+00 0. -1.
          1    1    1    2  502    0 -0.26991808930E+03  0.27093642162E+03  0.72747830645E+03  0.82188016514E+03  0.00000000000E+00 0. -1.
         22    1    3    3    0    0  0.11865136444E+03 -0.13226216603E+03  0.55703437254E+03  0.58468685553E+03  0.00000000000E+00 0. -1.
         22    1    3    3    0    0  0.63560148191E+02 -0.14891301504E+03  0.24762608278E+03  0.29586087162E+03  0.00000000000E+00 0. -1.
</event>
<event>
 7    1  0.5213103E-005  0.2208506E+03  0.7818608E-02  0.1200619E+00
          2   -1    0    0  502    0  0.00000000000E+00  0.00000000000E+00  0.23169102594E+03  0.23169102594E+03  0.00000000000E+00 0. -1.
          1   -1    0    0  501    0 -0.00000000000E+00 -0.00000000000E+00 -0.71580836944E+03  0.71580836944E+03  0.00000000000E+00 0. -1.
         25    2    1    2    0    0  0.28587813196E+03  0.23810970666E+02 -0.12371737741E+03  0.33648883214E+03  0.12500190409E+03 0.  0.
          2    1    1    2  501    0 -0.95881588557E+02  0.33957539641E+02 -0.39635354248E+03  0.40919741465E+03  0.00000000000E+00 0. -1.
          1    1    1    2  502    0 -0.18999654341E+03 -0.57768510307E+02  0.35953576384E+02  0.20181314859E+03  0.00000000000E+00 0. -1.
         22    1    3    3    0    0  0.19288927762E+03  0.66423264284E+02 -0.11411093908E+03  0.23375121363E+03  0.00000000000E+00 0. -1.
         22    1    3    3    0    0  0.92988854346E+02 -0.42612293619E+02 -0.96064383363E+01  0.10273761851E+03  0.00000000000E+00 0. -1.
</event>
<event>
 7    1  0.5213103E-005  0.7078759E+03  0.7818608E-02  0.1071986E+00
          2   -1    0    0  502    0  0.00000000000E+00  0.00000000000E+00  0.11443575929E+04  0.11443575929E+04  0.00000000000E+00 0. -1.
          1   -1    0    0  501    0 -0.00000000000E+00 -0.00000000000E+00 -0.88035674794E+03  0.88035674794E+03  0.00000000000E+00 0. -1.
         25    2    1    2    0    0  0.58332799183E+03 -0.45069762010E+03 -0.30877772604E+02  0.74831416996E+03  0.12498307607E+03 0.  0.
          2    1    1    2  501    0 -0.62339562463E+03  0.30400791060E+03 -0.22939135711E+03  0.73052262746E+03  0.00000000000E+00 0. -1.
          1    1    1    2  502    0  0.40067632803E+02  0.14668970950E+03  0.52426997462E+03  0.54587754338E+03  0.00000000000E+00 0. -1.
         22    1    3    3    0    0  0.34480346980E+03 -0.28264677507E+03  0.41256420275E+02  0.44775073920E+03  0.00000000000E+00 0.  1.
         22    1    3    3    0    0  0.23852452203E+03 -0.16805084503E+03 -0.72134192879E+02  0.30056343076E+03  0.00000000000E+00 0.  1.
</event>
<event>
 7    1  0.5213103E-005  0.5555028E+03  0.7818608E-02  0.1189576E+00
          2   -1    0    0  502    0  0.00000000000E+00  0.00000000000E+00  0.25091446052E+04  0.25091446052E+04  0.00000000000E+00 0. -1.
          1   -1    0    0  501    0 -0.00000000000E+00 -0.00000000000E+00 -0.14052116995E+03  0.14052116995E+03  0.00000000000E+00 0. -1.
         25    2    1    2    0    0 -0.49360155203E+03 -0.27635938173E+03  0.11153912383E+04  0.12568769605E+04  0.12500031699E+03 0.  0.
          2    1    1    2  501    0  0.37179717098E+02 -0.26467525522E+02  0.36464432138E+02  0.58416744876E+02  0.00000000000E+00 0. -1.
          1    1    1    2  502    0  0.45642183493E+03  0.30282690725E+03  0.12167677648E+04  0.13343720697E+04  0.00000000000E+00 0. -1.
         22    1    3    3    0    0 -0.12254274057E+03 -0.13237918271E+03  0.31535838984E+03  0.36330687487E+03  0.00000000000E+00 0. -1.
         22    1    3    3    0    0 -0.37105881146E+03 -0.14398019902E+03  0.80003284848E+03  0.89357008562E+03  0.00000000000E+00 0. -1.
</event>
<event>
 7    1  0.5213103E-005  0.6959923E+03  0.7818608E-02  0.1150513E+00
          2   -1    0    0  502    0  0.00000000000E+00  0.00000000000E+00  0.15645372308E+04  0.15645372308E+04  0.00000000000E+00 0. -1.
          1   -1    0    0  501    0 -0.00000000000E+00 -0.00000000000E+00 -0.24221782557E+04  0.24221782557E+04  0.00000000000E+00 0. -1.
         25    2    1    2    0    0  0.19618530638E+03  0.69811815436E+03 -0.66200636852E+03  0.98981565871E+03  0.12499989751E+03 0.  0.
          2    1    1    2  501    0 -0.22065628737E+03 -0.64669632759E+03 -0.15225039466E+04  0.16688090378E+04  0.00000000000E+00 0. -1.
          1    1    1    2  502    0  0.24470980996E+02 -0.51421826765E+02  0.13268692902E+04  0.13280907900E+04  0.00000000000E+00 0. -1.
         22    1    3    3    0    0 -0.17831673764E+02  0.41950696559E+02 -0.37469791822E+02  0.59006904936E+02  0.00000000000E+00 0. -1.
         22    1    3    3    0    0  0.21401698014E+03  0.65616745780E+03 -0.62453657670E+03  0.93080875377E+03  0.00000000000E+00 0. -1.
</event>
<event>
 7    1  0.5213103E-005  0.1627455E+04  0.7818608E-02  0.1089565E+00
          2   -1    0    0  502    0  0.00000000000E+00  0.00000000000E+00  0.31993098957E+04  0.31993098957E+04  0.00000000000E+00 0. -1.
          1   -1    0    0  501    0 -0.00000000000E+00 -0.00000000000E+00 -0.29497628977E+04  0.29497628977E+04  0.00000000000E+00 0. -1.
         25    2    1    2    0    0 -0.82648450269E+03  0.13722342465E+04  0.30240451366E+03  0.16349853055E+04  0.12499999637E+03 0.  0.
          2    1    1    2  501    0 -0.50714833744E+02  0.12421561513E+02 -0.19819600943E+04  0.19826477511E+04  0.00000000000E+00 0. -1.
          1    1    1    2  502    0  0.87719933643E+03 -0.13846558080E+04  0.19291025786E+04  0.25314397369E+04  0.00000000000E+00 0. -1.
         22    1    3    3    0    0 -0.20862230610E+03  0.27449293943E+03  0.10135237184E+03  0.35936324753E+03  0.00000000000E+00 0.  1.
         22    1    3    3    0    0 -0.61786219659E+03  0.10977413070E+04  0.20105214182E+03  0.12756220580E+04  0.00000000000E+00 0.  1.
</event>
<event>
 7    1  0.5213103E-005  0.2509458E+03  0.7818608E-02  0.1184924E+00
          2   -1    0    0  502    0  0.00000000000E+00  0.00000000000E+00  0.14134372013E+04  0.14134372013E+04  0.00000000000E+00 0. -1.
          1   -1    0    0  501    0 -0.00000000000E+00 -0.00000000000E+00 -0.20494442411E+04  0.20494442411E+04  0.00000000000E+00 0. -1.
         25    2    1    2    0    0 -0.63272308307E+02  0.34290267598E+03 -0.21542896164E+02  0.37104583085E+03  0.12500112810E+03 0.  0.
          2    1    1    2  501    0  0.68710476938E+02 -0.23666178552E+03 -0.18426476621E+04  0.18590536132E+04  0.00000000000E+00 0. -1.
          1    1    1    2  502    0 -0.54381686312E+01 -0.10624089046E+03  0.12281835184E+04  0.12327819983E+04  0.00000000000E+00 0. -1.
         22    1    3    3    0    0 -0.75012804687E+02  0.94703899724E+02  0.65270087208E+01  0.12098905460E+03  0.00000000000E+00 0. -1.
         22    1    3    3    0    0  0.11740496380E+02  0.24819877625E+03 -0.28069904885E+02  0.25005677625E+03  0.00000000000E+00 0. -1.
</event>
<event>
 7    1  0.5213103E-005  0.1379637E+03  0.7818608E-02  0.1229305E+00
          2   -1    0    0  502    0  0.00000000000E+00  0.00000000000E+00  0.10319471469E+04  0.10319471469E+04  0.00000000000E+00 0. -1.
          1   -1    0    0  501    0 -0.00000000000E+00 -0.00000000000E+00 -0.74200625952E+03  0.74200625952E+03  0.00000000000E+00 0. -1.
         25    2    1    2    0    0 -0.39531320944E+02 -0.24548512421E+03  0.14457655654E+02  0.27867497113E+03  0.12500017672E+03 0.  0.
          2    1    1    2  501    0 -0.17824397955E+01  0.13263650163E+03 -0.59852459490E+03  0.61304755880E+03  0.00000000000E+00 0. -1.
          1    1    1    2  502    0  0.41313760739E+02  0.11284862258E+03  0.87400782660E+03  0.88223087647E+03  0.00000000000E+00 0. -1.
         22    1    3    3    0    0 -0.49684160112E+02 -0.29170159878E+02  0.22798848797E+02  0.61961290334E+02  0.00000000000E+00 0.  1.
         22    1    3    3    0    0  0.10152839169E+02 -0.21631496434E+03 -0.83411931437E+01  0.21671368079E+03  0.00000000000E+00 0.  1.
</event>
<event>
 7    1  0.5213103E-005  0.2194876E+04  0.7818608E-02  0.9951532E-01
          2   -1    0    0  502    0  0.00000000000E+00  0.00000000000E+00  0.45336634375E+04  0.45336634375E+04  0.00000000000E+00 0. -1.
          1   -1    0    0  501    0 -0.00000000000E+00 -0.00000000000E+00 -0.18871036566E+04  0.18871036566E+04  0.00000000000E+00 0. -1.
         25    2    1    2    0    0  0.15153728083E+04 -0.15713801924E+04 -0.18606585504E+03  0.21945011684E+04  0.12499767477E+03 0.  0.
          2    1    1    2  501    0 -0.16442501621E+04  0.14901215998E+04  0.10815173399E+04  0.24685422286E+04  0.00000000000E+00 0. -1.
          1    1    1    2  502    0  0.12887735383E+03  0.81258592539E+02  0.17511082960E+04  0.17577236971E+04  0.00000000000E+00 0. -1.
         22    1    3    3    0    0  0.13787343430E+04 -0.14720411850E+04 -0.18733413408E+03  0.20255635554E+04  0.00000000000E+00 0.  1.
         22    1    3    3    0    0  0.13663846528E+03 -0.99339007346E+02  0.12682790442E+01  0.16893761306E+03  0.00000000000E+00 0.  1.
</event>
<event>
 7    1  0.5213103E-005  0.4718383E+03  0.7818608E-02  0.1153722E+00
          2   -1    0    0  502    0  0.00000000000E+00  0.00000000000E+00  0.21120232242E+04  0.21120232242E+04  0.00000000000E+00 0. -1.
          1   -1    0    0  501    0 -0.00000000000E+00 -0.00000000000E+00 -0.59959765048E+03  0.59959765048E+03  0.00000000000E+00 0. -1.
         25    2    1    2    0    0  0.27487506067E+02 -0.45237540655E+03  0.14059758572E+04  0.14824956005E+04  0.12500409200E+03 0.  0.
          2    1    1    2  501    0 -0.39147180409E+02 -0.70773705052E+02 -0.45470804865E+03  0.46184502657E+03  0.00000000000E+00 0. -1.
          1    1    1    2  502    0  0.11659674341E+02  0.52314911161E+03  0.56115776516E+03  0.76728024761E+03  0.00000000000E+00 0. -1.
         22    1    3    3    0    0 -0.68173420389E+01 -0.42491554462E+03  0.13025346340E+04  0.13701080866E+04  0.00000000000E+00 0. -1.
         22    1    3    3    0    0  0.34304848106E+02 -0.27459861935E+02  0.10344122315E+03  0.11238751384E+03  0.00000000000E+00 0. -1.
</event>
<event>
 7    1  0.5213103E-005  0.5714073E+03  0.7818608E-02  0.1092466E+00
          2   -1    0    0  502    0  0.00000000000E+00  0.00000000000E+00  0.53339868308E+03  0.53339868308E+03  0.00000000000E+00 0. -1.
          1   -1    0    0  501    0 -0.00000000000E+00 -0.00000000000E+00 -0.24674439875E+04  0.24674439875E+04  0.00000000000E+00 0. -1.
         25    2    1    2    0    0  0.45702316161E+03 -0.12908379450E+03 -0.43431662515E+03  0.65558266229E+03  0.12499959984E+03 0.  0.
          2    1    1    2  501    0 -0.60007020471E+03  0.13395815714E+03 -0.18592609172E+04  0.19582850141E+04  0.00000000000E+00 0. -1.
          1    1    1    2  502    0  0.14304704310E+03 -0.48743626425E+01  0.35953223794E+03  0.38697499412E+03  0.00000000000E+00 0. -1.
         22    1    3    3    0    0  0.30401156601E+03 -0.40743633354E+02 -0.32940295766E+03  0.45009930509E+03  0.00000000000E+00 0.  1.
         22    1    3    3    0    0  0.15301159560E+03 -0.88340161147E+02 -0.10491366749E+03  0.20548335720E+03  0.00000000000E+00 0.  1.
</event>
<event>
 7    1  0.5213103E-005  0.8266595E+03  0.7818608E-02  0.1150806E+00
          2   -1    0    0  502    0  0.00000000000E+00  0.00000000000E+00  0.12463385074E+04  0.12463385074E+04  0.00000000000E+00 0. -1.
          1   -1    0    0  501    0 -0.00000000000E+00 -0.00000000000E+00 -0.10679159855E+04  0.10679159855E+04  0.00000000000E+00 0. -1.
         25    2    1    2    0    0 -0.76942690611E+03  0.18994131336E+03  0.33691422003E+03  0.87019065833E+03  0.12500049526E+03 0.  0.
          2    1    1    2  501    0  0.81720334875E+03 -0.19054278450E+03 -0.57986776610E+03  0.10199874961E+04  0.00000000000E+00 0. -1.
          1    1    1    2  502    0 -0.47776442641E+02  0.60147113513E+00  0.42137606799E+03  0.42407633854E+03  0.00000000000E+00 0. -1.
         22    1    3    3    0    0 -0.49849500583E+03  0.17466165748E+03  0.25630712483E+03  0.58710928086E+03  0.00000000000E+00 0. -1.
         22    1    3    3    0    0 -0.27093190028E+03  0.15279655877E+02  0.80607095200E+02  0.28308137747E+03  0.00000000000E+00 0. -1.
</event>
<event>
 7    1  0.5213103E-005  0.2629066E+03  0.7818608E-02  0.1124256E+00
          2   -1    0    0  502    0  0.00000000000E+00  0.00000000000E+00  0.56810006481E+03  0.56810006481E+03  0.00000000000E+00 0. -1.
          1   -1    0    0  501    0 -0.00000000000E+00 -0.00000000000E+00 -0.61139241337E+03  0.61139241337E+03  0.00000000000E+00 0. -1.
         25    2    1    2    0    0  0.64606887966E+01  0.30483744770E+03  0.61832226550E+02  0.33528298273E+03  0.12499537693E+03 0.  0.
          2    1    1    2  501    0  0.17640062016E+03 -0.10876826600E+03 -0.39703080240E+03  0.44786289480E+03  0.00000000000E+00 0. -1.
          1    1    1    2  502    0 -0.18286130896E+03 -0.19606918169E+03  0.29190622728E+03  0.39634660065E+03  0.00000000000E+00 0. -1.
         22    1    3    3    0    0 -0.55337894360E+02  0.17426012885E+03  0.53845321436E+02  0.19059956374E+03  0.00000000000E+00 0. -1.
         22    1    3    3    0    0  0.61798583157E+02  0.13057731885E+03  0.79869051140E+01  0.14468341899E+03  0.00000000000E+00 0. -1.
</event>
<event>
 7    1  0.5213103E-005  0.2490142E+03  0.7818608E-02  0.1353743E+00
          2   -1    0    0  502    0  0.00000000000E+00  0.00000000000E+00  0.22609733966E+04  0.22609733966E+04  0.00000000000E+00 0. -1.
          1   -1    0    0  501    0 -0.00000000000E+00 -0.00000000000E+00 -0.21377341001E+03  0.21377341001E+03  0.00000000000E+00 0. -1.
         25    2    1    2    0    0 -0.15001432833E+03  0.22176806570E+03  0.90395619670E+03  0.95102436169E+03  0.12500062927E+03 0.  0.
          2    1    1    2  501    0  0.14187257349E+03 -0.20266986178E+03 -0.10968813276E+03  0.27061852569E+03  0.00000000000E+00 0. -1.
          1    1    1    2  502    0  0.81417548417E+01 -0.19098203918E+02  0.12529319226E+04  0.12531039192E+04  0.00000000000E+00 0. -1.
         22    1    3    3    0    0 -0.14672282712E+02 -0.15727757494E+02  0.51437084867E+02  0.55753133862E+02  0.00000000000E+00 0. -1.
         22    1    3    3    0    0 -0.13534204562E+03  0.23749582319E+03  0.85251911183E+03  0.89527122783E+03  0.00000000000E+00 0. -1.
</event>
<event>
 7    1  0.5213103E-005  0.2886119E+03  0.7818608E-02  0.1334873E+00
          2   -1    0    0  502    0  0.00000000000E+00  0.00000000000E+00  0.51576809927E+03  0.51576809927E+03  0.00000000000E+00 0. -1.
          1   -1    0    0  501    0 -0.00000000000E+00 -0.00000000000E+00 -0.18329648501E+04  0.18329648501E+04  0.00000000000E+00 0. -1.
         25    2    1    2    0    0  0.14136409551E+03 -0.24832524720E+03 -0.28278583400E+03  0.42100181093E+03  0.12500184398E+03 0.  0.
          2    1    1    2  501    0  0.19450930819E+02  0.81034436874E+01 -0.14342117170E+04  0.14343664990E+04  0.00000000000E+00 0. -1.
          1    1    1    2  502    0 -0.16081502633E+03  0.24022180351E+03  0.39980080016E+03  0.49336463938E+03  0.00000000000E+00 0. -1.
         22    1    3    3    0    0  0.16490457054E+03 -0.21295135552E+03 -0.24709843515E+03  0.36551256320E+03  0.00000000000E+00 0. -1.
         22    1    3    3    0    0 -0.23540475026E+02 -0.35373891681E+02 -0.35687398857E+02  0.55489247736E+02  0.00000000000E+00 0. -1.
</event>
<event>
 7    1  0.5213103E-005  0.2398503E+03  0.7818608E-02  0.1199986E+00
          2   -1    0    0  502    0  0.00000000000E+00  0.00000000000E+00  0.27779665035E+03  0.27779665035E+03  0.00000000000E+00 0. -1.
          1   -1    0    0  501    0 -0.00000000000E+00 -0.00000000000E+00 -0.87902720813E+03  0.87902720813E+03  0.00000000000E+00 0. -1.
         25    2    1    2    0    0 -0.24746490250E+03  0.15923503192E+03 -0.51984185642E+03  0.61029156512E+03  0.12500226161E+03 0.  0.
          2    1    1    2  501    0  0.17046668581E+03 -0.10478453304E+03 -0.26976135099E+03  0.33587181457E+03  0.00000000000E+00 0. -1.
          1    1    1    2  502    0  0.76998216687E+02 -0.54450498880E+02  0.18837264962E+03  0.21066047880E+03  0.00000000000E+00 0. -1.
         22    1    3    3    0    0 -0.21644288065E+03  0.13728271370E+03 -0.33619771398E+03  0.42275639197E+03  0.00000000000E+00 0.  1.
         22    1    3    3    0    0 -0.31022021845E+02  0.21952318222E+02 -0.18364414244E+03  0.18753517315E+03  0.00000000000E+00 0.  1.
</event>
<event>
 7    1  0.5213103E-005  0.1359996E+04  0.7818608E-02  0.1113568E+00
          2   -1    0    0  502    0  0.00000000000E+00  0.00000000000E+00  0.12782203388E+04  0.12782203388E+04  0.00000000000E+00 0. -1.
          1   -1    0    0  501    0 -0.00000000000E+00 -0.00000000000E+00 -0.28160041980E+04  0.28160041980E+04  0.00000000000E+00 0. -1.
         25    2    1    2    0    0  0.66513777912E+03  0.12094701192E+04  0.81847627121E+02  0.13883624362E+04  0.12499994283E+03 0.  0.
          2    1    1    2  501    0 -0.22510685469E+02 -0.39889654852E+02 -0.13420099950E+04  0.13427913994E+04  0.00000000000E+00 0. -1.
          1    1    1    2  502    0 -0.64262709365E+03 -0.11695804643E+04 -0.27762149130E+03  0.13630707012E+04  0.00000000000E+00 0. -1.
         22    1    3    3    0    0  0.27993476423E+03  0.46840392104E+03 -0.25595083479E+02  0.54627906217E+03  0.00000000000E+00 0.  1.
         22    1    3    3    0    0  0.38520301489E+03  0.74106619813E+03  0.10744271060E+03  0.84208337399E+03  0.00000000000E+00 0.  1.
</event>
<event>
 7    1  0.5213103E-005  0.1979885E+03  0.7818608E-02  0.1301540E+00
          2   -1    0    0  502    0  0.00000000000E+00  0.00000000000E+00  0.21745662061E+04  0.21745662061E+04  0.00000000000E+00 0. -1.
          1   -1    0    0  501    0 -0.00000000000E+00 -0.00000000000E+00 -0.83612520792E+02  0.83612520792E+02  0.00000000000E+00 0. -1.
         25    2    1    2    0    0  0.83916536537E+02 -0.21102493362E+03  0.40992143655E+03  0.48502413113E+03  0.12505725060E+03 0.  0.
          2    1    1    2  501    0 -0.66991650221E+02  0.17323458646E+03  0.14259737708E+03  0.23416258261E+03  0.00000000000E+00 0. -1.
          1    1    1    2  502    0 -0.16924886315E+02  0.37790347154E+02  0.15384348716E+04  0.15389920131E+04  0.00000000000E+00 0. -1.
         22    1    3    3    0    0 -0.11064182826E-01 -0.47053817382E+02  0.20127134076E+03  0.20669836590E+03  0.00000000000E+00 0.  1.
         22    1    3    3    0    0  0.83927600719E+02 -0.16397111624E+03  0.20865009578E+03  0.27832576523E+03  0.00000000000E+00 0.  1.
</event>
<event>
 7    1  0.5213103E-005  0.1956227E+03  0.7818608E-02  0.1344531E+00
          2   -1    0    0  502    0  0.00000000000E+00  0.00000000000E+00  0.24859963169E+04  0.24859963169E+04  0.00000000000E+00 0. -1.
          1   -1    0    0  501    0 -0.00000000000E+00 -0.00000000000E+00 -0.52962543321E+02  0.52962543321E+02  0.00000000000E+00 0. -1.
         25    2    1    2    0    0 -0.15315050821E+03  0.13910949047E+03  0.17181996919E+04  0.17351198114E+04  0.12499620035E+03 0.  0.
          2    1    1    2  501    0  0.11194074724E+02 -0.26309138937E+02 -0.27507282495E+02  0.39675290683E+02  0.00000000000E+00 0. -1.
          1    1    1    2  502    0  0.14195643349E+03 -0.11280035153E+03  0.74234136417E+03  0.76416375815E+03  0.00000000000E+00 0. -1.
         22    1    3    3    0    0 -0.13527901424E+03  0.16051261051E+03  0.15979929022E+04  0.16117214478E+04  0.00000000000E+00 0.  1.
         22    1    3    3    0    0 -0.17871493972E+02 -0.21403120037E+02  0.12020678968E+03  0.12339836356E+03  0.00000000000E+00 0.  1.
</event>
<event>
 7    1  0.5213103E-005  0.3257327E+03  0.7818608E-02  0.1176587E+00
          2   -1    0    0  502    0  0.00000000000E+00  0.00000000000E+00  0.13964648070E+03  0.13964648070E+03  0.00000000000E+00 0. -1.
          1   -1    0    0  501    0 -0.00000000000E+00 -0.00000000000E+00 -0.25260917251E+04  0.25260917251E+04  0.00000000000E+00 0. -1.
         25    2    1    2    0    0  0.14984667008E+03 -0.36389136660E+03 -0.40037701255E+03  0.57515004560E+03  0.12499948623E+03 0.  0.
          2    1    1    2  501    0 -0.81108210472E+02  0.30580380124E+03 -0.19746931655E+04  0.19998768973E+04  0.00000000000E+00 0. -1.
          1    1    1    2  502    0 -0.68738459607E+02  0.58087565352E+02 -0.11375066365E+02  0.90711262875E+02  0.00000000000E+00 0. -1.
         22    1    3    3    0    0  0.97921277175E+02 -0.32001307213E+03 -0.27760126703E+03  0.43480962077E+03  0.00000000000E+00 0.  1.
         22    1    3    3    0    0  0.51925392904E+02 -0.43878294463E+02 -0.12277574551E+03  0.14034042482E+03  0.00000000000E+00 0.  1.
</event>
<event>
 7    1  0.5213103E-005  0.1899739E+03  0.7818608E-02  0.1192162E+00
          2   -1    0    0  502    0  0.00000000000E+00  0.00000000000E+00  0.21493875265E+04  0.21493875265E+04  0.00000000000E+00 0. -1.
          1   -1    0    0  501    0 -0.00000000000E+00 -0.00000000000E+00 -0.43298271179E+03  0.43298271179E+03  0.00000000000E+00 0. -1.
         25    2    1    2    0    0 -0.12197552179E+03 -0.26040125053E+03 -0.13251927789E+03  0.34040129755E+03  0.12499938067E+03 0.  0.
          2    1    1    2  501    0  0.53370382808E+02  0.15033370341E+03 -0.16171145065E+03  0.22715460245E+03  0.00000000000E+00 0. -1.
          1    1    1    2  502    0  0.68605138986E+02  0.11006754712E+03  0.20106355432E+04  0.20148143383E+04  0.00000000000E+00 0. -1.
         22    1    3    3    0    0  0.74951512882E+01 -0.24917990297E+02 -0.54793245529E+02  0.60657920249E+02  0.00000000000E+00 0.  1.
         22    1    3    3    0    0 -0.12947067308E+03 -0.23548326023E+03 -0.77726032356E+02  0.27974337730E+03  0.00000000000E+00 0.  1.
</event>
<event>
 7    1  0.5213103E-005  0.3754791E+02  0.7818608E-02  0.1601176E+00
          2   -1    0    0  502    0  0.00000000000E+00  0.00000000000E+00  0.29970008543E+03  0.29970008543E+03  0.00000000000E+00 0. -1.
          1   -1    0    0  501    0 -0.00000000000E+00 -0.00000000000E+00 -0.81286289558E+03  0.81286289558E+03  0.00000000000E+00 0. -1.
         25    2    1    2    0    0 -0.79367311493E+01 -0.22334349912E+02 -0.12465878077E+03  0.17811929049E+03  0.12499942053E+03 0.  0.
          2    1    1    2  501    0  0.31437873681E+02  0.21208564224E+02 -0.66042190324E+03  0.66150981352E+03  0.00000000000E+00 0. -1.
          1    1    1    2  502    0 -0.23501142532E+02  0.11257856886E+01  0.27191787386E+03  0.27293387700E+03  0.00000000000E+00 0. -1.
         22    1    3    3    0    0 -0.64402122905E+02 -0.15326979799E+02 -0.89179369137E+02  0.11106533944E+03  0.00000000000E+00 0.  1.
         22    1    3    3    0    0  0.56465391755E+02 -0.70073701139E+01 -0.35479411636E+02  0.67053951055E+02  0.00000000000E+00 0.  1.
</event>
<event>
 7    1  0.5213103E-005  0.3879914E+03  0.7818608E-02  0.1223676E+00
          2   -1    0    0  502    0  0.00000000000E+00  0.00000000000E+00  0.19038895398E+04  0.19038895398E+04  0.00000000000E+00 0. -1.
          1   -1    0    0  501    0 -0.00000000000E+00 -0.00000000000E+00 -0.59525857682E+03  0.59525857682E+03  0.00000000000E+00 0. -1.
         25    2    1    2    0    0 -0.39009750480E+03 -0.12312466343E+03 -0.21519734239E+03  0.47882127694E+03  0.12499669229E+03 0.  0.
          2    1    1    2  501    0  0.11490583947E+02  0.43822768199E+02 -0.22485332808E+03  0.22937194179E+03  0.00000000000E+00 0. -1.
          1    1    1    2  502    0  0.37860692086E+03  0.79301895227E+02  0.17486816335E+04  0.17909548979E+04  0.00000000000E+00 0. -1.
         22    1    3    3    0    0 -0.31696881404E+02 -0.74392874189E+01 -0.66269172597E+02  0.73835211957E+02  0.00000000000E+00 0.  1.
         22    1    3    3    0    0 -0.35840062340E+03 -0.11568537601E+03 -0.14892816979E+03  0.40498606498E+03  0.00000000000E+00 0.  1.
</event>
<event>
 7    1  0.5213103E-005  0.1196067E+04  0.7818608E-02  0.1044149E+00
          2   -1    0    0  502    0  0.00000000000E+00  0.00000000000E+00  0.18896029643E+04  0.18896029643E+04  0.00000000000E+00 0. -1.
          1   -1    0    0  501    0 -0.00000000000E+00 -0.00000000000E+00 -0.21819380032E+04  0.21819380032E+04  0.00000000000E+00 0. -1.
         25    2    1    2    0    0 -0.11227145637E+04 -0.56666239035E+03 -0.41418301230E+03  0.13299500427E+04  0.12500116875E+03 0.  0.
          2    1    1    2  501    0  0.26397559347E+02  0.13041508681E+03 -0.10619092195E+04  0.10702131173E+04  0.00000000000E+00 0. -1.
          1    1    1    2  502    0  0.10963170043E+04  0.43624730354E+03  0.11837571929E+04  0.16713778076E+04  0.00000000000E+00 0. -1.
         22    1    3    3    0    0 -0.43051755971E+03 -0.28194503576E+03 -0.14671730519E+03  0.53513020850E+03  0.00000000000E+00 0.  1.
         22    1    3    3    0    0 -0.69219700398E+03 -0.28471735458E+03 -0.26746570711E+03  0.79481983418E+03  0.00000000000E+00 0.  1.
</event>
<event>
 7    1  0.5213103E-005  0.7168842E+03  0.7818608E-02  0.1073612E+00
          2   -1    0    0  502    0  0.00000000000E+00  0.00000000000E+00  0.30202974667E+04  0.30202974667E+04  0.00000000000E+00 0. -1.
          1   -1    0    0  501    0 -0.00000000000E+00 -0.00000000000E+00 -0.18670607010E+04  0.18670607010E+04  0.00000000000E+00 0. -1.
         25    2    1    2    0    0 -0.78841794047E+02 -0.79551627511E+03  0.60921872989E+02  0.81141800451E+03  0.12500212396E+03 0.  0.
          2    1    1    2  501    0 -0.34169901615E+02  0.70173428382E+03 -0.14068194569E+04  0.15724946968E+04  0.00000000000E+00 0. -1.
          1    1    1    2  502    0  0.11301169566E+03  0.93781991284E+02  0.24991343497E+04  0.25034454663E+04  0.00000000000E+00 0. -1.
         22    1    3    3    0    0 -0.44064044665E+02 -0.67563357622E+03  0.90625733303E+02  0.68310716061E+03  0.00000000000E+00 0. -1.
         22    1    3    3    0    0 -0.34777749382E+02 -0.11988269889E+03 -0.29703860314E+02  0.12831084390E+03  0.00000000000E+00 0. -1.
</event>
<event>
 7    1  0.7996126E-005  0.1503156E+04  0.7818608E-02  0.1076682E+00
          2   -1    0    0  502    0  0.00000000000E+00  0.00000000000E+00  0.26080906652E+04  0.26080906652E+04  0.00000000000E+00 0. -1.
          1   -1    0    0  501    0 -0.00000000000E+00 -0.00000000000E+00 -0.21028995151E+04  0.21028995151E+04  0.00000000000E+00 0. -1.
         25    2    1    2    0    0 -0.85517595078E+02  0.14914943086E+04 -0.74946117578E+03  0.16760623247E+04  0.12499732208E+03 0.  0.
          2    1    1    2  501    0  0.15028439367E+03 -0.15093232598E+04 -0.24268983922E+03  0.15360795746E+04  0.00000000000E+00 0. -1.
          1    1    1    2  502    0 -0.64766798596E+02  0.17828951200E+02  0.14973421651E+04  0.14988482809E+04  0.00000000000E+00 0. -1.
         22    1    3    3    0    0 -0.10826352457E+03  0.13473614394E+04 -0.69840867569E+03  0.15214724833E+04  0.00000000000E+00 0. -1.
         22    1    3    3    0    0  0.22745929491E+02  0.14413286921E+03 -0.51052500087E+02  0.15458984139E+03  0.00000000000E+00 0. -1.
</event>
<event>
 7    1  0.5213103E-005  0.6064492E+02  0.7818608E-02  0.1395550E+00
          2   -1    0    0  502    0  0.00000000000E+00  0.00000000000E+00  0.28617712921E+04  0.28617712921E+04  0.00000000000E+00 0. -1.
          1   -1    0    0  501    0 -0.00000000000E+00 -0.00000000000E+00 -0.16031055321E+02  0.16031055321E+02  0.00000000000E+00 0. -1.
         25    2    1    2    0    0  0.42252080564E+00 -0.11662782532E+02  0.64834567929E+03  0.66038900264E+03  0.12500126370E+03 0.  0.
          2    1    1    2  501    0  0.29477466366E+02  0.64199622382E+02  0.12080499315E+03  0.13994412780E+03  0.00000000000E+00 0. -1.
          1    1    1    2  502    0 -0.29899987172E+02 -0.52536839849E+02  0.20765895644E+04  0.20774692170E+04  0.00000000000E+00 0. -1.
         22    1    3    3    0    0 -0.16059467068E+02  0.42229286033E+02  0.10740504487E+03  0.11652065373E+03  0.00000000000E+00 0. -1.
         22    1    3    3    0    0  0.16481987873E+02 -0.53892068565E+02  0.54094063442E+03  0.54386834891E+03  0.00000000000E+00 0. -1.
</event>
<event>
 7    1  0.5213103E-005  0.5848808E+03  0.7818608E-02  0.1105504E+00
          2   -1    0    0  502    0  0.00000000000E+00  0.00000000000E+00  0.35633173270E+04  0.35633173270E+04  0.00000000000E+00 0. -1.
          1   -1    0    0  501    0 -0.00000000000E+00 -0.00000000000E+00 -0.71540690867E+03  0.71540690867E+03  0.00000000000E+00 0. -1.
         25    2    1    2    0    0 -0.57977323964E+03 -0.18042096503E+03 -0.18740358173E+03  0.64763723125E+03  0.12500058734E+03 0.  0.
          2    1    1    2  501    0  0.56077980282E+03  0.63924270711E+02 -0.28375772439E+02  0.56512430854E+03  0.00000000000E+00 0. -1.
          1    1    1    2  502    0  0.18993436815E+02  0.11649669432E+03  0.30636897725E+04  0.30659626958E+04  0.00000000000E+00 0. -1.
         22    1    3    3    0    0 -0.50949797802E+03 -0.12617698641E+03 -0.19159241264E+03  0.55876334354E+03  0.00000000000E+00 0. -1.
         22    1    3    3    0    0 -0.70275261616E+02 -0.54243978620E+02  0.41888309117E+01  0.88873887706E+02  0.00000000000E+00 0. -1.
</event>
<event>
 7    1  0.5213103E-005  0.2471057E+03  0.7818608E-02  0.1350945E+00
          2   -1    0    0  502    0  0.00000000000E+00  0.00000000000E+00  0.63466731821E+03  0.63466731821E+03  0.00000000000E+00 0. -1.
          1   -1    0    0  501    0 -0.00000000000E+00 -0.00000000000E+00 -0.12233740941E+04  0.12233740941E+04  0.00000000000E+00 0. -1.
         25    2    1    2    0    0 -0.18427860461E+03 -0.17327887545E+03 -0.10434278293E+01  0.28215314517E+03  0.12500054318E+03 0.  0.
          2    1    1    2  501    0  0.19287574353E+03  0.15365417306E+03 -0.10674802125E+04  0.10955932920E+04  0.00000000000E+00 0. -1.
          1    1    1    2  502    0 -0.85971389208E+01  0.19624702393E+02  0.47981686446E+03  0.48029497515E+03  0.00000000000E+00 0. -1.
         22    1    3    3    0    0 -0.97329901023E+02 -0.43807195562E+02 -0.51130745914E+02  0.11834920023E+03  0.00000000000E+00 0.  1.
         22    1    3    3    0    0 -0.86948703586E+02 -0.12947167989E+03  0.50087318084E+02  0.16380394495E+03  0.00000000000E+00 0.  1.
</event>
<event>
 7    1  0.5213103E-005  0.3856308E+03  0.7818608E-02  0.1186548E+00
          2   -1    0    0  502    0  0.00000000000E+00  0.00000000000E+00  0.87516301546E+03  0.87516301546E+03  0.00000000000E+00 0. -1.
          1   -1    0    0  501    0 -0.00000000000E+00 -0.00000000000E+00 -0.21240372520E+04  0.21240372520E+04  0.00000000000E+00 0. -1.
         25    2    1    2    0    0  0.12398402850E+03 -0.30929416565E+03 -0.70098180066E+02  0.36273088352E+03  0.12500007514E+03 0.  0.
          2    1    1    2  501    0  0.41947684828E+02 -0.53502696890E+02 -0.18523610117E+04  0.18536082284E+04  0.00000000000E+00 0. -1.
          1    1    1    2  502    0 -0.16593171333E+03  0.36279686254E+03  0.67358495521E+03  0.78286115553E+03  0.00000000000E+00 0. -1.
         22    1    3    3    0    0  0.85026445350E+02 -0.19240751233E+03  0.18210455950E+02  0.21114395069E+03  0.00000000000E+00 0. -1.
         22    1    3    3    0    0  0.38957583147E+02 -0.11688665332E+03 -0.88308636015E+02  0.15158693283E+03  0.00000000000E+00 0. -1.
</event>
<event>
 7    1  0.5213103E-005  0.4370880E+03  0.7818608E-02  0.1056319E+00
          2   -1    0    0  502    0  0.00000000000E+00  0.00000000000E+00  0.15915563244E+04  0.15915563244E+04  0.00000000000E+00 0. -1.
          1   -1    0    0  501    0 -0.00000000000E+00 -0.00000000000E+00 -0.74050091608E+03  0.74050091608E+03  0.00000000000E+00 0. -1.
         25    2    1    2    0    0  0.15428580382E+03 -0.58708269706E+03 -0.23625194856E+03  0.66325637630E+03  0.12499534014E+03 0.  0.
          2    1    1    2  501    0 -0.25444170664E+03  0.17017197393E+03 -0.16315498876E+03  0.34686976395E+03  0.00000000000E+00 0. -1.
          1    1    1    2  502    0  0.10015590282E+03  0.41691072313E+03  0.12504623457E+04  0.13219311003E+04  0.00000000000E+00 0. -1.
         22    1    3    3    0    0  0.13965143699E+03 -0.33377409805E+03 -0.17658623871E+03  0.40260448592E+03  0.00000000000E+00 0. -1.
         22    1    3    3    0    0  0.14634366824E+02 -0.25330859901E+03 -0.59665709846E+02  0.26065189038E+03  0.00000000000E+00 0. -1.
</event>
<event>
 7    1  0.5213103E-005  0.7726479E+03  0.7818608E-02  0.1198943E+00
          2   -1    0    0  502    0  0.00000000000E+00  0.00000000000E+00  0.10717561034E+04  0.10717561034E+04  0.00000000000E+00 0. -1.
          1   -1    0    0  501    0 -0.00000000000E+00 -0.00000000000E+00 -0.12810756790E+04  0.12810756790E+04  0.00000000000E+00 0. -1.
         25    2    1    2    0    0  0.60144376390E+02 -0.78027947581E+03 -0.38252519019E+03  0.88000212075E+03  0.12499922001E+03 0.  0.
          2    1    1    2  501    0 -0.81233286670E+02  0.75949656977E+03 -0.42485664242E+03  0.87403492663E+03  0.00000000000E+00 0. -1.
          1    1    1    2  502    0  0.21088910280E+02  0.20782906041E+02  0.59806225703E+03  0.59879473495E+03  0.00000000000E+00 0. -1.
         22    1    3    3    0    0  0.85000315585E+02 -0.74195637362E+03 -0.35878973661E+03  0.82852543057E+03  0.00000000000E+00 0.  1.
         22    1    3    3    0    0 -0.24855939195E+02 -0.38323102196E+02 -0.23735453582E+02  0.51476690181E+02  0.00000000000E+00 0.  1.
</event>
<event>
 7    1  0.5213103E-005  0.6271110E+03  0.7818608E-02  0.1103328E+00
          2   -1    0    0  502    0  0.00000000000E+00  0.00000000000E+00  0.34330578979E+04  0.34330578979E+04  0.00000000000E+00 0. -1.
          1   -1    0    0  501    0 -0.00000000000E+00 -0.00000000000E+00 -0.57381717826E+03  0.57381717826E+03  0.00000000000E+00 0. -1.
         25    2    1    2    0    0 -0.64745534895E+03  0.16267734931E+02  0.28358379387E+04  0.29115399866E+04  0.12500084296E+03 0.  0.
          2    1    1    2  501    0  0.98165587536E+02  0.56396407686E+02 -0.38867189971E+03  0.40482450890E+03  0.00000000000E+00 0. -1.
          1    1    1    2  502    0  0.54928976142E+03 -0.72664142616E+02  0.41207468063E+03  0.69051058068E+03  0.00000000000E+00 0. -1.
         22    1    3    3    0    0 -0.27979668888E+03 -0.18082175237E+02  0.14796284406E+04  0.15059593203E+04  0.00000000000E+00 0. -1.
         22    1    3    3    0    0 -0.36765866008E+03  0.34349910168E+02  0.13562094982E+04  0.14055806663E+04  0.00000000000E+00 0. -1.
</event>
<event>
 7    1  0.5213103E-005  0.4666132E+03  0.7818608E-02  0.1128195E+00
          2   -1    0    0  502    0  0.00000000000E+00  0.00000000000E+00  0.31931002894E+04  0.31931002894E+04  0.00000000000E+00 0. -1.
          1   -1    0    0  501    0 -0.00000000000E+00 -0.00000000000E+00 -0.14367368422E+04  0.14367368422E+04  0.00000000000E+00 0. -1.
         25    2    1    2    0    0 -0.14041019912E+02 -0.49489627662E+03  0.26241447619E+04  0.26733648735E+04  0.12499816382E+03 0.  0.
          2    1    1    2  501    0  0.26801479870E+02  0.10793814551E+03 -0.13406879625E+04  0.13452929701E+04  0.00000000000E+00 0. -1.
          1    1    1    2  502    0 -0.12760459957E+02  0.38695813110E+03  0.47290664783E+03  0.61117928804E+03  0.00000000000E+00 0. -1.
         22    1    3    3    0    0 -0.51946860079E+02 -0.44135696880E+03  0.23286544207E+04  0.23706804638E+04  0.00000000000E+00 0. -1.
         22    1    3    3    0    0  0.37905840167E+02 -0.53539307818E+02  0.29549034115E+03  0.30268440976E+03  0.00000000000E+00 0. -1.
</event>
<event>
 7    1  0.5213103E-005  0.4189497E+03  0.7818608E-02  0.1110662E+00
          2   -1    0    0  502    0  0.00000000000E+00  0.00000000000E+00  0.49347780562E+03  0.49347780562E+03  0.00000000000E+00 0. -1.
          1   -1    0    0  501    0 -0.00000000000E+00 -0.00000000000E+00 -0.16387291681E+04  0.16387291681E+04  0.00000000000E+00 0. -1.
         25    2    1    2    0    0 -0.40471565362E+02  0.31689156832E+03 -0.95450902847E+03  0.10142837374E+04  0.12500320327E+03 0.  0.
          2    1    1    2  501    0 -0.13375939671E+03  0.76863079754E+02 -0.54119340505E+03  0.56275199769E+03  0.00000000000E+00 0. -1.
          1    1    1    2  502    0  0.17423096207E+03 -0.39375464807E+03  0.35045107104E+03  0.55517123864E+03  0.00000000000E+00 0. -1.
         22    1    3    3    0    0 -0.75536555708E+02  0.24136455756E+03 -0.62073649765E+03  0.67028085189E+03  0.00000000000E+00 0.  1.
         22    1    3    3    0    0  0.35064990346E+02  0.75527010757E+02 -0.33377253082E+03  0.34400288550E+03  0.00000000000E+00 0.  1.
</event>
<event>
 7    1  0.5213103E-005  0.2657270E+03  0.7818608E-02  0.1154147E+00
          2   -1    0    0  502    0  0.00000000000E+00  0.00000000000E+00  0.11163926050E+04  0.11163926050E+04  0.00000000000E+00 0. -1.
          1   -1    0    0  501    0 -0.00000000000E+00 -0.00000000000E+00 -0.14792834220E+04  0.14792834220E+04  0.00000000000E+00 0. -1.
         25    2    1    2    0    0  0.10622978623E+03  0.34435817205E+03 -0.30764548069E+03  0.49003925103E+03  0.12500163048E+03 0.  0.
          2    1    1    2  501    0 -0.14506586635E+03 -0.20684022428E+03 -0.10605504096E+04  0.10902266532E+04  0.00000000000E+00 0. -1.
          1    1    1    2  502    0  0.38836080119E+02 -0.13751794778E+03  0.10053050733E+04  0.10154101228E+04  0.00000000000E+00 0. -1.
         22    1    3    3    0    0  0.57675179990E+02  0.27950755531E+03 -0.29049118060E+03  0.40722969669E+03  0.00000000000E+00 0. -1.
         22    1    3    3    0    0  0.48554606239E+02  0.64850616743E+02 -0.17154300098E+02  0.82809554345E+02  0.00000000000E+00 0. -1.
</event>
<event>
 7    1  0.5213103E-005  0.4415960E+03  0.7818608E-02  0.1225884E+00
          2   -1    0    0  502    0  0.00000000000E+00  0.00000000000E+00  0.11210715601E+04  0.11210715601E+04  0.00000000000E+00 0. -1.
          1   -1    0    0  501    0 -0.00000000000E+00 -0.00000000000E+00 -0.11095306184E+04  0.11095306184E+04  0.00000000000E+00 0. -1.
         25    2    1    2    0    0 -0.12573163155E+03 -0.44348885494E+03  0.45910923958E+02  0.47981706789E+03  0.12500319224E+03 0.  0.
          2    1    1    2  501    0  0.89831275267E+02  0.42851041560E+03 -0.83838876647E+03  0.94582586032E+03  0.00000000000E+00 0. -1.
          1    1    1    2  502    0  0.35900356284E+02  0.14978439345E+02  0.80401878419E+03  0.80495925025E+03  0.00000000000E+00 0. -1.
         22    1    3    3    0    0 -0.10922258213E+03 -0.34265742349E+03 -0.16618990497E+02  0.36002760056E+03  0.00000000000E+00 0.  1.
         22    1    3    3    0    0 -0.16509049419E+02 -0.10083143145E+03  0.62529914455E+02  0.11978946733E+03  0.00000000000E+00 0.  1.
</event>
<event>
 7    1  0.5213103E-005  0.1339865E+03  0.7818608E-02  0.1292385E+00
          2   -1    0    0  502    0  0.00000000000E+00  0.00000000000E+00  0.88798382366E+03  0.88798382366E+03  0.00000000000E+00 0. -1.
          1   -1    0    0  501    0 -0.00000000000E+00 -0.00000000000E+00 -0.64075289325E+03  0.64075289325E+03  0.00000000000E+00 0. -1.
         25    2    1    2    0    0  0.16058859657E+03  0.59427896043E+02  0.17395016567E+03  0.27423220831E+03  0.12499708701E+03 0.  0.
          2    1    1    2  501    0 -0.61568824174E+02  0.25397799602E+02 -0.58229350921E+03  0.58609000948E+03  0.00000000000E+00 0. -1.
          1    1    1    2  502    0 -0.99019772398E+02 -0.84825695645E+02  0.65557427396E+03  0.66841449913E+03  0.00000000000E+00 0. -1.
         22    1    3    3    0    0  0.16306396161E+03  0.26637705298E+02  0.99572363522E+02  0.19290950857E+03  0.00000000000E+00 0.  1.
         22    1    3    3    0    0 -0.24753650347E+01  0.32790190745E+02  0.74377802147E+02  0.81322699742E+02  0.00000000000E+00 0.  1.
</event>
<event>
 7    1  0.5213103E-005  0.5918545E+03  0.7818608E-02  0.1125125E+00
          2   -1    0    0  502    0  0.00000000000E+00  0.00000000000E+00  0.31597322413E+04  0.31597322413E+04  0.00000000000E+00 0. -1.
          1   -1    0    0  501    0 -0.00000000000E+00 -0.00000000000E+00 -0.73675717071E+03  0.73675717071E+03  0.00000000000E+00 0. -1.
         25    2    1    2    0    0 -0.38530709423E+03  0.55412113066E+03 -0.11487974397E+02  0.68649210733E+03  0.12501062180E+03 0.  0.
          2    1    1    2  501    0  0.42405590474E+02 -0.80595969079E+02 -0.35162547270E+03  0.36322777618E+03  0.00000000000E+00 0. -1.
          1    1    1    2  502    0  0.34290150375E+03 -0.47352516158E+03  0.27860885177E+04  0.28467695285E+04  0.00000000000E+00 0. -1.
         22    1    3    3    0    0 -0.80219297248E+02  0.17200709047E+03 -0.49215608238E+02  0.19607078037E+03  0.00000000000E+00 0.  1.
         22    1    3    3    0    0 -0.30508779698E+03  0.38211404020E+03  0.37727633841E+02  0.49042132696E+03  0.00000000000E+00 0.  1.
</event>
<event>
 7    1  0.5213103E-005  0.6051200E+03  0.7818608E-02  0.1153570E+00
          2   -1    0    0  502    0  0.00000000000E+00  0.00000000000E+00  0.23118114968E+04  0.23118114968E+04  0.00000000000E+00 0. -1.
          1   -1    0    0  501    0 -0.00000000000E+00 -0.00000000000E+00 -0.48815904117E+03  0.48815904117E+03  0.00000000000E+00 0. -1.
         25    2    1    2    0    0  0.10098753942E+03 -0.60515754086E+03  0.18005713364E+04  0.19063311355E+04  0.12500851184E+03 0.  0.
          2    1    1    2  501    0  0.43473585192E+02  0.45842044694E+02 -0.24771723601E+03  0.25564677719E+03  0.00000000000E+00 0. -1.
          1    1    1    2  502    0 -0.14446112461E+03  0.55931549616E+03  0.27079835520E+03  0.63799262531E+03  0.00000000000E+00 0. -1.
         22    1    3    3    0    0  0.58031928778E+02 -0.88444047241E+02  0.36372685774E+03  0.37879715058E+03  0.00000000000E+00 0.  1.
         22    1    3    3    0    0  0.42955610637E+02 -0.51671349362E+03  0.14368444787E+04  0.15275339849E+04  0.00000000000E+00 0.  1.
</event>
<event>
 7    1  0.5213103E-005  0.6245102E+03  0.7818608E-02  0.1205556E+00
          2   -1    0    0  502    0  0.00000000000E+00  0.00000000000E+00  0.35817268131E+04  0.35817268131E+04  0.00000000000E+00 0. -1.
          1   -1    0    0  501    0 -0.00000000000E+00 -0.00000000000E+00 -0.28231300221E+03  0.28231300221E+03  0.00000000000E+00 0. -1.
         25    2    1    2    0    0  0.32591949072E+03 -0.50112415112E+03  0.58137947453E+03  0.84319507825E+03  0.12500766902E+03 0.  0.
          2    1    1    2  501    0  0.14711536814E+02 -0.30766683025E+02 -0.11412431392E+03  0.11911077670E+03  0.00000000000E+00 0. -1.
          1    1    1    2  502    0 -0.34063102753E+03  0.53189083414E+03  0.28321586503E+04  0.29017339603E+04  0.00000000000E+00 0. -1.
         22    1    3    3    0    0  0.33691291257E+03 -0.48222596991E+03  0.56696599714E+03  0.81700834673E+03  0.00000000000E+00 0.  1.
         22    1    3    3    0    0 -0.10993421856E+02 -0.18898181213E+02  0.14413477389E+02  0.26186731520E+02  0.00000000000E+00 0.  1.
</event>
<event>
 7    1  0.5213103E-005  0.6931069E+03  0.7818608E-02  0.1135837E+00
          2   -1    0    0  502    0  0.00000000000E+00  0.00000000000E+00  0.13244641808E+04  0.13244641808E+04  0.00000000000E+00 0. -1.
          1   -1    0    0  501    0 -0.00000000000E+00 -0.00000000000E+00 -0.22201939558E+04  0.22201939558E+04  0.00000000000E+00 0. -1.
         25    2    1    2    0    0 -0.13430577605E+03 -0.71260518903E+03 -0.22072255269E+03  0.76823714425E+03  0.12500267047E+03 0.  0.
          2    1    1    2  501    0  0.73565034402E+02  0.68161608739E+03 -0.16563947982E+04  0.17926672955E+04  0.00000000000E+00 0. -1.
          1    1    1    2  502    0  0.60740741646E+02  0.30989101635E+02  0.98138757587E+03  0.98375369691E+03  0.00000000000E+00 0. -1.
         22    1    3    3    0    0 -0.49734212737E+02 -0.66044445676E+02 -0.38402294177E+02  0.91159732992E+02  0.00000000000E+00 0.  1.
         22    1    3    3    0    0 -0.84571563311E+02 -0.64656074335E+03 -0.18232025851E+03  0.67707741125E+03  0.00000000000E+00 0.  1.
</event>
<event>
 7    1  0.5213103E-005  0.4889095E+03  0.7818608E-02  0.1052880E+00
          2   -1    0    0  502    0  0.00000000000E+00  0.00000000000E+00  0.40953935892E+03  0.40953935892E+03  0.00000000000E+00 0. -1.
          1   -1    0    0  501    0 -0.00000000000E+00 -0.00000000000E+00 -0.21704249406E+04  0.21704249406E+04  0.00000000000E+00 0. -1.
         25    2    1    2    0    0 -0.72816838093E+03 -0.10195960584E+03 -0.12349904144E+04  0.14427232987E+04  0.12499696324E+03 0.  0.
          2    1    1    2  501    0  0.28716592685E+03 -0.85201386815E+01 -0.61057824930E+03  0.67479082746E+03  0.00000000000E+00 0. -1.
          1    1    1    2  502    0  0.44100245409E+03  0.11047974453E+03  0.84683082000E+02  0.46245017336E+03  0.00000000000E+00 0. -1.
         22    1    3    3    0    0 -0.19899693783E+03 -0.63640812647E+02 -0.26879520782E+03  0.34044206269E+03  0.00000000000E+00 0.  1.
         22    1    3    3    0    0 -0.52917144310E+03 -0.38318793197E+02 -0.96619520660E+03  0.11022812361E+04  0.00000000000E+00 0.  1.
</event>
<event>
 7    1  0.5213103E-005  0.4013621E+03  0.7818608E-02  0.1111161E+00
          2   -1    0    0  502    0  0.00000000000E+00  0.00000000000E+00  0.38627612652E+03  0.38627612652E+03  0.00000000000E+00 0. -1.
          1   -1    0    0  501    0 -0.00000000000E+00 -0.00000000000E+00 -0.24019737062E+04  0.24019737062E+04  0.00000000000E+00 0. -1.
         25    2    1    2    0    0  0.42023024329E+03  0.56601353767E+02 -0.24272958985E+03  0.50432121518E+03  0.12500025470E+03 0.  0.
          2    1    1    2  501    0 -0.72332332969E+02  0.14273097248E+03 -0.18655681368E+04  0.18724178406E+04  0.00000000000E+00 0. -1.
          1    1    1    2  502    0 -0.34789791032E+03 -0.19933232625E+03  0.92600146952E+02  0.41151077690E+03  0.00000000000E+00 0. -1.
         22    1    3    3    0    0  0.22202281083E+02  0.25750651472E+02  0.51728714840E+01  0.34391800417E+02  0.00000000000E+00 0. -1.
         22    1    3    3    0    0  0.39802796221E+03  0.30850702295E+02 -0.24790246133E+03  0.46992941477E+03  0.00000000000E+00 0. -1.
</event>
<event>
 7    1  0.5213103E-005  0.4817475E+03  0.7818608E-02  0.1156185E+00
          2   -1    0    0  502    0  0.00000000000E+00  0.00000000000E+00  0.23676546617E+04  0.23676546617E+04  0.00000000000E+00 0. -1.
          1   -1    0    0  501    0 -0.00000000000E+00 -0.00000000000E+00 -0.15512148255E+04  0.15512148255E+04  0.00000000000E+00 0. -1.
         25    2    1    2    0    0  0.11781239832E+03 -0.48063450770E+03  0.19794356913E+04  0.20441813333E+04  0.12498950512E+03 0.  0.
          2    1    1    2  501    0  0.22165140358E+02  0.73695741379E+02 -0.13872770668E+04  0.13894099524E+04  0.00000000000E+00 0. -1.
          1    1    1    2  502    0 -0.13997753868E+03  0.40693876632E+03  0.22428121178E+03  0.48527820147E+03  0.00000000000E+00 0. -1.
         22    1    3    3    0    0  0.16096979888E+02 -0.85574530215E+02  0.19259706200E+03  0.21136636741E+03  0.00000000000E+00 0.  1.
         22    1    3    3    0    0  0.10171541843E+03 -0.39505997748E+03  0.17868386293E+04  0.18328149659E+04  0.00000000000E+00 0.  1.
</event>
<event>
 7    1  0.5213103E-005  0.1118675E+04  0.7818608E-02  0.1100496E+00
          2   -1    0    0  502    0  0.00000000000E+00  0.00000000000E+00  0.95958481830E+03  0.95958481830E+03  0.00000000000E+00 0. -1.
          1   -1    0    0  501    0 -0.00000000000E+00 -0.00000000000E+00 -0.31107855886E+04  0.31107855886E+04  0.00000000000E+00 0. -1.
         25    2    1    2    0    0  0.94883965643E+03 -0.64719420252E+03 -0.10081884269E+04  0.15333703469E+04  0.12499474867E+03 0.  0.
          2    1    1    2  501    0 -0.93294283078E+03  0.58331104561E+03 -0.16733009738E+04  0.20026408191E+04  0.00000000000E+00 0. -1.
          1    1    1    2  502    0 -0.15896825642E+02  0.63883156911E+02  0.53028863040E+03  0.53435924090E+03  0.00000000000E+00 0. -1.
         22    1    3    3    0    0  0.41476794587E+03 -0.34096482971E+03 -0.52271217839E+03  0.74934470403E+03  0.00000000000E+00 0. -1.
         22    1    3    3    0    0  0.53407171056E+03 -0.30622937281E+03 -0.48547624848E+03  0.78402564284E+03  0.00000000000E+00 0. -1.
</event>
<event>
 7    1  0.5213103E-005  0.7543584E+03  0.7818608E-02  0.1081823E+00
          2   -1    0    0  502    0  0.00000000000E+00  0.00000000000E+00  0.23406144056E+04  0.23406144056E+04  0.00000000000E+00 0. -1.
          1   -1    0    0  501    0 -0.00000000000E+00 -0.00000000000E+00 -0.17530621491E+04  0.17530621491E+04  0.00000000000E+00 0. -1.
         25    2    1    2    0    0 -0.83520147559E+03  0.16288400736E+03  0.64479163937E+03  0.10749296422E+04  0.12499909125E+03 0.  0.
          2    1    1    2  501    0  0.73994677831E+03 -0.82115192541E+02 -0.14449289936E+04  0.16254488415E+04  0.00000000000E+00 0. -1.
          1    1    1    2  502    0  0.95254697282E+02 -0.80768814817E+02  0.13876896108E+04  0.13932980710E+04  0.00000000000E+00 0. -1.
         22    1    3    3    0    0 -0.11777816662E+03 -0.96987378322E+01  0.12708827225E+03  0.17354305227E+03  0.00000000000E+00 0. -1.
         22    1    3    3    0    0 -0.71742330897E+03  0.17258274519E+03  0.51770336712E+03  0.90138658994E+03  0.00000000000E+00 0. -1.
</event>
<event>
 7    1  0.5213103E-005  0.4016356E+03  0.7818608E-02  0.1123007E+00
          2   -1    0    0  502    0  0.00000000000E+00  0.00000000000E+00  0.32937535342E+03  0.32937535342E+03  0.00000000000E+00 0. -1.
          1   -1    0    0  501    0 -0.00000000000E+00 -0.00000000000E+00 -0.20848848315E+04  0.20848848315E+04  0.00000000000E+00 0. -1.
         25    2    1    2    0    0 -0.51983627777E+02 -0.42130359339E+03  0.12461356851E+03  0.45973065753E+03  0.12499888263E+03 0.  0.
          2    1    1    2  501    0 -0.48669712694E+02  0.12889492110E+03 -0.11941461535E+04  0.12020680836E+04  0.00000000000E+00 0. -1.
          1    1    1    2  502    0  0.10065334047E+03  0.29240867229E+03 -0.68597689308E+03  0.75246144380E+03  0.00000000000E+00 0. -1.
         22    1    3    3    0    0 -0.16283671341E+02 -0.25619394071E+03  0.12556381029E+02  0.25701781245E+03  0.00000000000E+00 0.  1.
         22    1    3    3    0    0 -0.35699956436E+02 -0.16510965267E+03  0.11205718748E+03  0.20271284508E+03  0.00000000000E+00 0.  1.
</event>
<event>
 7    1  0.5213103E-005  0.5001053E+02  0.7818608E-02  0.1541363E+00
          2   -1    0    0  502    0  0.00000000000E+00  0.00000000000E+00  0.67352404449E+03  0.67352404449E+03  0.00000000000E+00 0. -1.
          1   -1    0    0  501    0 -0.00000000000E+00 -0.00000000000E+00 -0.47513714809E+02  0.47513714809E+02  0.00000000000E+00 0. -1.
         25    2    1    2    0    0  0.19455906698E+02  0.57115249701E+02  0.31344091160E+03  0.34279790913E+03  0.12499806954E+03 0.  0.
          2    1    1    2  501    0 -0.34181641998E+02 -0.36091012549E+02 -0.13223433966E+02  0.51437389537E+02  0.00000000000E+00 0. -1.
          1    1    1    2  502    0  0.14725735300E+02 -0.21024237152E+02  0.32579285204E+03  0.32680246063E+03  0.00000000000E+00 0. -1.
         22    1    3    3    0    0 -0.29951122994E+02  0.68079891271E+02  0.10744716270E+03  0.13067836140E+03  0.00000000000E+00 0. -1.
         22    1    3    3    0    0  0.49407029692E+02 -0.10964641570E+02  0.20599374890E+03  0.21211954774E+03  0.00000000000E+00 0. -1.
</event>
<event>
 7    1  0.5213103E-005  0.3667600E+03  0.7818608E-02  0.1086524E+00
          2   -1    0    0  502    0  0.00000000000E+00  0.00000000000E+00  0.81164171227E+03  0.81164171227E+03  0.00000000000E+00 0. -1.
          1   -1    0    0  501    0 -0.00000000000E+00 -0.00000000000E+00 -0.82392088353E+03  0.82392088353E+03  0.00000000000E+00 0. -1.
         25    2    1    2    0    0 -0.34607270607E+03  0.44958729238E+03 -0.22360643624E+03  0.62251074197E+03  0.12499893673E+03 0.  0.
          2    1    1    2  501    0  0.19596340290E+03 -0.14068218710E+03 -0.30751045096E+03  0.39083987833E+03  0.00000000000E+00 0. -1.
          1    1    1    2  502    0  0.15010930318E+03 -0.30890510528E+03  0.51883771594E+03  0.62221197550E+03  0.00000000000E+00 0. -1.
         22    1    3    3    0    0 -0.26456727120E+03  0.38636562981E+03 -0.13720398633E+03  0.48795407033E+03  0.00000000000E+00 0.  1.
         22    1    3    3    0    0 -0.81505434875E+02  0.63221662566E+02 -0.86402449908E+02  0.13455667164E+03  0.00000000000E+00 0.  1.
</event>
<event>
 7    1  0.5213103E-005  0.5003001E+03  0.7818608E-02  0.1158712E+00
          2   -1    0    0  502    0  0.00000000000E+00  0.00000000000E+00  0.12183864794E+04  0.12183864794E+04  0.00000000000E+00 0. -1.
          1   -1    0    0  501    0 -0.00000000000E+00 -0.00000000000E+00 -0.21664077616E+04  0.21664077616E+04  0.00000000000E+00 0. -1.
         25    2    1    2    0    0 -0.19897608326E+03  0.40381309890E+03 -0.25895421295E+03  0.53417077991E+03  0.12499854859E+03 0.  0.
          2    1    1    2  501    0  0.19517031670E+03 -0.47565871899E+03 -0.17312390531E+04  0.18059710209E+04  0.00000000000E+00 0. -1.
          1    1    1    2  502    0  0.38057665601E+01  0.71845620092E+02  0.10421719838E+04  0.10446524402E+04  0.00000000000E+00 0. -1.
         22    1    3    3    0    0 -0.61818981302E+01  0.14163029203E+03 -0.77660327218E+02  0.16164306947E+03  0.00000000000E+00 0.  1.
         22    1    3    3    0    0 -0.19279418513E+03  0.26218280687E+03 -0.18129388573E+03  0.37252771043E+03  0.00000000000E+00 0.  1.
</event>
<event>
 7    1  0.5213103E-005  0.3914030E+03  0.7818608E-02  0.1224136E+00
          2   -1    0    0  502    0  0.00000000000E+00  0.00000000000E+00  0.62348037369E+03  0.62348037369E+03  0.00000000000E+00 0. -1.
          1   -1    0    0  501    0 -0.00000000000E+00 -0.00000000000E+00 -0.10191222213E+04  0.10191222213E+04  0.00000000000E+00 0. -1.
         25    2    1    2    0    0  0.35233980819E+02  0.42100356546E+03 -0.13889339094E+02  0.44079712650E+03  0.12499502971E+03 0.  0.
          2    1    1    2  501    0 -0.54764264877E+02 -0.38080197938E+03 -0.74358959973E+03  0.83721846912E+03  0.00000000000E+00 0. -1.
          1    1    1    2  502    0  0.19530284057E+02 -0.40201586078E+02  0.36183709122E+03  0.36458699936E+03  0.00000000000E+00 0. -1.
         22    1    3    3    0    0  0.38954433095E+02  0.29481719933E+03 -0.65341207877E+02  0.30447348378E+03  0.00000000000E+00 0. -1.
         22    1    3    3    0    0 -0.37204522758E+01  0.12618636613E+03  0.51451868783E+02  0.13632364272E+03  0.00000000000E+00 0. -1.
</event>
<event>
 7    1  0.5213103E-005  0.3563666E+03  0.7818608E-02  0.1182402E+00
          2   -1    0    0  502    0  0.00000000000E+00  0.00000000000E+00  0.12225904012E+04  0.12225904012E+04  0.00000000000E+00 0. -1.
          1   -1    0    0  501    0 -0.00000000000E+00 -0.00000000000E+00 -0.90598651454E+03  0.90598651454E+03  0.00000000000E+00 0. -1.
         25    2    1    2    0    0 -0.39743408829E+03 -0.76711017280E+02  0.51599962856E+03  0.66762292320E+03  0.12500526469E+03 0.  0.
          2    1    1    2  501    0  0.77023339581E+02  0.20494005855E+01 -0.78526241192E+03  0.78903349134E+03  0.00000000000E+00 0. -1.
          1    1    1    2  502    0  0.32041074871E+03  0.74661616695E+02  0.58586667004E+03  0.67192050122E+03  0.00000000000E+00 0. -1.
         22    1    3    3    0    0 -0.33221773819E+03 -0.15205577542E+02  0.38304956281E+03  0.50727389320E+03  0.00000000000E+00 0.  1.
         22    1    3    3    0    0 -0.65216350098E+02 -0.61505439738E+02  0.13295006575E+03  0.16034902999E+03  0.00000000000E+00 0.  1.
</event>
<event>
 7    1  0.5213103E-005  0.1380108E+03  0.7818608E-02  0.1346243E+00
          2   -1    0    0  502    0  0.00000000000E+00  0.00000000000E+00  0.84324982276E+03  0.84324982276E+03  0.00000000000E+00 0. -1.
          1   -1    0    0  501    0 -0.00000000000E+00 -0.00000000000E+00 -0.87920802678E+03  0.87920802678E+03  0.00000000000E+00 0. -1.
         25    2    1    2    0    0  0.15035819895E+03 -0.35362862685E+01 -0.75408689592E+03  0.77903292712E+03  0.12500064646E+03 0.  0.
          2    1    1    2  501    0 -0.11062002504E+03  0.74985580502E+01 -0.84749200407E+02  0.13955445275E+03  0.00000000000E+00 0. -1.
          1    1    1    2  502    0 -0.39738173910E+02 -0.39622717817E+01  0.80287789230E+03  0.80387046967E+03  0.00000000000E+00 0. -1.
         22    1    3    3    0    0  0.58209124885E+02 -0.48838605165E+02 -0.17311217248E+03  0.18905379085E+03  0.00000000000E+00 0.  1.
         22    1    3    3    0    0  0.92149074066E+02  0.45302318896E+02 -0.58097472345E+03  0.58997913627E+03  0.00000000000E+00 0.  1.
</event>
<event>
 7    1  0.5213103E-005  0.1955918E+03  0.7818608E-02  0.1254888E+00
          2   -1    0    0  502    0  0.00000000000E+00  0.00000000000E+00  0.72469812449E+03  0.72469812449E+03  0.00000000000E+00 0. -1.
          1   -1    0    0  501    0 -0.00000000000E+00 -0.00000000000E+00 -0.71192996133E+03  0.71192996133E+03  0.00000000000E+00 0. -1.
         25    2    1    2    0    0  0.22026569707E+03 -0.66983662322E+02  0.24069476369E+03  0.35575622893E+03  0.12499894733E+03 0.  0.
          2    1    1    2  501    0 -0.16516574399E+03  0.10226823547E+03 -0.63732682202E+03  0.66627621378E+03  0.00000000000E+00 0. -1.
          1    1    1    2  502    0 -0.55099953077E+02 -0.35284573151E+02  0.40940022149E+03  0.41459564311E+03  0.00000000000E+00 0. -1.
         22    1    3    3    0    0  0.92317026533E+02 -0.38572822783E+02  0.24616416908E+02  0.10303525623E+03  0.00000000000E+00 0.  1.
         22    1    3    3    0    0  0.12794867053E+03 -0.28410839540E+02  0.21607834678E+03  0.25272097270E+03  0.00000000000E+00 0.  1.
</event>
<event>
 7    1  0.5213103E-005  0.1525150E+04  0.7818608E-02  0.1115155E+00
          2   -1    0    0  502    0  0.00000000000E+00  0.00000000000E+00  0.27779005968E+04  0.27779005968E+04  0.00000000000E+00 0. -1.
          1   -1    0    0  501    0 -0.00000000000E+00 -0.00000000000E+00 -0.26218473891E+04  0.26218473891E+04  0.00000000000E+00 0. -1.
         25    2    1    2    0    0  0.56293782843E+03 -0.14491140327E+04  0.16298364793E+03  0.15681260069E+04  0.12500010153E+03 0.  0.
          2    1    1    2  501    0 -0.54344627268E+03  0.14141472667E+04 -0.16200293082E+04  0.22180264432E+04  0.00000000000E+00 0. -1.
          1    1    1    2  502    0 -0.19491555753E+02  0.34966766014E+02  0.16130988679E+04  0.16135955358E+04  0.00000000000E+00 0. -1.
         22    1    3    3    0    0  0.14753815386E+03 -0.43183493784E+03  0.10204856641E+03  0.46761397572E+03  0.00000000000E+00 0. -1.
         22    1    3    3    0    0  0.41539967457E+03 -0.10172790949E+04  0.60935081522E+02  0.11005120312E+04  0.00000000000E+00 0. -1.
</event>
<event>
 7    1  0.5213103E-005  0.6855717E+02  0.7818608E-02  0.1448789E+00
          2   -1    0    0  502    0  0.00000000000E+00  0.00000000000E+00  0.96310531202E+03  0.96310531202E+03  0.00000000000E+00 0. -1.
          1   -1    0    0  501    0 -0.00000000000E+00 -0.00000000000E+00 -0.64660825590E+03  0.64660825590E+03  0.00000000000E+00 0. -1.
         25    2    1    2    0    0  0.44945914351E+02 -0.55535917794E+02 -0.11834702341E+03  0.18637602149E+03  0.12500252020E+03 0.  0.
          2    1    1    2  501    0 -0.64046087194E+02  0.25555468711E+02 -0.49149900183E+03  0.49631265555E+03  0.00000000000E+00 0. -1.
          1    1    1    2  502    0  0.19100172844E+02  0.29980449084E+02  0.92634308136E+03  0.92702489088E+03  0.00000000000E+00 0. -1.
         22    1    3    3    0    0  0.78473985967E+02 -0.29900050112E+02 -0.11716705750E+03  0.14415373333E+03  0.00000000000E+00 0.  1.
         22    1    3    3    0    0 -0.33528071617E+02 -0.25635867683E+02 -0.11799659102E+01  0.42222288163E+02  0.00000000000E+00 0.  1.
</event>
<event>
 7    1  0.5213103E-005  0.8283980E+03  0.7818608E-02  0.1031652E+00
          2   -1    0    0  502    0  0.00000000000E+00  0.00000000000E+00  0.17639261282E+04  0.17639261282E+04  0.00000000000E+00 0. -1.
          1   -1    0    0  501    0 -0.00000000000E+00 -0.00000000000E+00 -0.19790372029E+04  0.19790372029E+04  0.00000000000E+00 0. -1.
         25    2    1    2    0    0  0.74213308841E+03 -0.44367803295E+03  0.12376491641E+04  0.15149296463E+04  0.12499864818E+03 0.  0.
          2    1    1    2  501    0 -0.57161508959E+03  0.59890870082E+03 -0.16994281989E+04  0.18903681244E+04  0.00000000000E+00 0. -1.
          1    1    1    2  502    0 -0.17051799882E+03 -0.15523066788E+03  0.24666796005E+03  0.33766556041E+03  0.00000000000E+00 0. -1.
         22    1    3    3    0    0  0.63923898719E+02 -0.16167517359E+01  0.97584859918E+02  0.11666912016E+03  0.00000000000E+00 0. -1.
         22    1    3    3    0    0  0.67820918969E+03 -0.44206128121E+03  0.11400643041E+04  0.13982605261E+04  0.00000000000E+00 0. -1.
</event>
<event>
 7    1  0.5213103E-005  0.1064384E+04  0.7818608E-02  0.1127675E+00
          2   -1    0    0  502    0  0.00000000000E+00  0.00000000000E+00  0.30325776918E+04  0.30325776918E+04  0.00000000000E+00 0. -1.
          1   -1    0    0  501    0 -0.00000000000E+00 -0.00000000000E+00 -0.20438954863E+04  0.20438954863E+04  0.00000000000E+00 0. -1.
         25    2    1    2    0    0 -0.93016238262E+03 -0.56265160415E+03  0.10070349756E+04  0.14871191257E+04  0.12499986500E+03 0.  0.
          2    1    1    2  501    0  0.48491004150E+02 -0.75085671029E+01 -0.16490986729E+04  0.16498285332E+04  0.00000000000E+00 0. -1.
          1    1    1    2  502    0  0.88167137847E+03  0.57016017125E+03  0.16307459027E+04  0.19395255192E+04  0.00000000000E+00 0. -1.
         22    1    3    3    0    0 -0.56845817702E+03 -0.40764294708E+03  0.61035329923E+03  0.92835802425E+03  0.00000000000E+00 0.  1.
         22    1    3    3    0    0 -0.36170420560E+03 -0.15500865707E+03  0.39668167641E+03  0.55876110147E+03  0.00000000000E+00 0.  1.
</event>
<event>
 7    1  0.5213103E-005  0.7614807E+03  0.7818608E-02  0.1181250E+00
          2   -1    0    0  502    0  0.00000000000E+00  0.00000000000E+00  0.97588920281E+03  0.97588920281E+03  0.00000000000E+00 0. -1.
          1   -1    0    0  501    0 -0.00000000000E+00 -0.00000000000E+00 -0.14756526371E+04  0.14756526371E+04  0.00000000000E+00 0. -1.
         25    2    1    2    0    0  0.63072185011E+03  0.41700065111E+03  0.37789848099E+03  0.85447727398E+03  0.12499821832E+03 0.  0.
          2    1    1    2  501    0  0.30546342929E+02 -0.20029559563E+02 -0.82305064073E+03  0.82386080106E+03  0.00000000000E+00 0. -1.
          1    1    1    2  502    0 -0.66126819304E+03 -0.39697109155E+03 -0.54611274529E+02  0.77320376484E+03  0.00000000000E+00 0. -1.
         22    1    3    3    0    0  0.35754827053E+03  0.30918014076E+03  0.23220336699E+03  0.52664174620E+03  0.00000000000E+00 0. -1.
         22    1    3    3    0    0  0.27317357958E+03  0.10782051035E+03  0.14569511400E+03  0.32783552778E+03  0.00000000000E+00 0. -1.
</event>
<event>
 7    1  0.5213103E-005  0.6041731E+03  0.7818608E-02  0.1147299E+00
          2   -1    0    0  502    0  0.00000000000E+00  0.00000000000E+00  0.15364257100E+04  0.15364257100E+04  0.00000000000E+00 0. -1.
          1   -1    0    0  501    0 -0.00000000000E+00 -0.00000000000E+00 -0.69054529243E+03  0.69054529243E+03  0.00000000000E+00 0. -1.
         25    2    1    2    0    0 -0.24020650371E+03 -0.59188182326E+03  0.22102154788E+03  0.68738630808E+03  0.12500461903E+03 0.  0.
          2    1    1    2  501    0  0.26381028120E+03  0.52794700717E+03 -0.26511816491E+03  0.64700196925E+03  0.00000000000E+00 0. -1.
          1    1    1    2  502    0 -0.23603777485E+02  0.63934816092E+02  0.88997703460E+03  0.89258272509E+03  0.00000000000E+00 0. -1.
         22    1    3    3    0    0  0.60898408241E+01 -0.95650939594E+02  0.19006873772E+02  0.97711051868E+02  0.00000000000E+00 0. -1.
         22    1    3    3    0    0 -0.24629634454E+03 -0.49623088367E+03  0.20201467411E+03  0.58967525622E+03  0.00000000000E+00 0. -1.
</event>
<event>
 7    1  0.5213103E-005  0.4072964E+03  0.7818608E-02  0.1243380E+00
          2   -1    0    0  502    0  0.00000000000E+00  0.00000000000E+00  0.61570502721E+03  0.61570502721E+03  0.00000000000E+00 0. -1.
          1   -1    0    0  501    0 -0.00000000000E+00 -0.00000000000E+00 -0.90107240959E+03  0.90107240959E+03  0.00000000000E+00 0. -1.
         25    2    1    2    0    0 -0.24882581863E+03  0.28829096954E+03 -0.22770989768E+03  0.46097911412E+03  0.12499590001E+03 0.  0.
          2    1    1    2  501    0 -0.11974241582E+02  0.33158249051E+02 -0.47012153751E+03  0.47144152550E+03  0.00000000000E+00 0. -1.
          1    1    1    2  502    0  0.26080006022E+03 -0.32144921859E+03  0.41246405281E+03  0.58435679717E+03  0.00000000000E+00 0. -1.
         22    1    3    3    0    0  0.69960511644E+01  0.21590070950E+02  0.63090638892E+01  0.23555894861E+02  0.00000000000E+00 0.  1.
         22    1    3    3    0    0 -0.25582186980E+03  0.26670089859E+03 -0.23401896157E+03  0.43742321926E+03  0.00000000000E+00 0.  1.
</event>
<event>
 7    1  0.5213103E-005  0.8228284E+03  0.7818608E-02  0.1192319E+00
          2   -1    0    0  502    0  0.00000000000E+00  0.00000000000E+00  0.99508125750E+03  0.99508125750E+03  0.00000000000E+00 0. -1.
          1   -1    0    0  501    0 -0.00000000000E+00 -0.00000000000E+00 -0.13822543961E+04  0.13822543961E+04  0.00000000000E+00 0. -1.
         25    2    1    2    0    0 -0.82772617711E+03 -0.71328821915E+02  0.48581359017E+03  0.97049378046E+03  0.12499963361E+03 0.  0.
          2    1    1    2  501    0  0.28692812574E+02 -0.83843553914E+01 -0.53463357056E+03  0.53546860756E+03  0.00000000000E+00 0. -1.
          1    1    1    2  502    0  0.79903336454E+03  0.79713177307E+02 -0.33835315818E+03  0.87137326556E+03  0.00000000000E+00 0. -1.
         22    1    3    3    0    0 -0.16938527838E+03 -0.43326571766E+02  0.15274820532E+03  0.23216498138E+03  0.00000000000E+00 0. -1.
         22    1    3    3    0    0 -0.65834089874E+03 -0.28002250150E+02  0.33306538485E+03  0.73832879908E+03  0.00000000000E+00 0. -1.
</event>
<event>
 7    1  0.5213103E-005  0.4008301E+03  0.7818608E-02  0.1166047E+00
          2   -1    0    0  502    0  0.00000000000E+00  0.00000000000E+00  0.80064201523E+03  0.80064201523E+03  0.00000000000E+00 0. -1.
          1   -1    0    0  501    0 -0.00000000000E+00 -0.00000000000E+00 -0.19302118889E+04  0.19302118889E+04  0.00000000000E+00 0. -1.
         25    2    1    2    0    0 -0.95201317535E+02 -0.46240394650E+03 -0.32350086385E+03  0.58579709819E+03  0.12499892295E+03 0.  0.
          2    1    1    2  501    0 -0.83115025257E+00  0.82477119152E+02 -0.14169163675E+04  0.14193150314E+04  0.00000000000E+00 0. -1.
          1    1    1    2  502    0  0.96032467788E+02  0.37992682735E+03  0.61084735762E+03  0.72574177455E+03  0.00000000000E+00 0. -1.
         22    1    3    3    0    0 -0.27332346644E+01 -0.20353946042E+01  0.95322186380E+01  0.10123072413E+02  0.00000000000E+00 0.  1.
         22    1    3    3    0    0 -0.92468082871E+02 -0.46036855189E+03 -0.33303308249E+03  0.57567402578E+03  0.00000000000E+00 0.  1.
</event>
<event>
 7    1  0.5213103E-005  0.3681760E+03  0.7818608E-02  0.1123396E+00
          2   -1    0    0  502    0  0.00000000000E+00  0.00000000000E+00  0.30867110724E+03  0.30867110724E+03  0.00000000000E+00 0. -1.
          1   -1    0    0  501    0 -0.00000000000E+00 -0.00000000000E+00 -0.13950965026E+04  0.13950965026E+04  0.00000000000E+00 0. -1.
         25    2    1    2    0    0 -0.41627032249E+03  0.11666387793E+03  0.10567464438E+02  0.45014203442E+03  0.12499895221E+03 0.  0.
          2    1    1    2  501    0  0.13503294022E+03 -0.64330967707E+02 -0.88505428414E+03  0.89760428599E+03  0.00000000000E+00 0. -1.
          1    1    1    2  502    0  0.28123738227E+03 -0.52332910223E+02 -0.21193857567E+03  0.35602128944E+03  0.00000000000E+00 0. -1.
         22    1    3    3    0    0 -0.10265373648E+03  0.86690567020E+02 -0.75702061269E+01  0.13457470804E+03  0.00000000000E+00 0. -1.
         22    1    3    3    0    0 -0.31361658601E+03  0.29973310911E+02  0.18137670565E+02  0.31556732639E+03  0.00000000000E+00 0. -1.
</event>
<event>
 7    1  0.9328448E-005  0.4276436E+03  0.7818608E-02  0.1190699E+00
          2   -1    0    0  502    0  0.00000000000E+00  0.00000000000E+00  0.32249362913E+04  0.32249362913E+04  0.00000000000E+00 0. -1.
          1   -1    0    0  501    0 -0.00000000000E+00 -0.00000000000E+00 -0.14828039993E+04  0.14828039993E+04  0.00000000000E+00 0. -1.
         25    2    1    2    0    0  0.39070898696E+03 -0.71949777764E+02 -0.50188292333E+03  0.65218269677E+03  0.12500207287E+03 0.  0.
          2    1    1    2  501    0 -0.44707849078E+03  0.56110905847E+02 -0.84943977730E+03  0.96154851460E+03  0.00000000000E+00 0. -1.
          1    1    1    2  502    0  0.56369503825E+02  0.15838871917E+02  0.30934549927E+04  0.30940090793E+04  0.00000000000E+00 0. -1.
         22    1    3    3    0    0  0.16266858655E+03 -0.42761781505E+02 -0.12064569556E+03  0.20699039317E+03  0.00000000000E+00 0.  1.
         22    1    3    3    0    0  0.22804040041E+03 -0.29187996259E+02 -0.38123722777E+03  0.44519230360E+03  0.00000000000E+00 0.  1.
</event>
<event>
 7    1  0.5213103E-005  0.1130028E+04  0.7818608E-02  0.1095416E+00
          2   -1    0    0  502    0  0.00000000000E+00  0.00000000000E+00  0.30050059530E+04  0.30050059530E+04  0.00000000000E+00 0. -1.
          1   -1    0    0  501    0 -0.00000000000E+00 -0.00000000000E+00 -0.83198195174E+03  0.83198195174E+03  0.00000000000E+00 0. -1.
         25    2    1    2    0    0 -0.10678269460E+04  0.40953049228E+03 -0.53667167157E+02  0.11517267198E+04  0.12499864581E+03 0.  0.
          2    1    1    2  501    0  0.10056759074E+04 -0.44091777113E+03  0.10926648917E+04  0.15490994407E+04  0.00000000000E+00 0. -1.
          1    1    1    2  502    0  0.62151038584E+02  0.31387278848E+02  0.11340262768E+04  0.11361617443E+04  0.00000000000E+00 0. -1.
         22    1    3    3    0    0 -0.91023971450E+03  0.37867976754E+03 -0.79565634535E+02  0.98907299751E+03  0.00000000000E+00 0.  1.
         22    1    3    3    0    0 -0.15758723150E+03  0.30850724747E+02  0.25898467379E+02  0.16265372225E+03  0.00000000000E+00 0.  1.
</event>
<event>
 7    1  0.5213103E-005  0.5733619E+03  0.7818608E-02  0.1155656E+00
          2   -1    0    0  502    0  0.00000000000E+00  0.00000000000E+00  0.25844624824E+04  0.25844624824E+04  0.00000000000E+00 0. -1.
          1   -1    0    0  501    0 -0.00000000000E+00 -0.00000000000E+00 -0.12073357160E+04  0.12073357160E+04  0.00000000000E+00 0. -1.
         25    2    1    2    0    0 -0.27090847304E+03 -0.53499321219E+03  0.24351227050E+03  0.65919014114E+03  0.12499711369E+03 0.  0.
          2    1    1    2  501    0 -0.34704530047E+02  0.55034413842E+02 -0.96043200971E+03  0.96263328241E+03  0.00000000000E+00 0. -1.
          1    1    1    2  502    0  0.30561300309E+03  0.47995879835E+03  0.20940465056E+04  0.21699747749E+04  0.00000000000E+00 0. -1.
         22    1    3    3    0    0 -0.14733987842E+02 -0.14577364462E+03  0.53498759312E+02  0.15597808536E+03  0.00000000000E+00 0.  1.
         22    1    3    3    0    0 -0.25617448520E+03 -0.38921956757E+03  0.19001351118E+03  0.50321205578E+03  0.00000000000E+00 0.  1.
</event>
<event>
 7    1  0.5213103E-005  0.1221968E+04  0.7818608E-02  0.1130120E+00
          2   -1    0    0  502    0  0.00000000000E+00  0.00000000000E+00  0.37442815397E+04  0.37442815397E+04  0.00000000000E+00 0. -1.
          1   -1    0    0  501    0 -0.00000000000E+00 -0.00000000000E+00 -0.25495118734E+04  0.25495118734E+04  0.00000000000E+00 0. -1.
         25    2    1    2    0    0 -0.12081723044E+04  0.15662813888E+03 -0.21272479482E+04  0.24545920827E+04  0.12500307333E+03 0.  0.
          2    1    1    2  501    0  0.12438117568E+04 -0.17784040076E+03  0.12690966901E+04  0.17858615017E+04  0.00000000000E+00 0. -1.
          1    1    1    2  502    0 -0.35639452361E+02  0.21212261878E+02  0.20529209244E+04  0.20533398288E+04  0.00000000000E+00 0. -1.
         22    1    3    3    0    0 -0.13327399030E+03  0.57725883506E+02 -0.25099016127E+03  0.28998326706E+03  0.00000000000E+00 0.  1.
         22    1    3    3    0    0 -0.10748983141E+04  0.98902255377E+02 -0.18762577869E+04  0.21646088156E+04  0.00000000000E+00 0.  1.
</event>
<event>
 7    1  0.5213103E-005  0.4511317E+03  0.7818608E-02  0.1082583E+00
          2   -1    0    0  502    0  0.00000000000E+00  0.00000000000E+00  0.58832099750E+03  0.58832099750E+03  0.00000000000E+00 0. -1.
          1   -1    0    0  501    0 -0.00000000000E+00 -0.00000000000E+00 -0.23468787319E+04  0.23468787319E+04  0.00000000000E+00 0. -1.
         25    2    1    2    0    0  0.31341594756E+03 -0.34942948614E+03 -0.31847889817E+03  0.58084754224E+03  0.12499814708E+03 0.  0.
          2    1    1    2  501    0 -0.18675508427E+03 -0.88617519684E+02 -0.17759974891E+04  0.17879870267E+04  0.00000000000E+00 0. -1.
          1    1    1    2  502    0 -0.12666086329E+03  0.43804700582E+03  0.33591865291E+03  0.56636516045E+03  0.00000000000E+00 0. -1.
         22    1    3    3    0    0  0.12273038350E+03 -0.57641363760E+02 -0.68551337892E+02  0.15193603844E+03  0.00000000000E+00 0. -1.
         22    1    3    3    0    0  0.19068556406E+03 -0.29178812238E+03 -0.24992756028E+03  0.42891150380E+03  0.00000000000E+00 0. -1.
</event>
<event>
 7    1  0.5213103E-005  0.1575894E+03  0.7818608E-02  0.1216436E+00
          2   -1    0    0  502    0  0.00000000000E+00  0.00000000000E+00  0.14806820725E+04  0.14806820725E+04  0.00000000000E+00 0. -1.
          1   -1    0    0  501    0 -0.00000000000E+00 -0.00000000000E+00 -0.25330991121E+03  0.25330991121E+03  0.00000000000E+00 0. -1.
         25    2    1    2    0    0 -0.20799141507E+03 -0.53955147949E+02 -0.72524166809E+02  0.25895225746E+03  0.12499972056E+03 0.  0.
          2    1    1    2  501    0  0.59447921895E+02  0.10464015326E+03 -0.39357711665E+02  0.12662008751E+03  0.00000000000E+00 0. -1.
          1    1    1    2  502    0  0.14854349318E+03 -0.50685005316E+02  0.13392540397E+04  0.13484196387E+04  0.00000000000E+00 0. -1.
         22    1    3    3    0    0 -0.16800976748E+03 -0.33422944407E+02  0.27003880260E+01  0.17132328294E+03  0.00000000000E+00 0. -1.
         22    1    3    3    0    0 -0.39981647596E+02 -0.20532203541E+02 -0.75224554835E+02  0.87628974528E+02  0.00000000000E+00 0. -1.
</event>
<event>
 7    1  0.5213103E-005  0.3122195E+03  0.7818608E-02  0.1122551E+00
          2   -1    0    0  502    0  0.00000000000E+00  0.00000000000E+00  0.33546968314E+04  0.33546968314E+04  0.00000000000E+00 0. -1.
          1   -1    0    0  501    0 -0.00000000000E+00 -0.00000000000E+00 -0.23188264938E+03  0.23188264938E+03  0.00000000000E+00 0. -1.
         25    2    1    2    0    0 -0.18542858951E+03  0.42603529154E+03  0.77961458065E+03  0.91614071134E+03  0.12500030863E+03 0.  0.
          2    1    1    2  501    0  0.13686148102E+03 -0.25453540518E+03 -0.30004380654E+02  0.29055051253E+03  0.00000000000E+00 0. -1.
          1    1    1    2  502    0  0.48567108496E+02 -0.17149988636E+03  0.23732039820E+04  0.23798882569E+04  0.00000000000E+00 0. -1.
         22    1    3    3    0    0 -0.85085546009E+02  0.16904115732E+03  0.43726702425E+03  0.47646291934E+03  0.00000000000E+00 0.  1.
         22    1    3    3    0    0 -0.10034304350E+03  0.25699413422E+03  0.34234755640E+03  0.43967779200E+03  0.00000000000E+00 0.  1.
</event>
<event>
 7    1  0.5213103E-005  0.2003716E+03  0.7818608E-02  0.1360215E+00
          2   -1    0    0  502    0  0.00000000000E+00  0.00000000000E+00  0.70226880835E+03  0.70226880835E+03  0.00000000000E+00 0. -1.
          1   -1    0    0  501    0 -0.00000000000E+00 -0.00000000000E+00 -0.87593547742E+03  0.87593547742E+03  0.00000000000E+00 0. -1.
         25    2    1    2    0    0  0.12326123200E+03 -0.13417361948E+03  0.64015009713E+03  0.67721136977E+03  0.12500880374E+03 0.  0.
          2    1    1    2  501    0 -0.12300173773E+03  0.15860175960E+03 -0.84089911650E+03  0.86452025411E+03  0.00000000000E+00 0. -1.
          1    1    1    2  502    0 -0.25949426403E+00 -0.24428140126E+02  0.27082350307E+02  0.36472661891E+02  0.00000000000E+00 0. -1.
         22    1    3    3    0    0  0.96022413373E+02 -0.13413659194E+02  0.26655511610E+03  0.28364037096E+03  0.00000000000E+00 0.  1.
         22    1    3    3    0    0  0.27238818622E+02 -0.12075996028E+03  0.37359498104E+03  0.39357099881E+03  0.00000000000E+00 0.  1.
</event>
<event>
 7    1  0.5213103E-005  0.8113619E+03  0.7818608E-02  0.1156637E+00
          2   -1    0    0  502    0  0.00000000000E+00  0.00000000000E+00  0.10452332449E+04  0.10452332449E+04  0.00000000000E+00 0. -1.
          1   -1    0    0  501    0 -0.00000000000E+00 -0.00000000000E+00 -0.24860257510E+04  0.24860257510E+04  0.00000000000E+00 0. -1.
         25    2    1    2    0    0 -0.73727423072E+03 -0.39550642445E+03 -0.66083686583E+03  0.10734661593E+04  0.12500243543E+03 0.  0.
          2    1    1    2  501    0  0.43241835062E+02 -0.14001003536E+02 -0.14249120651E+04  0.14256367972E+04  0.00000000000E+00 0. -1.
          1    1    1    2  502    0  0.69403239566E+03  0.40950742798E+03  0.64495642476E+03  0.10321560394E+04  0.00000000000E+00 0. -1.
         22    1    3    3    0    0 -0.32572273585E+03 -0.22615908475E+03 -0.25714830173E+03  0.47261874841E+03  0.00000000000E+00 0. -1.
         22    1    3    3    0    0 -0.41155149487E+03 -0.16934733970E+03 -0.40368856410E+03  0.60084741089E+03  0.00000000000E+00 0. -1.
</event>
<event>
 7    1  0.5213103E-005  0.3763086E+03  0.7818608E-02  0.1143850E+00
          2   -1    0    0  502    0  0.00000000000E+00  0.00000000000E+00  0.17170301516E+04  0.17170301516E+04  0.00000000000E+00 0. -1.
          1   -1    0    0  501    0 -0.00000000000E+00 -0.00000000000E+00 -0.59691635918E+03  0.59691635918E+03  0.00000000000E+00 0. -1.
         25    2    1    2    0    0 -0.12626971678E+03 -0.41434223238E+03 -0.10419821635E+03  0.46271349176E+03  0.12499192077E+03 0.  0.
          2    1    1    2  501    0  0.16437513880E+03  0.30687643801E+03 -0.21384643793E+03  0.40856166423E+03  0.00000000000E+00 0. -1.
          1    1    1    2  502    0 -0.38105422017E+02  0.10746579437E+03  0.14381584467E+04  0.14426713548E+04  0.00000000000E+00 0. -1.
         22    1    3    3    0    0 -0.80151820583E+02 -0.26359280954E+03 -0.32734623153E+01  0.27552894428E+03  0.00000000000E+00 0. -1.
         22    1    3    3    0    0 -0.46117896201E+02 -0.15074942285E+03 -0.10092475404E+03  0.18718454748E+03  0.00000000000E+00 0. -1.
</event>
<event>
 7    1  0.5213103E-005  0.2776786E+03  0.7818608E-02  0.1189547E+00
          2   -1    0    0  502    0  0.00000000000E+00  0.00000000000E+00  0.73231247541E+03  0.73231247541E+03  0.00000000000E+00 0. -1.
          1   -1    0    0  501    0 -0.00000000000E+00 -0.00000000000E+00 -0.33927875824E+03  0.33927875824E+03  0.00000000000E+00 0. -1.
         25    2    1    2    0    0 -0.87397592175E+02 -0.29490594562E+03 -0.14660609484E+03  0.36294187534E+03  0.12500240780E+03 0.  0.
          2    1    1    2  501    0  0.10960577751E+03  0.20631790912E+03  0.90860638459E+02  0.25067142180E+03  0.00000000000E+00 0. -1.
          1    1    1    2  502    0 -0.22208185337E+02  0.88588036499E+02  0.44877917355E+03  0.45797793650E+03  0.00000000000E+00 0. -1.
         22    1    3    3    0    0 -0.49416161610E+02 -0.18643043684E+02 -0.29431662415E+02  0.60462739424E+02  0.00000000000E+00 0.  1.
         22    1    3    3    0    0 -0.37981430564E+02 -0.27626290193E+03 -0.11717443242E+03  0.30247913592E+03  0.00000000000E+00 0.  1.
</event>
<event>
 7    1  0.5213103E-005  0.7161241E+03  0.7818608E-02  0.1212922E+00
          2   -1    0    0  502    0  0.00000000000E+00  0.00000000000E+00  0.25640585443E+04  0.25640585443E+04  0.00000000000E+00 0. -1.
          1   -1    0    0  501    0 -0.00000000000E+00 -0.00000000000E+00 -0.86906553756E+03  0.86906553756E+03  0.00000000000E+00 0. -1.
         25    2    1    2    0    0 -0.46792675234E+03 -0.55296851593E+03  0.30497437769E+03  0.79584168719E+03  0.12499997944E+03 0.  0.
          2    1    1    2  501    0  0.47942318227E+03  0.52799981125E+03 -0.41959488116E+03  0.82746012150E+03  0.00000000000E+00 0. -1.
          1    1    1    2  502    0 -0.11496429933E+02  0.24968704674E+02  0.18096135102E+04  0.18098222732E+04  0.00000000000E+00 0. -1.
         22    1    3    3    0    0 -0.27818835093E+03 -0.41658963517E+03  0.19439856817E+03  0.53733275169E+03  0.00000000000E+00 0.  1.
         22    1    3    3    0    0 -0.18973840141E+03 -0.13637888075E+03  0.11057580953E+03  0.25850893551E+03  0.00000000000E+00 0.  1.
</event>
<event>
 7    1  0.5213103E-005  0.3724216E+02  0.7818608E-02  0.1588915E+00
          2   -1    0    0  502    0  0.00000000000E+00  0.00000000000E+00  0.16636630426E+03  0.16636630426E+03  0.00000000000E+00 0. -1.
          1   -1    0    0  501    0 -0.00000000000E+00 -0.00000000000E+00 -0.12063480536E+04  0.12063480536E+04  0.00000000000E+00 0. -1.
         25    2    1    2    0    0 -0.59531067859E+02  0.84918802654E+01 -0.35801275980E+03  0.38394650276E+03  0.12500288289E+03 0.  0.
          2    1    1    2  501    0  0.36485638546E+02  0.25387502789E+01 -0.83390097216E+03  0.83470262875E+03  0.00000000000E+00 0. -1.
          1    1    1    2  502    0  0.23045429312E+02 -0.11030630544E+02  0.15193198263E+03  0.15406522634E+03  0.00000000000E+00 0. -1.
         22    1    3    3    0    0 -0.42296834599E+02  0.26498111239E+02 -0.37407438088E+02  0.62373780875E+02  0.00000000000E+00 0. -1.
         22    1    3    3    0    0 -0.17234233259E+02 -0.18006230974E+02 -0.32060532172E+03  0.32157272189E+03  0.00000000000E+00 0. -1.
</event>
<event>
 7    1  0.5213103E-005  0.1757033E+03  0.7818608E-02  0.1263972E+00
          2   -1    0    0  502    0  0.00000000000E+00  0.00000000000E+00  0.12441446852E+04  0.12441446852E+04  0.00000000000E+00 0. -1.
          1   -1    0    0  501    0 -0.00000000000E+00 -0.00000000000E+00 -0.44437031573E+03  0.44437031573E+03  0.00000000000E+00 0. -1.
         25    2    1    2    0    0 -0.92209355812E+02  0.18866313528E+03  0.88774617316E+03  0.92076847552E+03  0.12499989449E+03 0.  0.
          2    1    1    2  501    0  0.22845597166E+02 -0.62569764962E+02 -0.40981505450E+03  0.41519305834E+03  0.00000000000E+00 0. -1.
          1    1    1    2  502    0  0.69363758646E+02 -0.12609337032E+03  0.32184325082E+03  0.35255346708E+03  0.00000000000E+00 0. -1.
         22    1    3    3    0    0 -0.50207458363E+02  0.16779071275E+03  0.81919245031E+03  0.83770566598E+03  0.00000000000E+00 0.  1.
         22    1    3    3    0    0 -0.42001897450E+02  0.20872422529E+02  0.68553722853E+02  0.83062809539E+02  0.00000000000E+00 0.  1.
</event>
<event>
 7    1  0.5213103E-005  0.4806522E+03  0.7818608E-02  0.1047978E+00
          2   -1    0    0  502    0  0.00000000000E+00  0.00000000000E+00  0.20876093975E+04  0.20876093975E+04  0.00000000000E+00 0. -1.
          1   -1    0    0  501    0 -0.00000000000E+00 -0.00000000000E+00 -0.22356465769E+04  0.22356465769E+04  0.00000000000E+00 0. -1.
         25    2    1    2    0    0  0.45734622384E+03  0.49908382050E+03  0.12168811455E+04  0.13980968466E+04  0.12499936727E+03 0.  0.
          2    1    1    2  501    0 -0.26300812713E+03 -0.17038634584E+03 -0.20858960284E+04  0.21093048672E+04  0.00000000000E+00 0. -1.
          1    1    1    2  502    0 -0.19433809671E+03 -0.32869747466E+03  0.72097770348E+03  0.81585426064E+03  0.00000000000E+00 0. -1.
         22    1    3    3    0    0  0.25227139172E+01 -0.34719306132E+01 -0.90499573527E+00  0.43860466222E+01  0.00000000000E+00 0.  1.
         22    1    3    3    0    0  0.45482350993E+03  0.50255575111E+03  0.12177861412E+04  0.13937108000E+04  0.00000000000E+00 0.  1.
</event>
<event>
 7    1  0.5213103E-005  0.7147673E+03  0.7818608E-02  0.1066798E+00
          2   -1    0    0  502    0  0.00000000000E+00  0.00000000000E+00  0.15714485846E+04  0.15714485846E+04  0.00000000000E+00 0. -1.
          1   -1    0    0  501    0 -0.00000000000E+00 -0.00000000000E+00 -0.74030209594E+03  0.74030209594E+03  0.00000000000E+00 0. -1.
         25    2    1    2    0    0 -0.69712210616E+03  0.14634259666E+03  0.88333900675E+03  0.11416249569E+04  0.12499741955E+03 0.  0.
          2    1    1    2  501    0 -0.34057446930E+02 -0.15809952145E+03 -0.34608242974E+03  0.38200578078E+03  0.00000000000E+00 0. -1.
          1    1    1    2  502    0  0.73117955309E+03  0.11756924788E+02  0.29388991165E+03  0.78811994284E+03  0.00000000000E+00 0. -1.
         22    1    3    3    0    0 -0.18356558604E+03  0.11151789112E+02  0.30747325723E+03  0.35827432323E+03  0.00000000000E+00 0. -1.
         22    1    3    3    0    0 -0.51355652012E+03  0.13519080755E+03  0.57586574952E+03  0.78335063367E+03  0.00000000000E+00 0. -1.
</event>
<event>
 7    1  0.5213103E-005  0.1342875E+04  0.7818608E-02  0.1081248E+00
          2   -1    0    0  502    0  0.00000000000E+00  0.00000000000E+00  0.38050490966E+04  0.38050490966E+04  0.00000000000E+00 0. -1.
          1   -1    0    0  501    0 -0.00000000000E+00 -0.00000000000E+00 -0.12849061401E+04  0.12849061401E+04  0.00000000000E+00 0. -1.
         25    2    1    2    0    0 -0.18156231997E+03 -0.13429240277E+04  0.10907637371E+04  0.17440759678E+04  0.12500252497E+03 0.  0.
          2    1    1    2  501    0  0.11135114423E+03  0.13346246229E+04 -0.48933875848E+03  0.14258591732E+04  0.00000000000E+00 0. -1.
          1    1    1    2  502    0  0.70211175738E+02  0.82994047981E+01  0.19187179779E+04  0.19200200957E+04  0.00000000000E+00 0. -1.
         22    1    3    3    0    0 -0.19715292770E+03 -0.11996998476E+04  0.99549020407E+03  0.15713528400E+04  0.00000000000E+00 0. -1.
         22    1    3    3    0    0  0.15590607729E+02 -0.14322418005E+03  0.95273533018E+02  0.17272312785E+03  0.00000000000E+00 0. -1.
</event>
<event>
 7    1  0.5213103E-005  0.5731187E+02  0.7818608E-02  0.1506452E+00
          2   -1    0    0  502    0  0.00000000000E+00  0.00000000000E+00  0.65914301690E+03  0.65914301690E+03  0.00000000000E+00 0. -1.
          1   -1    0    0  501    0 -0.00000000000E+00 -0.00000000000E+00 -0.50382014502E+03  0.50382014502E+03  0.00000000000E+00 0. -1.
         25    2    1    2    0    0  0.51481688335E+02  0.59183732563E+02  0.37787478757E+03  0.40566971316E+03  0.12500193061E+03 0.  0.
          2    1    1    2  501    0 -0.48019730053E+02 -0.31143144687E+02 -0.48749742966E+03  0.49084573326E+03  0.00000000000E+00 0. -1.
          1    1    1    2  502    0 -0.34619582820E+01 -0.28040587876E+02  0.26494551397E+03  0.26644771551E+03  0.00000000000E+00 0. -1.
         22    1    3    3    0    0 -0.38949268467E+02  0.20514108256E+02  0.72199094184E+02  0.84561121993E+02  0.00000000000E+00 0. -1.
         22    1    3    3    0    0  0.90430956802E+02  0.38669624307E+02  0.30567569339E+03  0.32110859116E+03  0.00000000000E+00 0. -1.
</event>
<event>
 7    1  0.5213103E-005  0.3782129E+03  0.7818608E-02  0.1189450E+00
          2   -1    0    0  502    0  0.00000000000E+00  0.00000000000E+00  0.41551695801E+03  0.41551695801E+03  0.00000000000E+00 0. -1.
          1   -1    0    0  501    0 -0.00000000000E+00 -0.00000000000E+00 -0.11485755120E+04  0.11485755120E+04  0.00000000000E+00 0. -1.
         25    2    1    2    0    0  0.16794361982E+03 -0.38394875586E+03 -0.23790131935E+03  0.49783680393E+03  0.12499095584E+03 0.  0.
          2    1    1    2  501    0 -0.17983869045E+03  0.31788644982E+03 -0.73309155999E+03  0.81903417810E+03  0.00000000000E+00 0. -1.
          1    1    1    2  502    0  0.11895070630E+02  0.66062306035E+02  0.23793432530E+03  0.24722148802E+03  0.00000000000E+00 0. -1.
         22    1    3    3    0    0 -0.19564810775E+02 -0.32018875042E+02 -0.30527658291E+02  0.48372803313E+02  0.00000000000E+00 0. -1.
         22    1    3    3    0    0  0.18750843059E+03 -0.35192988081E+03 -0.20737366106E+03  0.44946400062E+03  0.00000000000E+00 0. -1.
</event>
<event>
 7    1  0.5213103E-005  0.3780307E+03  0.7818608E-02  0.1117678E+00
          2   -1    0    0  502    0  0.00000000000E+00  0.00000000000E+00  0.62547643321E+03  0.62547643321E+03  0.00000000000E+00 0. -1.
          1   -1    0    0  501    0 -0.00000000000E+00 -0.00000000000E+00 -0.39009141337E+03  0.39009141337E+03  0.00000000000E+00 0. -1.
         25    2    1    2    0    0 -0.23760948299E+01 -0.41730264705E+03  0.28904342997E+03  0.52279929339E+03  0.12500340675E+03 0.  0.
          2    1    1    2  501    0  0.11593093583E+03  0.10507247491E+03 -0.32893795873E+02  0.15988185849E+03  0.00000000000E+00 0. -1.
          1    1    1    2  502    0 -0.11355484100E+03  0.31223017214E+03 -0.20764614258E+02  0.33288669471E+03  0.00000000000E+00 0. -1.
         22    1    3    3    0    0  0.55894740204E+01 -0.42063724961E+03  0.26483323548E+03  0.49709514240E+03  0.00000000000E+00 0.  1.
         22    1    3    3    0    0 -0.79655688503E+01  0.33346025565E+01  0.24210194487E+02  0.25704150996E+02  0.00000000000E+00 0.  1.
</event>
<event>
 7    1  0.5213103E-005  0.1339346E+03  0.7818608E-02  0.1240778E+00
          2   -1    0    0  502    0  0.00000000000E+00  0.00000000000E+00  0.20572152358E+04  0.20572152358E+04  0.00000000000E+00 0. -1.
          1   -1    0    0  501    0 -0.00000000000E+00 -0.00000000000E+00 -0.78750089870E+02  0.78750089870E+02  0.00000000000E+00 0. -1.
         25    2    1    2    0    0 -0.16257776865E+03  0.17225260676E+03  0.15040442954E+04  0.15277030402E+04  0.12499938132E+03 0.  0.
          2    1    1    2  501    0  0.10057941769E+03 -0.81305445971E+02  0.86041835937E+01  0.12961800332E+03  0.00000000000E+00 0. -1.
          1    1    1    2  502    0  0.61998350955E+02 -0.90947160791E+02  0.46581666697E+03  0.47864428212E+03  0.00000000000E+00 0. -1.
         22    1    3    3    0    0 -0.80180594941E+02  0.85565406519E+02  0.11027085563E+04  0.11089258437E+04  0.00000000000E+00 0. -1.
         22    1    3    3    0    0 -0.82397173708E+02  0.86687200243E+02  0.40133573904E+03  0.41877719655E+03  0.00000000000E+00 0. -1.
</event>
<event>
 7    1  0.5213103E-005  0.6531848E+03  0.7818608E-02  0.1203599E+00
          2   -1    0    0  502    0  0.00000000000E+00  0.00000000000E+00  0.41279443405E+03  0.41279443405E+03  0.00000000000E+00 0. -1.
          1   -1    0    0  501    0 -0.00000000000E+00 -0.00000000000E+00 -0.15948730285E+04  0.15948730285E+04  0.00000000000E+00 0. -1.
         25    2    1    2    0    0  0.53268425431E+03 -0.36127883973E+03 -0.18379481943E+03  0.68094072982E+03  0.12499930823E+03 0.  0.
          2    1    1    2  501    0  0.75579209368E+01 -0.32431634527E+02 -0.47924067460E+03  0.48039625027E+03  0.00000000000E+00 0. -1.
          1    1    1    2  502    0 -0.54024217525E+03  0.39371047425E+03 -0.51904310044E+03  0.84633048248E+03  0.00000000000E+00 0. -1.
         22    1    3    3    0    0  0.38765761911E+03 -0.27162897502E+03 -0.76503855088E+02  0.47949303391E+03  0.00000000000E+00 0.  1.
         22    1    3    3    0    0  0.14502663520E+03 -0.89649864712E+02 -0.10729096434E+03  0.20144769591E+03  0.00000000000E+00 0.  1.
</event>
<event>
 7    1  0.5213103E-005  0.6781880E+03  0.7818608E-02  0.1216433E+00
          2   -1    0    0  502    0  0.00000000000E+00  0.00000000000E+00  0.91013004512E+03  0.91013004512E+03  0.00000000000E+00 0. -1.
          1   -1    0    0  501    0 -0.00000000000E+00 -0.00000000000E+00 -0.23865099799E+04  0.23865099799E+04  0.00000000000E+00 0. -1.
         25    2    1    2    0    0 -0.46885379062E+03  0.51741167198E+03 -0.69666694113E+03  0.99423762484E+03  0.12499965004E+03 0.  0.
          2    1    1    2  501    0  0.26897634774E+02 -0.76557338336E+01 -0.13914249911E+04  0.13917060030E+04  0.00000000000E+00 0. -1.
          1    1    1    2  502    0  0.44195615584E+03 -0.50975593814E+03  0.61171199738E+03  0.91069639722E+03  0.00000000000E+00 0. -1.
         22    1    3    3    0    0 -0.40962888628E+02  0.19760487093E+02 -0.14797214193E+02  0.47826693831E+02  0.00000000000E+00 0.  1.
         22    1    3    3    0    0 -0.42789090199E+03  0.49765118489E+03 -0.68186972693E+03  0.94641093101E+03  0.00000000000E+00 0.  1.
</event>
<event>
 7    1  0.5213103E-005  0.1260353E+04  0.7818608E-02  0.1049748E+00
          2   -1    0    0  502    0  0.00000000000E+00  0.00000000000E+00  0.27194539630E+04  0.27194539630E+04  0.00000000000E+00 0. -1.
          1   -1    0    0  501    0 -0.00000000000E+00 -0.00000000000E+00 -0.93795769816E+03  0.93795769816E+03  0.00000000000E+00 0. -1.
         25    2    1    2    0    0  0.47484488135E+03 -0.12378740244E+04  0.93393958571E+03  0.16265540314E+04  0.12500042309E+03 0.  0.
          2    1    1    2  501    0 -0.38232946436E+03  0.11670291525E+04  0.54482317290E+02  0.12292685569E+04  0.00000000000E+00 0. -1.
          1    1    1    2  502    0 -0.92515416987E+02  0.70844871876E+02  0.79307436180E+03  0.80158907278E+03  0.00000000000E+00 0. -1.
         22    1    3    3    0    0  0.14529577375E+03 -0.44854584951E+03  0.39926921252E+03  0.61783504679E+03  0.00000000000E+00 0.  1.
         22    1    3    3    0    0  0.32954910759E+03 -0.78932817488E+03  0.53467037319E+03  0.10087189846E+04  0.00000000000E+00 0.  1.
</event>
<event>
 7    1  0.5213103E-005  0.7505086E+02  0.7818608E-02  0.1373341E+00
          2   -1    0    0  502    0  0.00000000000E+00  0.00000000000E+00  0.25705731252E+03  0.25705731252E+03  0.00000000000E+00 0. -1.
          1   -1    0    0  501    0 -0.00000000000E+00 -0.00000000000E+00 -0.25101354882E+04  0.25101354882E+04  0.00000000000E+00 0. -1.
         25    2    1    2    0    0  0.79302051746E+02 -0.51059223059E+02 -0.32877991273E+03  0.36416627284E+03  0.12499993434E+03 0.  0.
          2    1    1    2  501    0 -0.54968064841E+02 -0.19949037290E+02 -0.21573717897E+04  0.21581641484E+04  0.00000000000E+00 0. -1.
          1    1    1    2  502    0 -0.24333986905E+02  0.71008260349E+02  0.23307352684E+03  0.24486237945E+03  0.00000000000E+00 0. -1.
         22    1    3    3    0    0  0.10457096107E+02 -0.78705297791E+02 -0.13426722490E+03  0.15598577641E+03  0.00000000000E+00 0. -1.
         22    1    3    3    0    0  0.68844955639E+02  0.27646074732E+02 -0.19451268784E+03  0.20818049643E+03  0.00000000000E+00 0. -1.
</event>
<event>
 7    1  0.5213103E-005  0.1098411E+03  0.7818608E-02  0.1279474E+00
          2   -1    0    0  502    0  0.00000000000E+00  0.00000000000E+00  0.11532939553E+04  0.11532939553E+04  0.00000000000E+00 0. -1.
          1   -1    0    0  501    0 -0.00000000000E+00 -0.00000000000E+00 -0.84962442606E+02  0.84962442606E+02  0.00000000000E+00 0. -1.
         25    2    1    2    0    0  0.19935561121E+02  0.12181959977E+03  0.32589181340E+03  0.37022506159E+03  0.12499472269E+03 0.  0.
          2    1    1    2  501    0 -0.86576239612E+02 -0.30392071527E+02 -0.22740964900E+02  0.94531871671E+02  0.00000000000E+00 0. -1.
          1    1    1    2  502    0  0.66640678491E+02 -0.91427528246E+02  0.76518066420E+03  0.77349946465E+03  0.00000000000E+00 0. -1.
         22    1    3    3    0    0 -0.28384049839E+02  0.86220638395E+02  0.28093909618E+03  0.29523961207E+03  0.00000000000E+00 0.  1.
         22    1    3    3    0    0  0.48319610960E+02  0.35598961378E+02  0.44952717218E+02  0.74985449521E+02  0.00000000000E+00 0.  1.
</event>
<event>
 7    1  0.5213103E-005  0.6663576E+03  0.7818608E-02  0.1226764E+00
          2   -1    0    0  502    0  0.00000000000E+00  0.00000000000E+00  0.44605874455E+03  0.44605874455E+03  0.00000000000E+00 0. -1.
          1   -1    0    0  501    0 -0.00000000000E+00 -0.00000000000E+00 -0.21605891693E+04  0.21605891693E+04  0.00000000000E+00 0. -1.
         25    2    1    2    0    0  0.12479225159E+03 -0.66407677945E+03 -0.22832842846E+03  0.72410697759E+03  0.12500387471E+03 0.  0.
          2    1    1    2  501    0 -0.19224080350E+02  0.16821364677E+02 -0.11412657304E+04  0.11415515718E+04  0.00000000000E+00 0. -1.
          1    1    1    2  502    0 -0.10556817124E+03  0.64725541477E+03 -0.34493626582E+03  0.74098936444E+03  0.00000000000E+00 0. -1.
         22    1    3    3    0    0 -0.76473041046E+01 -0.18287433529E+03 -0.23187361506E+02  0.18449703928E+03  0.00000000000E+00 0.  1.
         22    1    3    3    0    0  0.13243955570E+03 -0.48120244416E+03 -0.20514106695E+03  0.53960993831E+03  0.00000000000E+00 0.  1.
</event>
<event>
 7    1  0.5213103E-005  0.2377885E+03  0.7818608E-02  0.1252097E+00
          2   -1    0    0  502    0  0.00000000000E+00  0.00000000000E+00  0.21254401742E+04  0.21254401742E+04  0.00000000000E+00 0. -1.
          1   -1    0    0  501    0 -0.00000000000E+00 -0.00000000000E+00 -0.37589601669E+03  0.37589601669E+03  0.00000000000E+00 0. -1.
         25    2    1    2    0    0  0.77975766165E+02  0.24912493915E+03  0.14116142270E+04  0.14409798662E+04  0.12499917466E+03 0.  0.
          2    1    1    2  501    0  0.85933967431E+01 -0.54660375260E+02 -0.34274057829E+03  0.34717820654E+03  0.00000000000E+00 0. -1.
          1    1    1    2  502    0 -0.86569162908E+02 -0.19446456389E+03  0.68067050884E+03  0.71317811813E+03  0.00000000000E+00 0. -1.
         22    1    3    3    0    0  0.57851646276E+02  0.23067102157E+03  0.97769735203E+03  0.10062047731E+04  0.00000000000E+00 0.  1.
         22    1    3    3    0    0  0.20124119889E+02  0.18453917576E+02  0.43391687495E+03  0.43477509317E+03  0.00000000000E+00 0.  1.
</event>
<event>
 7    1  0.5213103E-005  0.2366501E+03  0.7818608E-02  0.1236371E+00
          2   -1    0    0  502    0  0.00000000000E+00  0.00000000000E+00  0.15836936292E+04  0.15836936292E+04  0.00000000000E+00 0. -1.
          1   -1    0    0  501    0 -0.00000000000E+00 -0.00000000000E+00 -0.94263027926E+03  0.94263027926E+03  0.00000000000E+00 0. -1.
         25    2    1    2    0    0  0.24107368028E+03 -0.38142310661E+02 -0.86360628197E+03  0.90609660188E+03  0.12499554593E+03 0.  0.
          2    1    1    2  501    0 -0.17767978326E+03  0.53177389129E+02  0.93769411454E+02  0.20782358532E+03  0.00000000000E+00 0. -1.
          1    1    1    2  502    0 -0.63393897026E+02 -0.15035078468E+02  0.14109002204E+04  0.14124037212E+04  0.00000000000E+00 0. -1.
         22    1    3    3    0    0  0.23459715917E+03 -0.13819586743E+02 -0.83744237336E+03  0.86979108800E+03  0.00000000000E+00 0. -1.
         22    1    3    3    0    0  0.64765211110E+01 -0.24322723918E+02 -0.26163908604E+02  0.36305513878E+02  0.00000000000E+00 0. -1.
</event>
<event>
 7    1  0.5213103E-005  0.4468880E+03  0.7818608E-02  0.1073354E+00
          2   -1    0    0  502    0  0.00000000000E+00  0.00000000000E+00  0.41466320277E+03  0.41466320277E+03  0.00000000000E+00 0. -1.
          1   -1    0    0  501    0 -0.00000000000E+00 -0.00000000000E+00 -0.23358551399E+04  0.23358551399E+04  0.00000000000E+00 0. -1.
         25    2    1    2    0    0  0.10062041609E+03 -0.47352168000E+03 -0.21007686320E+04  0.21594446776E+04  0.12500088259E+03 0.  0.
          2    1    1    2  501    0  0.41129349629E+02  0.28432106241E+03 -0.10883884851E+02  0.28748660643E+03  0.00000000000E+00 0. -1.
          1    1    1    2  502    0 -0.14174976572E+03  0.18920061759E+03  0.19046057971E+03  0.30358705869E+03  0.00000000000E+00 0. -1.
         22    1    3    3    0    0  0.65619107806E+02 -0.36355398280E+03 -0.17950280146E+04  0.18326491587E+04  0.00000000000E+00 0.  1.
         22    1    3    3    0    0  0.35001308286E+02 -0.10996769719E+03 -0.30574061744E+03  0.32679551888E+03  0.00000000000E+00 0.  1.
</event>
<event>
 7    1  0.5213103E-005  0.4457952E+03  0.7818608E-02  0.1245422E+00
          2   -1    0    0  502    0  0.00000000000E+00  0.00000000000E+00  0.53696379172E+03  0.53696379172E+03  0.00000000000E+00 0. -1.
          1   -1    0    0  501    0 -0.00000000000E+00 -0.00000000000E+00 -0.13407143863E+04  0.13407143863E+04  0.00000000000E+00 0. -1.
         25    2    1    2    0    0 -0.14702821562E+03  0.41974412510E+03  0.33840741088E+03  0.57266492031E+03  0.12499243366E+03 0.  0.
          2    1    1    2  501    0 -0.31291050998E+02 -0.40591500843E+01 -0.59176630863E+03  0.59260692757E+03  0.00000000000E+00 0. -1.
          1    1    1    2  502    0  0.17831926662E+03 -0.41568497502E+03 -0.55039169688E+03  0.71240633019E+03  0.00000000000E+00 0. -1.
         22    1    3    3    0    0 -0.57069868180E+02  0.12332917064E+03  0.37881520488E+02  0.14107467448E+03  0.00000000000E+00 0.  1.
         22    1    3    3    0    0 -0.89958347443E+02  0.29641495446E+03  0.30052589039E+03  0.43159024583E+03  0.00000000000E+00 0.  1.
</event>
<event>
 7    1  0.5213103E-005  0.3102135E+03  0.7818608E-02  0.1188959E+00
          2   -1    0    0  502    0  0.00000000000E+00  0.00000000000E+00  0.87559569915E+03  0.87559569915E+03  0.00000000000E+00 0. -1.
          1   -1    0    0  501    0 -0.00000000000E+00 -0.00000000000E+00 -0.41275427623E+03  0.41275427623E+03  0.00000000000E+00 0. -1.
         25    2    1    2    0    0  0.35419131505E+03  0.11948062430E+02  0.24720330316E+03  0.44980979818E+03  0.12500055037E+03 0.  0.
          2    1    1    2  501    0 -0.66787000634E+02  0.48065363405E+02 -0.26380517252E+03  0.27634028237E+03  0.00000000000E+00 0. -1.
          1    1    1    2  502    0 -0.28740431442E+03 -0.60013425835E+02  0.47944329228E+03  0.56219989482E+03  0.00000000000E+00 0. -1.
         22    1    3    3    0    0  0.14619117055E+03 -0.45894182363E+01  0.31334997735E+02  0.14958209515E+03  0.00000000000E+00 0.  1.
         22    1    3    3    0    0  0.20800014450E+03  0.16537480666E+02  0.21586830542E+03  0.30022770302E+03  0.00000000000E+00 0.  1.
</event>
<event>
 7    1  0.5213103E-005  0.4252334E+03  0.7818608E-02  0.1087486E+00
          2   -1    0    0  502    0  0.00000000000E+00  0.00000000000E+00  0.21425213561E+04  0.21425213561E+04  0.00000000000E+00 0. -1.
          1   -1    0    0  501    0 -0.00000000000E+00 -0.00000000000E+00 -0.14805680466E+04  0.14805680466E+04  0.00000000000E+00 0. -1.
         25    2    1    2    0    0 -0.53491128182E+02  0.36582948079E+03  0.98329770247E+01  0.39040403062E+03  0.12500443943E+03 0.  0.
          2    1    1    2  501    0  0.25880117177E+03 -0.35917967387E+03 -0.12466051822E+04  0.13228804046E+04  0.00000000000E+00 0. -1.
          1    1    1    2  502    0 -0.20531004358E+03 -0.66498069149E+01  0.18987255147E+04  0.19098049675E+04  0.00000000000E+00 0. -1.
         22    1    3    3    0    0 -0.57463538869E+02  0.15773525781E+03 -0.47597925907E+02  0.17449364575E+03  0.00000000000E+00 0.  1.
         22    1    3    3    0    0  0.39724106869E+01  0.20809422298E+03  0.57430902931E+02  0.21591038487E+03  0.00000000000E+00 0.  1.
</event>
<event>
 7    1  0.5213103E-005  0.2645975E+03  0.7818608E-02  0.1199084E+00
          2   -1    0    0  502    0  0.00000000000E+00  0.00000000000E+00  0.16433693933E+03  0.16433693933E+03  0.00000000000E+00 0. -1.
          1   -1    0    0  501    0 -0.00000000000E+00 -0.00000000000E+00 -0.14108784848E+04  0.14108784848E+04  0.00000000000E+00 0. -1.
         25    2    1    2    0    0  0.53511184014E+02  0.26635623523E+03 -0.33368783479E+03  0.44808679139E+03  0.12500044269E+03 0.  0.
          2    1    1    2  501    0 -0.13206563356E+03 -0.23055647401E+03 -0.98150404736E+03  0.10168322449E+04  0.00000000000E+00 0. -1.
          1    1    1    2  502    0  0.78554449542E+02 -0.35799761218E+02  0.68650336673E+02  0.11029638784E+03  0.00000000000E+00 0. -1.
         22    1    3    3    0    0  0.45307100287E+02  0.81133877378E+02 -0.40891589379E+02  0.10152616154E+03  0.00000000000E+00 0.  1.
         22    1    3    3    0    0  0.82040837271E+01  0.18522235785E+03 -0.29279624541E+03  0.34656062986E+03  0.00000000000E+00 0.  1.
</event>
<event>
 7    1  0.6186014E-005  0.1181341E+04  0.7818608E-02  0.1094450E+00
          2   -1    0    0  502    0  0.00000000000E+00  0.00000000000E+00  0.19714281037E+04  0.19714281037E+04  0.00000000000E+00 0. -1.
          1   -1    0    0  501    0 -0.00000000000E+00 -0.00000000000E+00 -0.13175331082E+04  0.13175331082E+04  0.00000000000E+00 0. -1.
         25    2    1    2    0    0 -0.40662700643E+03  0.10783551962E+04  0.29322123551E+02  0.11596036349E+04  0.12500140598E+03 0.  0.
          2    1    1    2  501    0 -0.64466828919E+02  0.19838267972E+02 -0.49039027036E+03  0.49500721830E+03  0.00000000000E+00 0. -1.
          1    1    1    2  502    0  0.47109383535E+03 -0.10981934642E+04  0.11149631423E+04  0.16343503587E+04  0.00000000000E+00 0. -1.
         22    1    3    3    0    0 -0.40377819665E+03  0.10664942519E+04  0.43120667926E+02  0.11411863184E+04  0.00000000000E+00 0.  1.
         22    1    3    3    0    0 -0.28488097837E+01  0.11860944347E+02 -0.13798544375E+02  0.18417316440E+02  0.00000000000E+00 0.  1.
</event>
<event>
 7    1  0.5213103E-005  0.2224666E+03  0.7818608E-02  0.1326370E+00
          2   -1    0    0  502    0  0.00000000000E+00  0.00000000000E+00  0.15550789176E+04  0.15550789176E+04  0.00000000000E+00 0. -1.
          1   -1    0    0  501    0 -0.00000000000E+00 -0.00000000000E+00 -0.29567467273E+03  0.29567467273E+03  0.00000000000E+00 0. -1.
         25    2    1    2    0    0 -0.13211660060E+03  0.19487209956E+03  0.28087853712E+03  0.38723073691E+03  0.12499983862E+03 0.  0.
          2    1    1    2  501    0  0.10266355625E+03 -0.19537556383E+03 -0.19205662908E+03  0.29256993267E+03  0.00000000000E+00 0. -1.
          1    1    1    2  502    0  0.29453044348E+02  0.50346427138E+00  0.11705823369E+04  0.11709529208E+04  0.00000000000E+00 0. -1.
         22    1    3    3    0    0  0.24259120215E+02  0.20256674930E+02  0.41926588471E+02  0.52504062830E+02  0.00000000000E+00 0. -1.
         22    1    3    3    0    0 -0.15637572082E+03  0.17461542463E+03  0.23895194865E+03  0.33472667408E+03  0.00000000000E+00 0. -1.
</event>
<event>
 7    1  0.5213103E-005  0.1608995E+04  0.7818608E-02  0.1058194E+00
          2   -1    0    0  502    0  0.00000000000E+00  0.00000000000E+00  0.25224977759E+04  0.25224977759E+04  0.00000000000E+00 0. -1.
          1   -1    0    0  501    0 -0.00000000000E+00 -0.00000000000E+00 -0.22602900532E+04  0.22602900532E+04  0.00000000000E+00 0. -1.
         25    2    1    2    0    0  0.15054752096E+04  0.66525440905E+03  0.89833793885E+03  0.18792698047E+04  0.12499964390E+03 0.  0.
          2    1    1    2  501    0 -0.80230654964E+02 -0.11058175681E+02 -0.12255284543E+04  0.12282016258E+04  0.00000000000E+00 0. -1.
          1    1    1    2  502    0 -0.14252445547E+04 -0.65419623337E+03  0.58939823812E+03  0.16753163986E+04  0.00000000000E+00 0. -1.
         22    1    3    3    0    0  0.90117947610E+03  0.34915730714E+03  0.57445282115E+03  0.11242914733E+04  0.00000000000E+00 0. -1.
         22    1    3    3    0    0  0.60429573352E+03  0.31609710191E+03  0.32388511770E+03  0.75497833138E+03  0.00000000000E+00 0. -1.
</event>
<event>
 7    1  0.5213103E-005  0.5508463E+03  0.7818608E-02  0.1219575E+00
          2   -1    0    0  502    0  0.00000000000E+00  0.00000000000E+00  0.27343740527E+04  0.27343740527E+04  0.00000000000E+00 0. -1.
          1   -1    0    0  501    0 -0.00000000000E+00 -0.00000000000E+00 -0.27063757227E+03  0.27063757227E+03  0.00000000000E+00 0. -1.
         25    2    1    2    0    0  0.56422791842E+03 -0.47759383666E+02  0.11963533453E+04  0.13294812517E+04  0.12499987666E+03 0.  0.
          2    1    1    2  501    0 -0.54616849483E+03  0.19769794353E+02  0.16253869745E+03  0.57018391566E+03  0.00000000000E+00 0. -1.
          1    1    1    2  502    0 -0.18059423589E+02  0.27989589314E+02  0.11048444376E+04  0.11053464576E+04  0.00000000000E+00 0. -1.
         22    1    3    3    0    0  0.37364985080E+03  0.99373820603E+01  0.87420905136E+03  0.95076518029E+03  0.00000000000E+00 0.  1.
         22    1    3    3    0    0  0.19057806761E+03 -0.57696765727E+02  0.32214429398E+03  0.37871607145E+03  0.00000000000E+00 0.  1.
</event>
<event>
 7    1  0.5213103E-005  0.5362959E+03  0.7818608E-02  0.1108090E+00
          2   -1    0    0  502    0  0.00000000000E+00  0.00000000000E+00  0.52272737258E+03  0.52272737258E+03  0.00000000000E+00 0. -1.
          1   -1    0    0  501    0 -0.00000000000E+00 -0.00000000000E+00 -0.37380923559E+04  0.37380923559E+04  0.00000000000E+00 0. -1.
         25    2    1    2    0    0 -0.27681213646E+03  0.55604042745E+03 -0.10562703406E+03  0.64233146006E+03  0.12500687345E+03 0.  0.
          2    1    1    2  501    0  0.16354018738E+03 -0.50429403973E+03 -0.33265107093E+04  0.33684909634E+04  0.00000000000E+00 0. -1.
          1    1    1    2  502    0  0.11327194908E+03 -0.51746387725E+02  0.21677275997E+03  0.24999730510E+03  0.00000000000E+00 0. -1.
         22    1    3    3    0    0 -0.28473138543E+03  0.54694497049E+03 -0.90880802102E+02  0.62328170420E+03  0.00000000000E+00 0.  1.
         22    1    3    3    0    0  0.79192489692E+01  0.90954569579E+01 -0.14746231959E+02  0.19049755864E+02  0.00000000000E+00 0.  1.
</event>
<event>
 7    1  0.5213103E-005  0.4957883E+03  0.7818608E-02  0.1165130E+00
          2   -1    0    0  502    0  0.00000000000E+00  0.00000000000E+00  0.23490607107E+04  0.23490607107E+04  0.00000000000E+00 0. -1.
          1   -1    0    0  501    0 -0.00000000000E+00 -0.00000000000E+00 -0.56967693464E+03  0.56967693464E+03  0.00000000000E+00 0. -1.
         25    2    1    2    0    0  0.44805693315E+03 -0.31538689857E+03 -0.17563086972E+03  0.58880850800E+03  0.12500138224E+03 0.  0.
          2    1    1    2  501    0 -0.26260488073E+02  0.62064779951E+02 -0.15197877883E+03  0.16625041160E+03  0.00000000000E+00 0. -1.
          1    1    1    2  502    0 -0.42179644508E+03  0.25332211862E+03  0.21069934246E+04  0.21636787257E+04  0.00000000000E+00 0. -1.
         22    1    3    3    0    0  0.39551425035E+03 -0.29953862433E+03 -0.11954587206E+03  0.51033922564E+03  0.00000000000E+00 0.  1.
         22    1    3    3    0    0  0.52542682801E+02 -0.15848274235E+02 -0.56084997657E+02  0.78469282361E+02  0.00000000000E+00 0.  1.
</event>
<event>
 7    1  0.5213103E-005  0.3071621E+03  0.7818608E-02  0.1265137E+00
          2   -1    0    0  502    0  0.00000000000E+00  0.00000000000E+00  0.15120623940E+04  0.15120623940E+04  0.00000000000E+00 0. -1.
          1   -1    0    0  501    0 -0.00000000000E+00 -0.00000000000E+00 -0.10878914440E+04  0.10878914440E+04  0.00000000000E+00 0. -1.
         25    2    1    2    0    0  0.72104090999E+02  0.30512222759E+03 -0.52676156148E+03  0.62562196420E+03  0.12500610276E+03 0.  0.
          2    1    1    2  501    0 -0.10341504802E+03 -0.28417533929E+03 -0.46674793609E+03  0.55615099700E+03  0.00000000000E+00 0. -1.
          1    1    1    2  502    0  0.31310957019E+02 -0.20946888296E+02  0.14176804476E+04  0.14181808769E+04  0.00000000000E+00 0. -1.
         22    1    3    3    0    0  0.73814818358E+01  0.23548037121E+03 -0.31376333745E+03  0.39236835172E+03  0.00000000000E+00 0. -1.
         22    1    3    3    0    0  0.64722609163E+02  0.69641856376E+02 -0.21299822403E+03  0.23325361248E+03  0.00000000000E+00 0. -1.
</event>
<event>
 7    1  0.5213103E-005  0.4802608E+03  0.7818608E-02  0.1238661E+00
          2   -1    0    0  502    0  0.00000000000E+00  0.00000000000E+00  0.17775005598E+04  0.17775005598E+04  0.00000000000E+00 0. -1.
          1   -1    0    0  501    0 -0.00000000000E+00 -0.00000000000E+00 -0.11807023018E+04  0.11807023018E+04  0.00000000000E+00 0. -1.
         25    2    1    2    0    0 -0.10983305331E+03 -0.49268295738E+03  0.92404967819E+02  0.52816951767E+03  0.12499826088E+03 0.  0.
          2    1    1    2  501    0  0.92467283953E+02  0.46656630183E+03 -0.90389214853E+03  0.10213987120E+04  0.00000000000E+00 0. -1.
          1    1    1    2  502    0  0.17365769359E+02  0.26116655544E+02  0.14082854387E+04  0.14086346320E+04  0.00000000000E+00 0. -1.
         22    1    3    3    0    0 -0.46407700627E+02 -0.56397353383E+02  0.42449359823E+02  0.84476531034E+02  0.00000000000E+00 0.  1.
         22    1    3    3    0    0 -0.63425352685E+02 -0.43628560399E+03  0.49955607996E+02  0.44369298663E+03  0.00000000000E+00 0.  1.
</event>
<event>
 7    1  0.5213103E-005  0.4846217E+03  0.7818608E-02  0.1194097E+00
          2   -1    0    0  502    0  0.00000000000E+00  0.00000000000E+00  0.11750094187E+04  0.11750094187E+04  0.00000000000E+00 0. -1.
          1   -1    0    0  501    0 -0.00000000000E+00 -0.00000000000E+00 -0.95968107835E+03  0.95968107835E+03  0.00000000000E+00 0. -1.
         25    2    1    2    0    0  0.71285699590E+02  0.49813522293E+03  0.36919587065E+03  0.63651330381E+03  0.12499297473E+03 0.  0.
          2    1    1    2  501    0 -0.42832493644E+02 -0.25351584198E+02 -0.74164620084E+03  0.74331447756E+03  0.00000000000E+00 0. -1.
          1    1    1    2  502    0 -0.28453205945E+02 -0.47278363873E+03  0.58777867053E+03  0.75486271567E+03  0.00000000000E+00 0. -1.
         22    1    3    3    0    0  0.21393398374E+02  0.32870076360E+03  0.17135965512E+03  0.37130311188E+03  0.00000000000E+00 0. -1.
         22    1    3    3    0    0  0.49892301216E+02  0.16943445932E+03  0.19783621554E+03  0.26521019193E+03  0.00000000000E+00 0. -1.
</event>
<event>
 7    1  0.5213103E-005  0.8211350E+03  0.7818608E-02  0.1105127E+00
          2   -1    0    0  502    0  0.00000000000E+00  0.00000000000E+00  0.12743675499E+04  0.12743675499E+04  0.00000000000E+00 0. -1.
          1   -1    0    0  501    0 -0.00000000000E+00 -0.00000000000E+00 -0.11144189745E+04  0.11144189745E+04  0.00000000000E+00 0. -1.
         25    2    1    2    0    0  0.73983984492E+03 -0.34971108719E+03  0.73265466626E+03  0.11054721868E+04  0.12500022101E+03 0.  0.
          2    1    1    2  501    0  0.44068761078E+02  0.72077797276E+02 -0.43162061987E+03  0.43981089580E+03  0.00000000000E+00 0. -1.
          1    1    1    2  502    0 -0.78390860600E+03  0.27763328991E+03 -0.14108547099E+03  0.84350344181E+03  0.00000000000E+00 0. -1.
         22    1    3    3    0    0  0.35013701135E+03 -0.21484202620E+03  0.42409234196E+03  0.59042979045E+03  0.00000000000E+00 0. -1.
         22    1    3    3    0    0  0.38970283357E+03 -0.13486906098E+03  0.30856232430E+03  0.51504239639E+03  0.00000000000E+00 0. -1.
</event>
<event>
 7    1  0.5213103E-005  0.9634280E+03  0.7818608E-02  0.1152464E+00
          2   -1    0    0  502    0  0.00000000000E+00  0.00000000000E+00  0.27847469404E+04  0.27847469404E+04  0.00000000000E+00 0. -1.
          1   -1    0    0  501    0 -0.00000000000E+00 -0.00000000000E+00 -0.20340863091E+04  0.20340863091E+04  0.00000000000E+00 0. -1.
         25    2    1    2    0    0 -0.67777452844E+03  0.66518482358E+03  0.13644060242E+04  0.16670568972E+04  0.12500295440E+03 0.  0.
          2    1    1    2  501    0  0.71425981538E+03 -0.64830247546E+03 -0.17588346104E+04  0.20059816475E+04  0.00000000000E+00 0. -1.
          1    1    1    2  502    0 -0.36485286937E+02 -0.16882348118E+02  0.11450892174E+04  0.11457947048E+04  0.00000000000E+00 0. -1.
         22    1    3    3    0    0 -0.55182194360E+03  0.60229069090E+03  0.11758570672E+04  0.14317476651E+04  0.00000000000E+00 0. -1.
         22    1    3    3    0    0 -0.12595258484E+03  0.62894132681E+02  0.18854895700E+03  0.23530923216E+03  0.00000000000E+00 0. -1.
</event>
<event>
 7    1  0.5213103E-005  0.5841990E+03  0.7818608E-02  0.1097259E+00
          2   -1    0    0  502    0  0.00000000000E+00  0.00000000000E+00  0.12788558262E+04  0.12788558262E+04  0.00000000000E+00 0. -1.
          1   -1    0    0  501    0 -0.00000000000E+00 -0.00000000000E+00 -0.13897258849E+04  0.13897258849E+04  0.00000000000E+00 0. -1.
         25    2    1    2    0    0  0.15000746620E+03  0.62103397552E+03  0.73943897353E+03  0.98518046329E+03  0.12500044402E+03 0.  0.
          2    1    1    2  501    0 -0.64917607905E+02 -0.11433236539E+03 -0.11030140627E+04  0.11108223116E+04  0.00000000000E+00 0. -1.
          1    1    1    2  502    0 -0.85089858300E+02 -0.50670161012E+03  0.25270503050E+03  0.57257893616E+03  0.00000000000E+00 0. -1.
         22    1    3    3    0    0 -0.27409910160E+01  0.22016429966E+01 -0.43778168443E+01  0.56147612555E+01  0.00000000000E+00 0.  1.
         22    1    3    3    0    0  0.15274845722E+03  0.61883233252E+03  0.74381679038E+03  0.97956570203E+03  0.00000000000E+00 0.  1.
</event>
<event>
 7    1  0.5213103E-005  0.1778729E+03  0.7818608E-02  0.1192977E+00
          2   -1    0    0  502    0  0.00000000000E+00  0.00000000000E+00  0.35149385897E+03  0.35149385897E+03  0.00000000000E+00 0. -1.
          1   -1    0    0  501    0 -0.00000000000E+00 -0.00000000000E+00 -0.24791434867E+03  0.24791434867E+03  0.00000000000E+00 0. -1.
         25    2    1    2    0    0  0.16426933025E+03 -0.45034774724E+02  0.14050099262E+03  0.25372746209E+03  0.12499820919E+03 0.  0.
          2    1    1    2  501    0 -0.99328000739E+02  0.16598822602E+03 -0.67782888253E+02  0.20496990718E+03  0.00000000000E+00 0. -1.
          1    1    1    2  502    0 -0.64941329507E+02 -0.12095345130E+03  0.30861405938E+02  0.14071083837E+03  0.00000000000E+00 0. -1.
         22    1    3    3    0    0  0.13239485550E+03 -0.36418334360E+02  0.32933805788E+02  0.14120668682E+03  0.00000000000E+00 0.  1.
         22    1    3    3    0    0  0.31874474746E+02 -0.86164403639E+01  0.10756718683E+03  0.11252077527E+03  0.00000000000E+00 0.  1.
</event>
<event>
 7    1  0.5213103E-005  0.2122573E+03  0.7818608E-02  0.1341547E+00
          2   -1    0    0  502    0  0.00000000000E+00  0.00000000000E+00  0.29481016055E+03  0.29481016055E+03  0.00000000000E+00 0. -1.
          1   -1    0    0  501    0 -0.00000000000E+00 -0.00000000000E+00 -0.89122443192E+03  0.89122443192E+03  0.00000000000E+00 0. -1.
         25    2    1    2    0    0  0.19453436657E+03 -0.74631777470E+02 -0.25474617589E+03  0.35204558761E+03  0.12500783832E+03 0.  0.
          2    1    1    2  501    0  0.12435372607E+02  0.24008070921E+02 -0.54132050615E+03  0.54199531025E+03  0.00000000000E+00 0. -1.
          1    1    1    2  502    0 -0.20696973917E+03  0.50623706550E+02  0.19965241067E+03  0.29199369460E+03  0.00000000000E+00 0. -1.
         22    1    3    3    0    0  0.20437165011E+03 -0.43174501446E+02 -0.23091102626E+03  0.31137069707E+03  0.00000000000E+00 0. -1.
         22    1    3    3    0    0 -0.98372835479E+01 -0.31457276025E+02 -0.23835149636E+02  0.40674890543E+02  0.00000000000E+00 0. -1.
</event>
<event>
 7    1  0.5213103E-005  0.2683165E+03  0.7818608E-02  0.1172532E+00
          2   -1    0    0  502    0  0.00000000000E+00  0.00000000000E+00  0.11354595313E+03  0.11354595313E+03  0.00000000000E+00 0. -1.
          1   -1    0    0  501    0 -0.00000000000E+00 -0.00000000000E+00 -0.11675705010E+04  0.11675705010E+04  0.00000000000E+00 0. -1.
         25    2    1    2    0    0 -0.23187785788E+03 -0.24335974743E+03 -0.46632723096E+03  0.58828379795E+03  0.12500173180E+03 0.  0.
          2    1    1    2  501    0  0.50083316977E+02  0.10285179818E+03 -0.32119366173E+03  0.34095776772E+03  0.00000000000E+00 0. -1.
          1    1    1    2  502    0  0.18179454090E+03  0.14050794925E+03 -0.26650365520E+03  0.35187488848E+03  0.00000000000E+00 0. -1.
         22    1    3    3    0    0 -0.18433449178E+03 -0.15935559414E+03 -0.40881660723E+03  0.47592481401E+03  0.00000000000E+00 0. -1.
         22    1    3    3    0    0 -0.47543366102E+02 -0.84004153289E+02 -0.57510623724E+02  0.11235898394E+03  0.00000000000E+00 0. -1.
</event>
<event>
 7    1  0.5213103E-005  0.3358057E+03  0.7818608E-02  0.1189454E+00
          2   -1    0    0  502    0  0.00000000000E+00  0.00000000000E+00  0.43066153816E+03  0.43066153816E+03  0.00000000000E+00 0. -1.
          1   -1    0    0  501    0 -0.00000000000E+00 -0.00000000000E+00 -0.11894485150E+04  0.11894485150E+04  0.00000000000E+00 0. -1.
         25    2    1    2    0    0 -0.12052919610E+03 -0.31295458477E+03 -0.11300397630E+03  0.37531725517E+03  0.12500113652E+03 0.  0.
          2    1    1    2  501    0  0.72335414038E+02 -0.21969587955E+02 -0.84749367476E+03  0.85085874484E+03  0.00000000000E+00 0. -1.
          1    1    1    2  502    0  0.48193782057E+02  0.33492417272E+03  0.20171067425E+03  0.39393405312E+03  0.00000000000E+00 0. -1.
         22    1    3    3    0    0  0.12644252897E+02  0.37819434272E+01 -0.10177972729E+02  0.16666474021E+02  0.00000000000E+00 0.  1.
         22    1    3    3    0    0 -0.13317344899E+03 -0.31673652819E+03 -0.10282600357E+03  0.35865078115E+03  0.00000000000E+00 0.  1.
</event>
<event>
 7    1  0.5213103E-005  0.2325590E+03  0.7818608E-02  0.1227314E+00
          2   -1    0    0  502    0  0.00000000000E+00  0.00000000000E+00  0.31997450732E+03  0.31997450732E+03  0.00000000000E+00 0. -1.
          1   -1    0    0  501    0 -0.00000000000E+00 -0.00000000000E+00 -0.12391696775E+04  0.12391696775E+04  0.00000000000E+00 0. -1.
         25    2    1    2    0    0  0.28187815996E+03 -0.41828773303E+02 -0.10635158043E+03  0.32884725683E+03  0.12499966530E+03 0.  0.
          2    1    1    2  501    0 -0.21543969021E+03  0.71533671636E+02 -0.10021209311E+04  0.10275104315E+04  0.00000000000E+00 0. -1.
          1    1    1    2  502    0 -0.66438469745E+02 -0.29704898333E+02  0.18927734130E+03  0.20278649653E+03  0.00000000000E+00 0. -1.
         22    1    3    3    0    0  0.20708573398E+03 -0.44056324763E+02 -0.17143858171E+02  0.21241321249E+03  0.00000000000E+00 0.  1.
         22    1    3    3    0    0  0.74792425982E+02  0.22275514605E+01 -0.89207722258E+02  0.11643404434E+03  0.00000000000E+00 0.  1.
</event>
<event>
 7    1  0.5213103E-005  0.2139392E+03  0.7818608E-02  0.1174557E+00
          2   -1    0    0  502    0  0.00000000000E+00  0.00000000000E+00  0.93607885557E+03  0.93607885557E+03  0.00000000000E+00 0. -1.
          1   -1    0    0  501    0 -0.00000000000E+00 -0.00000000000E+00 -0.32837007267E+03  0.32837007267E+03  0.00000000000E+00 0. -1.
         25    2    1    2    0    0 -0.18766224726E+03 -0.26291641073E+03  0.39786514144E+03  0.52750736042E+03  0.12500074577E+03 0.  0.
          2    1    1    2  501    0  0.78255257998E+02  0.11633869085E+03 -0.22504827462E+03  0.26515147049E+03  0.00000000000E+00 0. -1.
          1    1    1    2  502    0  0.10940698926E+03  0.14657771989E+03  0.43489191609E+03  0.47179009734E+03  0.00000000000E+00 0. -1.
         22    1    3    3    0    0 -0.45650651627E+02 -0.91751195022E+02  0.48550811066E+02  0.11339949311E+03  0.00000000000E+00 0. -1.
         22    1    3    3    0    0 -0.14201159563E+03 -0.17116521571E+03  0.34931433037E+03  0.41410786731E+03  0.00000000000E+00 0. -1.
</event>
<event>
 7    1  0.5213103E-005  0.1672808E+03  0.7818608E-02  0.1257217E+00
          2   -1    0    0  502    0  0.00000000000E+00  0.00000000000E+00  0.24933539561E+04  0.24933539561E+04  0.00000000000E+00 0. -1.
          1   -1    0    0  501    0 -0.00000000000E+00 -0.00000000000E+00 -0.22612730381E+03  0.22612730381E+03  0.00000000000E+00 0. -1.
         25    2    1    2    0    0  0.92688393044E+02 -0.20470267529E+03  0.11464915285E+04  0.11749729050E+04  0.12499671611E+03 0.  0.
          2    1    1    2  501    0 -0.34943966462E+02  0.66091871341E+02 -0.20090564771E+03  0.21436486543E+03  0.00000000000E+00 0. -1.
          1    1    1    2  502    0 -0.57744426581E+02  0.13861080395E+03  0.13216407715E+04  0.13301434895E+04  0.00000000000E+00 0. -1.
         22    1    3    3    0    0  0.79991060795E+01  0.28291660380E+01  0.19717035247E+01  0.87107688141E+01  0.00000000000E+00 0. -1.
         22    1    3    3    0    0  0.84689286964E+02 -0.20753184133E+03  0.11445198250E+04  0.11662621362E+04  0.00000000000E+00 0. -1.
</event>
<event>
 7    1  0.5213103E-005  0.3892620E+03  0.7818608E-02  0.1079306E+00
          2   -1    0    0  502    0  0.00000000000E+00  0.00000000000E+00  0.67957085467E+03  0.67957085467E+03  0.00000000000E+00 0. -1.
          1   -1    0    0  501    0 -0.00000000000E+00 -0.00000000000E+00 -0.18231537455E+04  0.18231537455E+04  0.00000000000E+00 0. -1.
         25    2    1    2    0    0 -0.53611922431E+02 -0.58215983636E+03 -0.55558578220E+03  0.81614027423E+03  0.12500029018E+03 0.  0.
          2    1    1    2  501    0  0.12576427295E+03  0.21647932804E+03 -0.10577192227E+04  0.10869452175E+04  0.00000000000E+00 0. -1.
          1    1    1    2  502    0 -0.72152350524E+02  0.36568050831E+03  0.46972211409E+03  0.59963910839E+03  0.00000000000E+00 0. -1.
         22    1    3    3    0    0 -0.24247691008E+02 -0.19403413607E+02 -0.51073737927E+02  0.59774322955E+02  0.00000000000E+00 0.  1.
         22    1    3    3    0    0 -0.29364231423E+02 -0.56275642275E+03 -0.50451204427E+03  0.75636595128E+03  0.00000000000E+00 0.  1.
</event>
<event>
 7    1  0.5213103E-005  0.6166640E+03  0.7818608E-02  0.1059186E+00
          2   -1    0    0  502    0  0.00000000000E+00  0.00000000000E+00  0.46885431510E+03  0.46885431510E+03  0.00000000000E+00 0. -1.
          1   -1    0    0  501    0 -0.00000000000E+00 -0.00000000000E+00 -0.37011882880E+04  0.37011882880E+04  0.00000000000E+00 0. -1.
         25    2    1    2    0    0 -0.61439833505E+03  0.33084181490E+03 -0.25196467214E+03  0.75236466584E+03  0.12499909521E+03 0.  0.
          2    1    1    2  501    0  0.64767988557E+02 -0.19807471051E+03 -0.28230924633E+04  0.28307736645E+04  0.00000000000E+00 0. -1.
          1    1    1    2  502    0  0.54963034649E+03 -0.13276710439E+03 -0.15727683748E+03  0.58690427277E+03  0.00000000000E+00 0. -1.
         22    1    3    3    0    0 -0.58437669761E+03  0.33778129708E+03 -0.25469561629E+03  0.72143065247E+03  0.00000000000E+00 0. -1.
         22    1    3    3    0    0 -0.30021637440E+02 -0.69394821712E+01  0.27309441565E+01  0.30934013374E+02  0.00000000000E+00 0. -1.
</event>
<event>
 7    1  0.5213103E-005  0.6230213E+03  0.7818608E-02  0.1106392E+00
          2   -1    0    0  502    0  0.00000000000E+00  0.00000000000E+00  0.15556572951E+04  0.15556572951E+04  0.00000000000E+00 0. -1.
          1   -1    0    0  501    0 -0.00000000000E+00 -0.00000000000E+00 -0.26676618115E+04  0.26676618115E+04  0.00000000000E+00 0. -1.
         25    2    1    2    0    0 -0.15749498730E+03 -0.66184270896E+03 -0.28630610987E+03  0.74862303347E+03  0.12499926110E+03 0.  0.
          2    1    1    2  501    0 -0.65529283382E+02  0.87793683091E+02 -0.20770877343E+04  0.20799748253E+04  0.00000000000E+00 0. -1.
          1    1    1    2  502    0  0.22302427068E+03  0.57404902587E+03  0.12513893278E+04  0.13947212478E+04  0.00000000000E+00 0. -1.
         22    1    3    3    0    0 -0.17468256504E+03 -0.54976283385E+03 -0.22073207671E+03  0.61763728975E+03  0.00000000000E+00 0. -1.
         22    1    3    3    0    0  0.17187577738E+02 -0.11207987511E+03 -0.65574033154E+02  0.13098574372E+03  0.00000000000E+00 0. -1.
</event>
<event>
 7    1  0.5213103E-005  0.2432171E+03  0.7818608E-02  0.1175645E+00
          2   -1    0    0  502    0  0.00000000000E+00  0.00000000000E+00  0.15652722857E+03  0.15652722857E+03  0.00000000000E+00 0. -1.
          1   -1    0    0  501    0 -0.00000000000E+00 -0.00000000000E+00 -0.32672635220E+04  0.32672635220E+04  0.00000000000E+00 0. -1.
         25    2    1    2    0    0  0.26703232564E+03  0.19576521986E+03 -0.15882688097E+04  0.16272223569E+04  0.12499801102E+03 0.  0.
          2    1    1    2  501    0 -0.15741932069E+03 -0.14261521258E+03 -0.16240931447E+04  0.16379250545E+04  0.00000000000E+00 0. -1.
          1    1    1    2  502    0 -0.10961300495E+03 -0.53150007283E+02  0.10162566091E+03  0.15864333924E+03  0.00000000000E+00 0. -1.
         22    1    3    3    0    0  0.22862163168E+03  0.18065180173E+03 -0.15181209028E+04  0.15458311678E+04  0.00000000000E+00 0.  1.
         22    1    3    3    0    0  0.38410693968E+02  0.15113418134E+02 -0.70147906915E+02  0.81391189102E+02  0.00000000000E+00 0.  1.
</event>
<event>
 7    1  0.5213103E-005  0.1054088E+03  0.7818608E-02  0.1295560E+00
          2   -1    0    0  502    0  0.00000000000E+00  0.00000000000E+00  0.12369986317E+04  0.12369986317E+04  0.00000000000E+00 0. -1.
          1   -1    0    0  501    0 -0.00000000000E+00 -0.00000000000E+00 -0.56434058712E+03  0.56434058712E+03  0.00000000000E+00 0. -1.
         25    2    1    2    0    0 -0.11972846531E+03 -0.12705974137E+03  0.38915153507E+03  0.44445701845E+03  0.12499616281E+03 0.  0.
          2    1    1    2  501    0  0.37318512876E+02  0.73232823426E+02 -0.53055879471E+03  0.53688765350E+03  0.00000000000E+00 0. -1.
          1    1    1    2  502    0  0.82409952434E+02  0.53826917940E+02  0.81406530424E+03  0.81999454688E+03  0.00000000000E+00 0. -1.
         22    1    3    3    0    0 -0.92849643187E+02 -0.98096175918E+02  0.14913350782E+03  0.20120814875E+03  0.00000000000E+00 0. -1.
         22    1    3    3    0    0 -0.26878822123E+02 -0.28963565449E+02  0.24001802725E+03  0.24324886970E+03  0.00000000000E+00 0. -1.
</event>
<event>
 7    1  0.5213103E-005  0.5469222E+03  0.7818608E-02  0.1090964E+00
          2   -1    0    0  502    0  0.00000000000E+00  0.00000000000E+00  0.17672427015E+04  0.17672427015E+04  0.00000000000E+00 0. -1.
          1   -1    0    0  501    0 -0.00000000000E+00 -0.00000000000E+00 -0.75657149388E+03  0.75657149388E+03  0.00000000000E+00 0. -1.
         25    2    1    2    0    0 -0.36607175509E+03  0.31710155953E+03  0.60089836850E+03  0.78183518552E+03  0.12500191645E+03 0.  0.
          2    1    1    2  501    0 -0.15242247888E+03  0.56398352771E+01 -0.56856069196E+03  0.58866431881E+03  0.00000000000E+00 0. -1.
          1    1    1    2  502    0  0.51849423397E+03 -0.32274139481E+03  0.97833353109E+03  0.11533146911E+04  0.00000000000E+00 0. -1.
         22    1    3    3    0    0 -0.77343732486E+02  0.14418357797E+03  0.19995099160E+03  0.25836283818E+03  0.00000000000E+00 0.  1.
         22    1    3    3    0    0 -0.28872802260E+03  0.17291798156E+03  0.40094737690E+03  0.52347234734E+03  0.00000000000E+00 0.  1.
</event>
<event>
 7    1  0.5213103E-005  0.4760070E+02  0.7818608E-02  0.1471007E+00
          2   -1    0    0  502    0  0.00000000000E+00  0.00000000000E+00  0.32079807794E+03  0.32079807794E+03  0.00000000000E+00 0. -1.
          1   -1    0    0  501    0 -0.00000000000E+00 -0.00000000000E+00 -0.52949069051E+03  0.52949069051E+03  0.00000000000E+00 0. -1.
         25    2    1    2    0    0 -0.56512452202E+01  0.49060180339E+02  0.40202766187E+02  0.14028928740E+03  0.12500393547E+03 0.  0.
          2    1    1    2  501    0 -0.36083421893E+02 -0.24412365072E+02 -0.47589394034E+03  0.47788389736E+03  0.00000000000E+00 0. -1.
          1    1    1    2  502    0  0.41734667113E+02 -0.24647815267E+02  0.22699856158E+03  0.23211558370E+03  0.00000000000E+00 0. -1.
         22    1    3    3    0    0 -0.29445560331E+02 -0.35750453248E+02  0.14404168325E+02  0.48503773005E+02  0.00000000000E+00 0. -1.
         22    1    3    3    0    0  0.23794315110E+02  0.84810633587E+02  0.25798597862E+02  0.91785514394E+02  0.00000000000E+00 0. -1.
</event>
<event>
 7    1  0.5213103E-005  0.8386752E+03  0.7818608E-02  0.1037630E+00
          2   -1    0    0  502    0  0.00000000000E+00  0.00000000000E+00  0.12751018360E+04  0.12751018360E+04  0.00000000000E+00 0. -1.
          1   -1    0    0  501    0 -0.00000000000E+00 -0.00000000000E+00 -0.13132414946E+04  0.13132414946E+04  0.00000000000E+00 0. -1.
         25    2    1    2    0    0 -0.54534059964E+02  0.88440724576E+03 -0.38583680554E+03  0.97449792602E+03  0.12500410898E+03 0.  0.
          2    1    1    2  501    0  0.23087474026E+03 -0.77296095072E+03 -0.35461610233E+03  0.88120619440E+03  0.00000000000E+00 0. -1.
          1    1    1    2  502    0 -0.17634068029E+03 -0.11144629505E+03  0.70231324923E+03  0.73263921015E+03  0.00000000000E+00 0. -1.
         22    1    3    3    0    0 -0.29741699288E+02  0.49676978114E+03 -0.28378429652E+03  0.57288594945E+03  0.00000000000E+00 0.  1.
         22    1    3    3    0    0 -0.24792360676E+02  0.38763746463E+03 -0.10205250902E+03  0.40161197657E+03  0.00000000000E+00 0.  1.
</event>
<event>
 7    1  0.5213103E-005  0.6460368E+03  0.7818608E-02  0.1186071E+00
          2   -1    0    0  502    0  0.00000000000E+00  0.00000000000E+00  0.26921990496E+04  0.26921990496E+04  0.00000000000E+00 0. -1.
          1   -1    0    0  501    0 -0.00000000000E+00 -0.00000000000E+00 -0.45272798305E+03  0.45272798305E+03  0.00000000000E+00 0. -1.
         25    2    1    2    0    0 -0.61912002991E+03  0.21773491098E+03 -0.21789996652E+01  0.66809073816E+03  0.12498953348E+03 0.  0.
          2    1    1    2  501    0  0.59207469587E+03 -0.18718951396E+03  0.70432811512E+03  0.93897308448E+03  0.00000000000E+00 0. -1.
          1    1    1    2  502    0  0.27045334033E+02 -0.30545397020E+02  0.15373219511E+04  0.15378632100E+04  0.00000000000E+00 0. -1.
         22    1    3    3    0    0 -0.19988236885E+03  0.95802245249E+02 -0.54780213874E+02  0.22832411919E+03  0.00000000000E+00 0. -1.
         22    1    3    3    0    0 -0.41923766106E+03  0.12193266574E+03  0.52601214209E+02  0.43976661897E+03  0.00000000000E+00 0. -1.
</event>
<event>
 7    1  0.5213103E-005  0.2042972E+03  0.7818608E-02  0.1244462E+00
          2   -1    0    0  502    0  0.00000000000E+00  0.00000000000E+00  0.17014771243E+04  0.17014771243E+04  0.00000000000E+00 0. -1.
          1   -1    0    0  501    0 -0.00000000000E+00 -0.00000000000E+00 -0.26234376777E+03  0.26234376777E+03  0.00000000000E+00 0. -1.
         25    2    1    2    0    0 -0.28599274647E+02  0.25549523447E+03  0.24197186216E+03  0.37452776824E+03  0.12499973502E+03 0.  0.
          2    1    1    2  501    0  0.50678964302E+02 -0.18957313631E+03 -0.14584178749E+03  0.24449163260E+03  0.00000000000E+00 0. -1.
          1    1    1    2  502    0 -0.22079689655E+02 -0.65922098164E+02  0.13430032819E+04  0.13448014913E+04  0.00000000000E+00 0. -1.
         22    1    3    3    0    0  0.22624104281E+02  0.21750509387E+03  0.16150349279E+03  0.27185233885E+03  0.00000000000E+00 0.  1.
         22    1    3    3    0    0 -0.51223378928E+02  0.37990140608E+02  0.80468369368E+02  0.10267542939E+03  0.00000000000E+00 0.  1.
</event>
<event>
 7    1  0.5213103E-005  0.2202757E+03  0.7818608E-02  0.1372794E+00
          2   -1    0    0  502    0  0.00000000000E+00  0.00000000000E+00  0.69291463050E+03  0.69291463050E+03  0.00000000000E+00 0. -1.
          1   -1    0    0  501    0 -0.00000000000E+00 -0.00000000000E+00 -0.14405117808E+03  0.14405117808E+03  0.00000000000E+00 0. -1.
         25    2    1    2    0    0  0.17246506362E+03 -0.14356177002E+03  0.22963713339E+02  0.25788161604E+03  0.12498566230E+03 0.  0.
          2    1    1    2  501    0  0.79607773279E+01  0.18362120805E+02  0.24056290968E+02  0.31292915992E+02  0.00000000000E+00 0. -1.
          1    1    1    2  502    0 -0.18042584094E+03  0.12519964922E+03  0.50184344812E+03  0.54779127655E+03  0.00000000000E+00 0. -1.
         22    1    3    3    0    0  0.62768427877E+02 -0.11273299646E+03  0.53862017715E+02  0.13982031677E+03  0.00000000000E+00 0. -1.
         22    1    3    3    0    0  0.10969663574E+03 -0.30828773560E+02 -0.30898304377E+02  0.11806129927E+03  0.00000000000E+00 0. -1.
</event>
<event>
 7    1  0.5213103E-005  0.4374648E+02  0.7818608E-02  0.1494120E+00
          2   -1    0    0  502    0  0.00000000000E+00  0.00000000000E+00  0.12058042465E+04  0.12058042465E+04  0.00000000000E+00 0. -1.
          1   -1    0    0  501    0 -0.00000000000E+00 -0.00000000000E+00 -0.72693375829E+02  0.72693375829E+02  0.00000000000E+00 0. -1.
         25    2    1    2    0    0 -0.13960811204E+02 -0.13727752645E+02  0.22057731069E+03  0.25428470291E+03  0.12499201855E+03 0.  0.
          2    1    1    2  501    0  0.42692231983E+02 -0.14512739168E+02 -0.46244126418E+02  0.64589205739E+02  0.00000000000E+00 0. -1.
          1    1    1    2  502    0 -0.28731420779E+02  0.28240491813E+02  0.95877768640E+03  0.95962371368E+03  0.00000000000E+00 0. -1.
         22    1    3    3    0    0 -0.42190378484E+01 -0.28469973955E+02  0.23165054333E+03  0.23343160438E+03  0.00000000000E+00 0.  1.
         22    1    3    3    0    0 -0.97417733557E+01  0.14742221310E+02 -0.11073232641E+02  0.20853098532E+02  0.00000000000E+00 0.  1.
</event>
<event>
 7    1  0.5213103E-005  0.2717104E+03  0.7818608E-02  0.1151721E+00
          2   -1    0    0  502    0  0.00000000000E+00  0.00000000000E+00  0.77922020972E+03  0.77922020972E+03  0.00000000000E+00 0. -1.
          1   -1    0    0  501    0 -0.00000000000E+00 -0.00000000000E+00 -0.35135118048E+03  0.35135118048E+03  0.00000000000E+00 0. -1.
         25    2    1    2    0    0 -0.37650387017E+03  0.90749196048E+02 -0.13891823955E+01  0.40695815710E+03  0.12498972345E+03 0.  0.
          2    1    1    2  501    0  0.12173333890E+03 -0.76553596081E+02 -0.72242508985E+02  0.16092991946E+03  0.00000000000E+00 0. -1.
          1    1    1    2  502    0  0.25477053127E+03 -0.14195599966E+02  0.50150072062E+03  0.56268331364E+03  0.00000000000E+00 0. -1.
         22    1    3    3    0    0 -0.25638290986E+03  0.25898882861E+02  0.47364769716E+02  0.26200452289E+03  0.00000000000E+00 0.  1.
         22    1    3    3    0    0 -0.12012096031E+03  0.64850313187E+02 -0.48753952111E+02  0.14495363421E+03  0.00000000000E+00 0.  1.
</event>
<event>
 7    1  0.5213103E-005  0.5782996E+03  0.7818608E-02  0.1182232E+00
          2   -1    0    0  502    0  0.00000000000E+00  0.00000000000E+00  0.24555073735E+04  0.24555073735E+04  0.00000000000E+00 0. -1.
          1   -1    0    0  501    0 -0.00000000000E+00 -0.00000000000E+00 -0.38513561321E+03  0.38513561321E+03  0.00000000000E+00 0. -1.
         25    2    1    2    0    0 -0.48542047487E+01  0.59024553191E+03  0.80515996230E+02  0.60870512427E+03  0.12500300562E+03 0.  0.
          2    1    1    2  501    0  0.37237149225E+02 -0.55539717715E+03  0.52136137334E+03  0.76267313528E+03  0.00000000000E+00 0. -1.
          1    1    1    2  502    0 -0.32382944476E+02 -0.34848354769E+02  0.14684943907E+04  0.14692647271E+04  0.00000000000E+00 0. -1.
         22    1    3    3    0    0  0.56550445002E+02  0.23486648114E+03  0.14052347084E+02  0.24198695264E+03  0.00000000000E+00 0. -1.
         22    1    3    3    0    0 -0.61404649751E+02  0.35537905078E+03  0.66463649146E+02  0.36671817163E+03  0.00000000000E+00 0. -1.
</event>
<event>
 7    1  0.5213103E-005  0.7569522E+02  0.7818608E-02  0.1386165E+00
          2   -1    0    0  502    0  0.00000000000E+00  0.00000000000E+00  0.17150955976E+04  0.17150955976E+04  0.00000000000E+00 0. -1.
          1   -1    0    0  501    0 -0.00000000000E+00 -0.00000000000E+00 -0.63421628295E+03  0.63421628295E+03  0.00000000000E+00 0. -1.
         25    2    1    2    0    0  0.39215160061E+02 -0.35306879430E+02  0.11030979327E+03  0.17486609718E+03  0.12500198774E+03 0.  0.
          2    1    1    2  501    0 -0.65439579443E+01  0.76042646554E+02 -0.59908280681E+03  0.60392509213E+03  0.00000000000E+00 0. -1.
          1    1    1    2  502    0 -0.32671202117E+02 -0.40735767124E+02  0.15696523282E+04  0.15705206912E+04  0.00000000000E+00 0. -1.
         22    1    3    3    0    0 -0.35617778922E+02  0.18949342137E+02  0.17815195235E+02  0.44103116942E+02  0.00000000000E+00 0. -1.
         22    1    3    3    0    0  0.74832938984E+02 -0.54256221567E+02  0.92494598035E+02  0.13076298024E+03  0.00000000000E+00 0. -1.
</event>
<event>
 7    1  0.5213103E-005  0.3383108E+02  0.7818608E-02  0.1644498E+00
          2   -1    0    0  502    0  0.00000000000E+00  0.00000000000E+00  0.18598474134E+04  0.18598474134E+04  0.00000000000E+00 0. -1.
          1   -1    0    0  501    0 -0.00000000000E+00 -0.00000000000E+00 -0.14289164811E+04  0.14289164811E+04  0.00000000000E+00 0. -1.
         25    2    1    2    0    0 -0.40884688017E+01 -0.16108628812E+02 -0.32265563114E+02  0.13016130649E+03  0.12499878257E+03 0.  0.
          2    1    1    2  501    0  0.10957858649E+02 -0.17055304003E+02 -0.13474684461E+04  0.13476209301E+04  0.00000000000E+00 0. -1.
          1    1    1    2  502    0 -0.68693898470E+01  0.33163932815E+02  0.18106649415E+04  0.18109816579E+04  0.00000000000E+00 0. -1.
         22    1    3    3    0    0  0.59487368712E+01  0.54399689019E+02 -0.10820380802E+02  0.55783458806E+02  0.00000000000E+00 0. -1.
         22    1    3    3    0    0 -0.10037205673E+02 -0.70508317831E+02 -0.21445182313E+02  0.74377847680E+02  0.00000000000E+00 0. -1.
</event>
<event>
 7    1  0.5213103E-005  0.6878546E+03  0.7818608E-02  0.1158464E+00
          2   -1    0    0  502    0  0.00000000000E+00  0.00000000000E+00  0.57160415839E+03  0.57160415839E+03  0.00000000000E+00 0. -1.
          1   -1    0    0  501    0 -0.00000000000E+00 -0.00000000000E+00 -0.28983321230E+04  0.28983321230E+04  0.00000000000E+00 0. -1.
         25    2    1    2    0    0  0.52713903604E+03  0.48591185656E+03 -0.20947739417E+03  0.75729261578E+03  0.12500172628E+03 0.  0.
          2    1    1    2  501    0 -0.31065661236E+02 -0.42297852574E+02 -0.20422642244E+04  0.20429384097E+04  0.00000000000E+00 0. -1.
          1    1    1    2  502    0 -0.49607337481E+03 -0.44361400399E+03 -0.74986346083E+02  0.66970525593E+03  0.00000000000E+00 0. -1.
         22    1    3    3    0    0  0.43810927027E+03  0.45913837333E+03 -0.18783858079E+03  0.66183918817E+03  0.00000000000E+00 0. -1.
         22    1    3    3    0    0  0.89029765770E+02  0.26773483233E+02 -0.21638813372E+02  0.95453427605E+02  0.00000000000E+00 0. -1.
</event>
<event>
 7    1  0.5213103E-005  0.1802727E+03  0.7818608E-02  0.1328068E+00
          2   -1    0    0  502    0  0.00000000000E+00  0.00000000000E+00  0.97078666732E+02  0.97078666732E+02  0.00000000000E+00 0. -1.
          1   -1    0    0  501    0 -0.00000000000E+00 -0.00000000000E+00 -0.85239044543E+03  0.85239044543E+03  0.00000000000E+00 0. -1.
         25    2    1    2    0    0 -0.10711285436E+03  0.16298079263E+03 -0.42772518676E+03  0.48642548189E+03  0.12500004685E+03 0.  0.
          2    1    1    2  501    0  0.11432691837E+03 -0.12790400532E+03 -0.36981930572E+03  0.40767192413E+03  0.00000000000E+00 0. -1.
          1    1    1    2  502    0 -0.72140640124E+01 -0.35076787310E+02  0.42232713779E+02  0.55371706139E+02  0.00000000000E+00 0. -1.
         22    1    3    3    0    0 -0.42873646068E+02  0.13790216172E+03 -0.36754498637E+03  0.39489805361E+03  0.00000000000E+00 0. -1.
         22    1    3    3    0    0 -0.64239208293E+02  0.25078630906E+02 -0.60180200383E+02  0.91527428284E+02  0.00000000000E+00 0. -1.
</event>
<event>
 7    1  0.5213103E-005  0.3694894E+02  0.7818608E-02  0.1558101E+00
          2   -1    0    0  502    0  0.00000000000E+00  0.00000000000E+00  0.39726664547E+03  0.39726664547E+03  0.00000000000E+00 0. -1.
          1   -1    0    0  501    0 -0.00000000000E+00 -0.00000000000E+00 -0.69341859074E+02  0.69341859074E+02  0.00000000000E+00 0. -1.
         25    2    1    2    0    0  0.16483032699E+02  0.35466046721E+02  0.31737784115E+03  0.34334365444E+03  0.12500656046E+03 0.  0.
          2    1    1    2  501    0  0.21492553919E+02 -0.22616084230E+02 -0.45002170256E+02  0.54759587905E+02  0.00000000000E+00 0. -1.
          1    1    1    2  502    0 -0.37975586617E+02 -0.12849962491E+02  0.55549115509E+02  0.68505262198E+02  0.00000000000E+00 0. -1.
         22    1    3    3    0    0  0.36078364099E+02  0.34453997672E+02  0.31971482704E+03  0.32358352390E+03  0.00000000000E+00 0.  1.
         22    1    3    3    0    0 -0.19595331401E+02  0.10120490490E+01 -0.23369858931E+01  0.19760130542E+02  0.00000000000E+00 0.  1.
</event>
<event>
 7    1  0.5213103E-005  0.3084013E+03  0.7818608E-02  0.1297884E+00
          2   -1    0    0  502    0  0.00000000000E+00  0.00000000000E+00  0.57534445528E+03  0.57534445528E+03  0.00000000000E+00 0. -1.
          1   -1    0    0  501    0 -0.00000000000E+00 -0.00000000000E+00 -0.35857327989E+03  0.35857327989E+03  0.00000000000E+00 0. -1.
         25    2    1    2    0    0  0.29161378416E+02 -0.29249243157E+03  0.39781500176E+03  0.51018367690E+03  0.12501359941E+03 0.  0.
          2    1    1    2  501    0 -0.88096351620E+01  0.31097884299E+03 -0.21638584824E+03  0.37895683894E+03  0.00000000000E+00 0. -1.
          1    1    1    2  502    0 -0.20351743254E+02 -0.18486411423E+02  0.35342021866E+02  0.44777219323E+02  0.00000000000E+00 0. -1.
         22    1    3    3    0    0  0.86274343744E+01  0.82982629548E+01  0.12630672028E+01  0.12036990102E+02  0.00000000000E+00 0. -1.
         22    1    3    3    0    0  0.20533944041E+02 -0.30079069452E+03  0.39655193456E+03  0.49814668680E+03  0.00000000000E+00 0. -1.
</event>
<event>
 7    1  0.5213103E-005  0.4092351E+03  0.7818608E-02  0.1167702E+00
          2   -1    0    0  502    0  0.00000000000E+00  0.00000000000E+00  0.28340151357E+04  0.28340151357E+04  0.00000000000E+00 0. -1.
          1   -1    0    0  501    0 -0.00000000000E+00 -0.00000000000E+00 -0.60232359478E+03  0.60232359478E+03  0.00000000000E+00 0. -1.
         25    2    1    2    0    0 -0.39949489564E+03  0.47841454345E+01  0.11870828248E+04  0.12587334078E+04  0.12500039757E+03 0.  0.
          2    1    1    2  501    0 -0.13824642717E+02 -0.78049285401E+02 -0.53619366676E+03  0.54202071913E+03  0.00000000000E+00 0. -1.
          1    1    1    2  502    0  0.41331953835E+03  0.73265139966E+02  0.15808023829E+04  0.16355846035E+04  0.00000000000E+00 0. -1.
         22    1    3    3    0    0 -0.68314065223E+02 -0.29262709551E+02  0.12223856080E+03  0.14305727323E+03  0.00000000000E+00 0.  1.
         22    1    3    3    0    0 -0.33118083041E+03  0.34046854986E+02  0.10648442640E+04  0.11156761346E+04  0.00000000000E+00 0.  1.
</event>
<event>
 7    1  0.5213103E-005  0.2042983E+03  0.7818608E-02  0.1235363E+00
          2   -1    0    0  502    0  0.00000000000E+00  0.00000000000E+00  0.55165893952E+03  0.55165893952E+03  0.00000000000E+00 0. -1.
          1   -1    0    0  501    0 -0.00000000000E+00 -0.00000000000E+00 -0.38733934707E+03  0.38733934707E+03  0.00000000000E+00 0. -1.
         25    2    1    2    0    0  0.24612204964E+02 -0.26409220829E+03  0.13990056010E+03  0.32488321101E+03  0.12500591574E+03 0.  0.
          2    1    1    2  501    0 -0.45130967824E+02  0.19065341795E+03 -0.25665083307E+03  0.32288570756E+03  0.00000000000E+00 0. -1.
          1    1    1    2  502    0  0.20518762861E+02  0.73438790337E+02  0.28106986541E+03  0.29122936802E+03  0.00000000000E+00 0. -1.
         22    1    3    3    0    0 -0.29848783772E+02 -0.20265916244E+02 -0.44388104584E+01  0.36350519833E+02  0.00000000000E+00 0. -1.
         22    1    3    3    0    0  0.54460988735E+02 -0.24382629204E+03  0.14433937056E+03  0.28853269118E+03  0.00000000000E+00 0. -1.
</event>
<event>
 7    1  0.5213103E-005  0.4125411E+03  0.7818608E-02  0.1154502E+00
          2   -1    0    0  502    0  0.00000000000E+00  0.00000000000E+00  0.32106360552E+03  0.32106360552E+03  0.00000000000E+00 0. -1.
          1   -1    0    0  501    0 -0.00000000000E+00 -0.00000000000E+00 -0.32972010722E+04  0.32972010722E+04  0.00000000000E+00 0. -1.
         25    2    1    2    0    0  0.29114684121E+03 -0.18066812509E+03 -0.13301675199E+04  0.13792673064E+04  0.12500086811E+03 0.  0.
          2    1    1    2  501    0  0.91456727391E+02  0.61011025342E+01 -0.17916050744E+04  0.17939482431E+04  0.00000000000E+00 0. -1.
          1    1    1    2  502    0 -0.38260356860E+03  0.17456702256E+03  0.14563512762E+03  0.44504912815E+03  0.00000000000E+00 0. -1.
         22    1    3    3    0    0  0.12061305216E+03 -0.45925335166E+02 -0.30272056098E+03  0.32908415763E+03  0.00000000000E+00 0.  1.
         22    1    3    3    0    0  0.17053378905E+03 -0.13474278993E+03 -0.10274469589E+04  0.10501831488E+04  0.00000000000E+00 0.  1.
</event>
<event>
 7    1  0.5213103E-005  0.5105104E+03  0.7818608E-02  0.1082044E+00
          2   -1    0    0  502    0  0.00000000000E+00  0.00000000000E+00  0.13508788226E+04  0.13508788226E+04  0.00000000000E+00 0. -1.
          1   -1    0    0  501    0 -0.00000000000E+00 -0.00000000000E+00 -0.11508326912E+04  0.11508326912E+04  0.00000000000E+00 0. -1.
         25    2    1    2    0    0 -0.29454405560E+03 -0.41407682496E+03  0.31333356192E+02  0.52423404354E+03  0.12499494205E+03 0.  0.
          2    1    1    2  501    0  0.16235126007E+03 -0.86581474155E+02 -0.83126401696E+03  0.85138366745E+03  0.00000000000E+00 0. -1.
          1    1    1    2  502    0  0.13219279552E+03  0.50065829912E+03  0.99997679217E+03  0.11260938027E+04  0.00000000000E+00 0. -1.
         22    1    3    3    0    0 -0.12320610944E+03 -0.78207997236E+02  0.16940515188E+02  0.14691227753E+03  0.00000000000E+00 0.  1.
         22    1    3    3    0    0 -0.17133794616E+03 -0.33586882773E+03  0.14392841004E+02  0.37732176601E+03  0.00000000000E+00 0.  1.
</event>
<event>
 7    1  0.5213103E-005  0.8212487E+03  0.7818608E-02  0.1138276E+00
          2   -1    0    0  502    0  0.00000000000E+00  0.00000000000E+00  0.99462912288E+03  0.99462912288E+03  0.00000000000E+00 0. -1.
          1   -1    0    0  501    0 -0.00000000000E+00 -0.00000000000E+00 -0.25518852222E+04  0.25518852222E+04  0.00000000000E+00 0. -1.
         25    2    1    2    0    0 -0.82192060031E+03  0.23789678715E+03 -0.70526201331E+03  0.11158713327E+04  0.12500387632E+03 0.  0.
          2    1    1    2  501    0  0.76653301779E+03 -0.24524315534E+03 -0.15414624457E+04  0.17389144729E+04  0.00000000000E+00 0. -1.
          1    1    1    2  502    0  0.55387582527E+02  0.73463681886E+01  0.68946835967E+03  0.69172853953E+03  0.00000000000E+00 0. -1.
         22    1    3    3    0    0 -0.91263211173E+02 -0.87199076323E+01 -0.99056969907E+02  0.13497145546E+03  0.00000000000E+00 0. -1.
         22    1    3    3    0    0 -0.73065738914E+03  0.24661669478E+03 -0.60620504340E+03  0.98089987720E+03  0.00000000000E+00 0. -1.
</event>
<event>
 7    1  0.5213103E-005  0.1849500E+03  0.7818608E-02  0.1291573E+00
          2   -1    0    0  502    0  0.00000000000E+00  0.00000000000E+00  0.17779945865E+03  0.17779945865E+03  0.00000000000E+00 0. -1.
          1   -1    0    0  501    0 -0.00000000000E+00 -0.00000000000E+00 -0.16033576979E+04  0.16033576979E+04  0.00000000000E+00 0. -1.
         25    2    1    2    0    0  0.88361372140E+02  0.18398830878E+03 -0.12190924340E+04  0.12423640049E+04  0.12499011273E+03 0.  0.
          2    1    1    2  501    0 -0.79083516570E+02 -0.13626562576E+03 -0.35184025562E+03  0.38550497899E+03  0.00000000000E+00 0. -1.
          1    1    1    2  502    0 -0.92778555706E+01 -0.47722683027E+02  0.14537445031E+03  0.15328817267E+03  0.00000000000E+00 0. -1.
         22    1    3    3    0    0  0.18625686615E+01 -0.68022608015E+01 -0.28427975257E+03  0.28436722321E+03  0.00000000000E+00 0. -1.
         22    1    3    3    0    0  0.86498803479E+02  0.19079056959E+03 -0.93481268142E+03  0.95799678172E+03  0.00000000000E+00 0. -1.
</event>
<event>
 7    1  0.5213103E-005  0.1066318E+03  0.7818608E-02  0.1328400E+00
          2   -1    0    0  502    0  0.00000000000E+00  0.00000000000E+00  0.35265605647E+03  0.35265605647E+03  0.00000000000E+00 0. -1.
          1   -1    0    0  501    0 -0.00000000000E+00 -0.00000000000E+00 -0.11058067092E+03  0.11058067092E+03  0.00000000000E+00 0. -1.
         25    2    1    2    0    0 -0.72994646374E+01  0.63759871198E+02 -0.24873293788E+02  0.14270588314E+03  0.12501073946E+03 0.  0.
          2    1    1    2  501    0  0.36942099021E+02  0.47741152186E+02  0.71549238988E+02  0.93612124705E+02  0.00000000000E+00 0. -1.
          1    1    1    2  502    0 -0.29642634383E+02 -0.11150102338E+03  0.19539944035E+03  0.22691871954E+03  0.00000000000E+00 0. -1.
         22    1    3    3    0    0 -0.50888260101E+02  0.20632330381E+02  0.28091126035E+02  0.61679975964E+02  0.00000000000E+00 0.  1.
         22    1    3    3    0    0  0.43588795463E+02  0.43127540818E+02 -0.52964419823E+02  0.81025907179E+02  0.00000000000E+00 0.  1.
</event>
<event>
 7    1  0.5213103E-005  0.4179210E+03  0.7818608E-02  0.1204942E+00
          2   -1    0    0  502    0  0.00000000000E+00  0.00000000000E+00  0.39860669133E+03  0.39860669133E+03  0.00000000000E+00 0. -1.
          1   -1    0    0  501    0 -0.00000000000E+00 -0.00000000000E+00 -0.10790740509E+04  0.10790740509E+04  0.00000000000E+00 0. -1.
         25    2    1    2    0    0  0.42977967444E+03 -0.39464329167E+02 -0.58795490466E+03  0.73998854118E+03  0.12499627725E+03 0.  0.
          2    1    1    2  501    0 -0.40148968862E+03 -0.33291196462E+01 -0.31439903637E+03  0.50995274995E+03  0.00000000000E+00 0. -1.
          1    1    1    2  502    0 -0.28289985818E+02  0.42793448813E+02  0.22188658146E+03  0.22773945111E+03  0.00000000000E+00 0. -1.
         22    1    3    3    0    0  0.36251384166E+01  0.18350208078E+02 -0.32613574126E+02  0.37596768243E+02  0.00000000000E+00 0. -1.
         22    1    3    3    0    0  0.42615453602E+03 -0.57814537245E+02 -0.55534133054E+03  0.70239177294E+03  0.00000000000E+00 0. -1.
</event>
<event>
 7    1  0.5213103E-005  0.1057255E+04  0.7818608E-02  0.1005486E+00
          2   -1    0    0  502    0  0.00000000000E+00  0.00000000000E+00  0.15639437081E+04  0.15639437081E+04  0.00000000000E+00 0. -1.
          1   -1    0    0  501    0 -0.00000000000E+00 -0.00000000000E+00 -0.30202525192E+04  0.30202525192E+04  0.00000000000E+00 0. -1.
         25    2    1    2    0    0 -0.10230249974E+04 -0.40802685979E+03  0.47660253138E+02  0.11094877535E+04  0.12500204731E+03 0.  0.
          2    1    1    2  501    0  0.17543816492E+03 -0.20364401989E+03 -0.22016550139E+04  0.22180023077E+04  0.00000000000E+00 0. -1.
          1    1    1    2  502    0  0.84758683251E+03  0.61167087968E+03  0.69768594967E+03  0.12567061662E+04  0.00000000000E+00 0. -1.
         22    1    3    3    0    0 -0.32146513286E+03 -0.14887833082E+03  0.70645574422E+02  0.36124145141E+03  0.00000000000E+00 0. -1.
         22    1    3    3    0    0 -0.70155986457E+03 -0.25914852897E+03 -0.22985321284E+02  0.74824630212E+03  0.00000000000E+00 0. -1.
</event>
<event>
 7    1  0.5213103E-005  0.2709717E+03  0.7818608E-02  0.1193404E+00
          2   -1    0    0  502    0  0.00000000000E+00  0.00000000000E+00  0.36481445485E+03  0.36481445485E+03  0.00000000000E+00 0. -1.
          1   -1    0    0  501    0 -0.00000000000E+00 -0.00000000000E+00 -0.45000700176E+03  0.45000700176E+03  0.00000000000E+00 0. -1.
         25    2    1    2    0    0  0.90983529783E+02 -0.28814548616E+03 -0.49106450020E+02  0.33066810029E+03  0.12499650089E+03 0.  0.
          2    1    1    2  501    0  0.54581609823E+02  0.71176935581E+02 -0.16876522159E+03  0.19112040265E+03  0.00000000000E+00 0. -1.
          1    1    1    2  502    0 -0.14556513961E+03  0.21696855057E+03  0.13267912470E+03  0.29303295367E+03  0.00000000000E+00 0. -1.
         22    1    3    3    0    0  0.24125594581E+02  0.43695038763E+01 -0.14840201380E+02  0.28659526427E+02  0.00000000000E+00 0. -1.
         22    1    3    3    0    0  0.66857935202E+02 -0.29251499003E+03 -0.34266248640E+02  0.30200857387E+03  0.00000000000E+00 0. -1.
</event>
<event>
 7    1  0.5213103E-005  0.6723536E+03  0.7818608E-02  0.1107007E+00
          2   -1    0    0  502    0  0.00000000000E+00  0.00000000000E+00  0.14908705374E+04  0.14908705374E+04  0.00000000000E+00 0. -1.
          1   -1    0    0  501    0 -0.00000000000E+00 -0.00000000000E+00 -0.91796742976E+03  0.91796742976E+03  0.00000000000E+00 0. -1.
         25    2    1    2    0    0 -0.22287224676E+03 -0.66527743637E+03 -0.38874018131E+03  0.81180372018E+03  0.12506096841E+03 0.  0.
          2    1    1    2  501    0  0.13482367013E+03  0.61637335445E+03  0.82058476111E+00  0.63094707184E+03  0.00000000000E+00 0. -1.
          1    1    1    2  502    0  0.88048576634E+02  0.48904081924E+02  0.96082270417E+03  0.96608717512E+03  0.00000000000E+00 0. -1.
         22    1    3    3    0    0 -0.10885422290E+03 -0.15267632324E+03 -0.10602418385E+03  0.21540758827E+03  0.00000000000E+00 0.  1.
         22    1    3    3    0    0 -0.11401802386E+03 -0.51260111313E+03 -0.28271599746E+03  0.59639613192E+03  0.00000000000E+00 0.  1.
</event>
<event>
 7    1  0.5213103E-005  0.3472299E+03  0.7818608E-02  0.1108251E+00
          2   -1    0    0  502    0  0.00000000000E+00  0.00000000000E+00  0.30701243034E+03  0.30701243034E+03  0.00000000000E+00 0. -1.
          1   -1    0    0  501    0 -0.00000000000E+00 -0.00000000000E+00 -0.74500900199E+03  0.74500900199E+03  0.00000000000E+00 0. -1.
         25    2    1    2    0    0  0.19156479960E+03  0.27670770519E+03 -0.39666289095E+02  0.36119596800E+03  0.12499954500E+03 0.  0.
          2    1    1    2  501    0 -0.24744444712E+02 -0.37164957014E+03 -0.26422541231E+03  0.45667358040E+03  0.00000000000E+00 0. -1.
          1    1    1    2  502    0 -0.16682035488E+03  0.94941864947E+02 -0.13410487024E+03  0.23415188393E+03  0.00000000000E+00 0. -1.
         22    1    3    3    0    0  0.46179564759E+02  0.14707480054E+03  0.24551694716E+02  0.15609719686E+03  0.00000000000E+00 0. -1.
         22    1    3    3    0    0  0.14538523484E+03  0.12963290466E+03 -0.64217983811E+02  0.20509877114E+03  0.00000000000E+00 0. -1.
</event>
<event>
 7    1  0.5213103E-005  0.1790890E+03  0.7818608E-02  0.1292223E+00
          2   -1    0    0  502    0  0.00000000000E+00  0.00000000000E+00  0.10874958344E+04  0.10874958344E+04  0.00000000000E+00 0. -1.
          1   -1    0    0  501    0 -0.00000000000E+00 -0.00000000000E+00 -0.17843847013E+03  0.17843847013E+03  0.00000000000E+00 0. -1.
         25    2    1    2    0    0  0.13190125041E+03  0.12178286363E+03  0.22417654730E+03  0.31322312899E+03  0.12499839375E+03 0.  0.
          2    1    1    2  501    0 -0.38144625680E+02  0.32177041491E+02 -0.11890902700E+03  0.12895631496E+03  0.00000000000E+00 0. -1.
          1    1    1    2  502    0 -0.93756624729E+02 -0.15395990512E+03  0.80378984392E+03  0.82375486054E+03  0.00000000000E+00 0. -1.
         22    1    3    3    0    0  0.70576703927E+02  0.93486928495E+02  0.21530335247E+03  0.24510489698E+03  0.00000000000E+00 0. -1.
         22    1    3    3    0    0  0.61324546482E+02  0.28295935138E+02  0.88731948355E+01  0.68118232017E+02  0.00000000000E+00 0. -1.
</event>
<event>
 7    1  0.5213103E-005  0.2681957E+03  0.7818608E-02  0.1240031E+00
          2   -1    0    0  502    0  0.00000000000E+00  0.00000000000E+00  0.90633906355E+03  0.90633906355E+03  0.00000000000E+00 0. -1.
          1   -1    0    0  501    0 -0.00000000000E+00 -0.00000000000E+00 -0.52436419289E+03  0.52436419289E+03  0.00000000000E+00 0. -1.
         25    2    1    2    0    0 -0.21019911616E+03 -0.12174171463E+03  0.40545395926E+03  0.48889941561E+03  0.12500004796E+03 0.  0.
          2    1    1    2  501    0 -0.52011928991E+02 -0.19034530367E+02 -0.43246408389E+03  0.43599625911E+03  0.00000000000E+00 0. -1.
          1    1    1    2  502    0  0.26221104515E+03  0.14077624500E+03  0.40898499528E+03  0.50580758171E+03  0.00000000000E+00 0. -1.
         22    1    3    3    0    0 -0.20485525229E+03 -0.67322281690E+02  0.34946590167E+03  0.41063899039E+03  0.00000000000E+00 0. -1.
         22    1    3    3    0    0 -0.53438638728E+01 -0.54419432941E+02  0.55988057599E+02  0.78260425225E+02  0.00000000000E+00 0. -1.
</event>
<event>
 7    1  0.5213103E-005  0.5009011E+03  0.7818608E-02  0.1179291E+00
          2   -1    0    0  502    0  0.00000000000E+00  0.00000000000E+00  0.14350867209E+04  0.14350867209E+04  0.00000000000E+00 0. -1.
          1   -1    0    0  501    0 -0.00000000000E+00 -0.00000000000E+00 -0.12031244706E+04  0.12031244706E+04  0.00000000000E+00 0. -1.
         25    2    1    2    0    0 -0.15828821204E+03 -0.51519041527E+03 -0.12808084897E+03  0.56788900353E+03  0.12496757337E+03 0.  0.
          2    1    1    2  501    0  0.16788841571E+03  0.45924259220E+03 -0.78448054541E+03  0.92439169444E+03  0.00000000000E+00 0. -1.
          1    1    1    2  502    0 -0.96002036721E+01  0.55947823069E+02  0.11445236447E+04  0.11459304935E+04  0.00000000000E+00 0. -1.
         22    1    3    3    0    0  0.26560472298E+01 -0.13780876057E+03  0.85613941572E+00  0.13783701263E+03  0.00000000000E+00 0.  1.
         22    1    3    3    0    0 -0.16094425927E+03 -0.37738165471E+03 -0.12893698839E+03  0.43005199090E+03  0.00000000000E+00 0.  1.
</event>
<event>
 7    1  0.5213103E-005  0.4109674E+03  0.7818608E-02  0.1230597E+00
          2   -1    0    0  502    0  0.00000000000E+00  0.00000000000E+00  0.64180768911E+03  0.64180768911E+03  0.00000000000E+00 0. -1.
          1   -1    0    0  501    0 -0.00000000000E+00 -0.00000000000E+00 -0.10506082912E+04  0.10506082912E+04  0.00000000000E+00 0. -1.
         25    2    1    2    0    0 -0.37273466309E+02  0.38916777149E+03  0.23187537140E+03  0.47141489654E+03  0.12499980466E+03 0.  0.
          2    1    1    2  501    0  0.59204807842E+01 -0.41369697589E+03 -0.88316054535E+03  0.97527062337E+03  0.00000000000E+00 0. -1.
          1    1    1    2  502    0  0.31352985524E+02  0.24529204393E+02  0.24248457187E+03  0.24573046039E+03  0.00000000000E+00 0. -1.
         22    1    3    3    0    0  0.24522906037E+02  0.17508392634E+03  0.15672418985E+03  0.23625881119E+03  0.00000000000E+00 0. -1.
         22    1    3    3    0    0 -0.61796372345E+02  0.21408384515E+03  0.75151181551E+02  0.23515608535E+03  0.00000000000E+00 0. -1.
</event>
<event>
 7    1  0.5213103E-005  0.1739777E+03  0.7818608E-02  0.1290326E+00
          2   -1    0    0  502    0  0.00000000000E+00  0.00000000000E+00  0.65159641850E+03  0.65159641850E+03  0.00000000000E+00 0. -1.
          1   -1    0    0  501    0 -0.00000000000E+00 -0.00000000000E+00 -0.22502111210E+03  0.22502111210E+03  0.00000000000E+00 0. -1.
         25    2    1    2    0    0 -0.16436002791E+03 -0.13672886165E+03  0.37652292783E+02  0.25050252154E+03  0.12499927105E+03 0.  0.
          2    1    1    2  501    0  0.51001866435E+02  0.11527355569E+02 -0.97811294262E+02  0.11091041246E+03  0.00000000000E+00 0. -1.
          1    1    1    2  502    0  0.11335816147E+03  0.12520150608E+03  0.48673430788E+03  0.51520459660E+03  0.00000000000E+00 0. -1.
         22    1    3    3    0    0 -0.10745290131E+03 -0.82048784747E+02 -0.38769062107E+02  0.14064554474E+03  0.00000000000E+00 0.  1.
         22    1    3    3    0    0 -0.56907126601E+02 -0.54680076907E+02  0.76421354890E+02  0.10985697680E+03  0.00000000000E+00 0.  1.
</event>
<event>
 7    1  0.5213103E-005  0.4836094E+03  0.7818608E-02  0.1265732E+00
          2   -1    0    0  502    0  0.00000000000E+00  0.00000000000E+00  0.18609070043E+04  0.18609070043E+04  0.00000000000E+00 0. -1.
          1   -1    0    0  501    0 -0.00000000000E+00 -0.00000000000E+00 -0.80598764061E+03  0.80598764061E+03  0.00000000000E+00 0. -1.
         25    2    1    2    0    0 -0.42135946722E+02  0.50065078073E+03  0.39796636838E+03  0.65301505491E+03  0.12499915734E+03 0.  0.
          2    1    1    2  501    0  0.49473271198E+02 -0.47802197314E+03 -0.59323458412E+03  0.76346570530E+03  0.00000000000E+00 0. -1.
          1    1    1    2  502    0 -0.73373244755E+01 -0.22628807590E+02  0.12501875794E+04  0.12504138847E+04  0.00000000000E+00 0. -1.
         22    1    3    3    0    0 -0.24812532195E+02  0.89797919877E+02  0.21756678981E+02  0.95669646432E+02  0.00000000000E+00 0. -1.
         22    1    3    3    0    0 -0.17323414528E+02  0.41085286085E+03  0.37620968939E+03  0.55734540848E+03  0.00000000000E+00 0. -1.
</event>
<event>
 7    1  0.5213103E-005  0.5085891E+03  0.7818608E-02  0.1245156E+00
          2   -1    0    0  502    0  0.00000000000E+00  0.00000000000E+00  0.76342333026E+03  0.76342333026E+03  0.00000000000E+00 0. -1.
          1   -1    0    0  501    0 -0.00000000000E+00 -0.00000000000E+00 -0.57944267805E+03  0.57944267805E+03  0.00000000000E+00 0. -1.
         25    2    1    2    0    0 -0.50635417406E+03 -0.82030887006E+02 -0.21850194509E+03  0.57139343893E+03  0.12499498405E+03 0.  0.
          2    1    1    2  501    0  0.48959904819E+03  0.10412887229E+03  0.15723862917E+03  0.52466564261E+03  0.00000000000E+00 0. -1.
          1    1    1    2  502    0  0.16755125867E+02 -0.22097985279E+02  0.24524396813E+03  0.24680692677E+03  0.00000000000E+00 0. -1.
         22    1    3    3    0    0 -0.50678400142E+03 -0.86003679245E+02 -0.22706213313E+03  0.56194650033E+03  0.00000000000E+00 0.  1.
         22    1    3    3    0    0  0.42982736142E+00  0.39727922391E+01  0.85601880328E+01  0.94469385989E+01  0.00000000000E+00 0.  1.
</event>
<event>
 7    1  0.5213103E-005  0.1292177E+03  0.7818608E-02  0.1264839E+00
          2   -1    0    0  502    0  0.00000000000E+00  0.00000000000E+00  0.14293595562E+03  0.14293595562E+03  0.00000000000E+00 0. -1.
          1   -1    0    0  501    0 -0.00000000000E+00 -0.00000000000E+00 -0.29082406966E+04  0.29082406966E+04  0.00000000000E+00 0. -1.
         25    2    1    2    0    0  0.11961732064E+03 -0.14614440213E+03 -0.43950837419E+03  0.49442808975E+03  0.12500014115E+03 0.  0.
          2    1    1    2  501    0 -0.11320022451E+03  0.56564008769E+02 -0.24219050441E+04  0.24252088200E+04  0.00000000000E+00 0. -1.
          1    1    1    2  502    0 -0.64170961304E+01  0.89580393356E+02  0.96108677310E+02  0.13153974248E+03  0.00000000000E+00 0. -1.
         22    1    3    3    0    0  0.15356675400E+02  0.20922751446E+02 -0.85242501408E+02  0.89105965309E+02  0.00000000000E+00 0.  1.
         22    1    3    3    0    0  0.10426064524E+03 -0.16706715357E+03 -0.35426587278E+03  0.40532212445E+03  0.00000000000E+00 0.  1.
</event>
<event>
 7    1  0.5213103E-005  0.4645563E+03  0.7818608E-02  0.1244156E+00
          2   -1    0    0  502    0  0.00000000000E+00  0.00000000000E+00  0.49210295636E+03  0.49210295636E+03  0.00000000000E+00 0. -1.
          1   -1    0    0  501    0 -0.00000000000E+00 -0.00000000000E+00 -0.16787744459E+04  0.16787744459E+04  0.00000000000E+00 0. -1.
         25    2    1    2    0    0  0.46650276604E+03  0.14074479503E+03 -0.11198226169E+04  0.12276243979E+04  0.12500016388E+03 0.  0.
          2    1    1    2  501    0 -0.19308593135E+02 -0.23826233098E+02 -0.38237441160E+03  0.38360227033E+03  0.00000000000E+00 0. -1.
          1    1    1    2  502    0 -0.44719417290E+03 -0.11691856193E+03  0.31552553894E+03  0.55965073405E+03  0.00000000000E+00 0. -1.
         22    1    3    3    0    0  0.42750378811E+03  0.10408128830E+03 -0.90578147068E+03  0.10069917954E+04  0.00000000000E+00 0. -1.
         22    1    3    3    0    0  0.38998977930E+02  0.36663506726E+02 -0.21404114619E+03  0.22063260246E+03  0.00000000000E+00 0. -1.
</event>
<event>
 7    1  0.5213103E-005  0.9663238E+03  0.7818608E-02  0.1075016E+00
          2   -1    0    0  502    0  0.00000000000E+00  0.00000000000E+00  0.20635566713E+04  0.20635566713E+04  0.00000000000E+00 0. -1.
          1   -1    0    0  501    0 -0.00000000000E+00 -0.00000000000E+00 -0.12163472328E+04  0.12163472328E+04  0.00000000000E+00 0. -1.
         25    2    1    2    0    0  0.59937818510E+03  0.71246437787E+03 -0.68348814562E+02  0.94188996782E+03  0.12500181008E+03 0.  0.
          2    1    1    2  501    0 -0.70584697092E+03 -0.70303984458E+03 -0.35902705164E+03  0.10589548589E+04  0.00000000000E+00 0. -1.
          1    1    1    2  502    0  0.10646878582E+03 -0.94245332982E+01  0.12745853048E+04  0.12790590774E+04  0.00000000000E+00 0. -1.
         22    1    3    3    0    0  0.20402428322E+03  0.19795151246E+03  0.29054186573E+02  0.28575313679E+03  0.00000000000E+00 0. -1.
         22    1    3    3    0    0  0.39535390188E+03  0.51451286541E+03 -0.97403001135E+02  0.65613683103E+03  0.00000000000E+00 0. -1.
</event>
<event>
 7    1  0.5213103E-005  0.4011817E+03  0.7818608E-02  0.1159079E+00
          2   -1    0    0  502    0  0.00000000000E+00  0.00000000000E+00  0.10699396327E+04  0.10699396327E+04  0.00000000000E+00 0. -1.
          1   -1    0    0  501    0 -0.00000000000E+00 -0.00000000000E+00 -0.60494175854E+03  0.60494175854E+03  0.00000000000E+00 0. -1.
         25    2    1    2    0    0  0.21785839762E+03  0.41792457925E+03  0.30038187882E+03  0.57269304640E+03  0.12499926769E+03 0.  0.
          2    1    1    2  501    0 -0.20572360988E+03 -0.32941481840E+03 -0.38410917844E+03  0.54623821471E+03  0.00000000000E+00 0. -1.
          1    1    1    2  502    0 -0.12134787741E+02 -0.88509760843E+02  0.54872517378E+03  0.55595013011E+03  0.00000000000E+00 0. -1.
         22    1    3    3    0    0  0.16324375807E+03  0.26894755286E+03  0.26205880356E+03  0.40945833398E+03  0.00000000000E+00 0.  1.
         22    1    3    3    0    0  0.54614639543E+02  0.14897702639E+03  0.38323075262E+02  0.16323471243E+03  0.00000000000E+00 0.  1.
</event>
<event>
 7    1  0.5213103E-005  0.1571134E+03  0.7818608E-02  0.1237839E+00
          2   -1    0    0  502    0  0.00000000000E+00  0.00000000000E+00  0.12240701728E+04  0.12240701728E+04  0.00000000000E+00 0. -1.
          1   -1    0    0  501    0 -0.00000000000E+00 -0.00000000000E+00 -0.32629964235E+03  0.32629964235E+03  0.00000000000E+00 0. -1.
         25    2    1    2    0    0 -0.24487864362E+01 -0.23067429042E+03  0.47186292145E+03  0.53990391733E+03  0.12499999396E+03 0.  0.
          2    1    1    2  501    0  0.31943869070E+02  0.91245884721E+02 -0.27693279815E+03  0.29332234307E+03  0.00000000000E+00 0. -1.
          1    1    1    2  502    0 -0.29495082634E+02  0.13942840570E+03  0.70284040715E+03  0.71714355477E+03  0.00000000000E+00 0. -1.
         22    1    3    3    0    0 -0.27213333407E+02 -0.11992334769E+03  0.12670622428E+03  0.17656908593E+03  0.00000000000E+00 0.  1.
         22    1    3    3    0    0  0.24764546971E+02 -0.11075094273E+03  0.34515669717E+03  0.36333483139E+03  0.00000000000E+00 0.  1.
</event>
<event>
 7    1  0.5213103E-005  0.6747923E+02  0.7818608E-02  0.1447924E+00
          2   -1    0    0  502    0  0.00000000000E+00  0.00000000000E+00  0.98723360616E+02  0.98723360616E+02  0.00000000000E+00 0. -1.
          1   -1    0    0  501    0 -0.00000000000E+00 -0.00000000000E+00 -0.74690054720E+03  0.74690054720E+03  0.00000000000E+00 0. -1.
         25    2    1    2    0    0  0.10162760701E+02 -0.75827597023E+02 -0.67328487342E+02  0.16127911222E+03  0.12499888262E+03 0.  0.
          2    1    1    2  501    0 -0.33952077665E+02  0.12975074089E+02 -0.61000626381E+03  0.61108815895E+03  0.00000000000E+00 0. -1.
          1    1    1    2  502    0  0.23789316965E+02  0.62852522933E+02  0.29157564568E+02  0.73256636643E+02  0.00000000000E+00 0. -1.
         22    1    3    3    0    0 -0.14313568960E+02 -0.27676370249E+02  0.34206587552E+02  0.46270404780E+02  0.00000000000E+00 0. -1.
         22    1    3    3    0    0  0.24476329661E+02 -0.48151226773E+02 -0.10153507489E+03  0.11500870744E+03  0.00000000000E+00 0. -1.
</event>
<event>
 7    1  0.5213103E-005  0.6815481E+03  0.7818608E-02  0.1193374E+00
          2   -1    0    0  502    0  0.00000000000E+00  0.00000000000E+00  0.35308989840E+04  0.35308989840E+04  0.00000000000E+00 0. -1.
          1   -1    0    0  501    0 -0.00000000000E+00 -0.00000000000E+00 -0.33218757047E+03  0.33218757047E+03  0.00000000000E+00 0. -1.
         25    2    1    2    0    0  0.55370636122E+03  0.38326491189E+03  0.14138637164E+04  0.15710250956E+04  0.12500606172E+03 0.  0.
          2    1    1    2  501    0 -0.54243782089E+03 -0.41711184362E+03  0.20852438089E+03  0.71533453506E+03  0.00000000000E+00 0. -1.
          1    1    1    2  502    0 -0.11268540331E+02  0.33846931727E+02  0.15763233162E+04  0.15767269237E+04  0.00000000000E+00 0. -1.
         22    1    3    3    0    0  0.53006065112E+03  0.39018720515E+03  0.13355508986E+04  0.14889279874E+04  0.00000000000E+00 0.  1.
         22    1    3    3    0    0  0.23645710104E+02 -0.69222932586E+01  0.78312817831E+02  0.82097108273E+02  0.00000000000E+00 0.  1.
</event>
<event>
 7    1  0.5213103E-005  0.4696951E+03  0.7818608E-02  0.1146867E+00
          2   -1    0    0  502    0  0.00000000000E+00  0.00000000000E+00  0.12203211253E+04  0.12203211253E+04  0.00000000000E+00 0. -1.
          1   -1    0    0  501    0 -0.00000000000E+00 -0.00000000000E+00 -0.47396824171E+03  0.47396824171E+03  0.00000000000E+00 0. -1.
         25    2    1    2    0    0 -0.99585165341E+02 -0.47853668128E+03  0.36027170243E+02  0.50580353947E+03  0.12499881223E+03 0.  0.
          2    1    1    2  501    0  0.16942419183E+03  0.42480284689E+03 -0.15232827904E+02  0.45759595119E+03  0.00000000000E+00 0. -1.
          1    1    1    2  502    0 -0.69839026491E+02  0.53733834390E+02  0.72555854126E+03  0.73088987637E+03  0.00000000000E+00 0. -1.
         22    1    3    3    0    0 -0.89816384256E+02 -0.20124544281E+03  0.56747908770E+02  0.22756765210E+03  0.00000000000E+00 0.  1.
         22    1    3    3    0    0 -0.97687810851E+01 -0.27729123847E+03 -0.20720738527E+02  0.27823588737E+03  0.00000000000E+00 0.  1.
</event>
<event>
 7    1  0.5213103E-005  0.1756782E+03  0.7818608E-02  0.1201468E+00
          2   -1    0    0  502    0  0.00000000000E+00  0.00000000000E+00  0.99209827597E+03  0.99209827597E+03  0.00000000000E+00 0. -1.
          1   -1    0    0  501    0 -0.00000000000E+00 -0.00000000000E+00 -0.12010687648E+03  0.12010687648E+03  0.00000000000E+00 0. -1.
         25    2    1    2    0    0 -0.24230855485E+03 -0.66682817281E+02  0.66564973884E+03  0.72240581581E+03  0.12498221484E+03 0.  0.
          2    1    1    2  501    0  0.12655638402E+03  0.60506970391E+01 -0.20172710636E+02  0.12829679468E+03  0.00000000000E+00 0. -1.
          1    1    1    2  502    0  0.11575217083E+03  0.60632120241E+02  0.22651437128E+03  0.26150254196E+03  0.00000000000E+00 0. -1.
         22    1    3    3    0    0 -0.98953174008E+01 -0.40901432241E+02  0.15766007250E+03  0.16317948072E+03  0.00000000000E+00 0. -1.
         22    1    3    3    0    0 -0.23241323745E+03 -0.25781385039E+02  0.50798966634E+03  0.55922633509E+03  0.00000000000E+00 0. -1.
</event>
<event>
 7    1  0.6382657E-005  0.4660562E+03  0.7818608E-02  0.1140274E+00
          2   -1    0    0  502    0  0.00000000000E+00  0.00000000000E+00  0.16302145668E+04  0.16302145668E+04  0.00000000000E+00 0. -1.
          1   -1    0    0  501    0 -0.00000000000E+00 -0.00000000000E+00 -0.19912531975E+04  0.19912531975E+04  0.00000000000E+00 0. -1.
         25    2    1    2    0    0 -0.41797593014E+03  0.30001054648E+00 -0.67234317189E+03  0.80148039173E+03  0.12498603667E+03 0.  0.
          2    1    1    2  501    0  0.50270125422E+03  0.45068819684E+02 -0.12019836263E+04  0.13036504084E+04  0.00000000000E+00 0. -1.
          1    1    1    2  502    0 -0.84725324081E+02 -0.45368830231E+02  0.15132881674E+04  0.15163369642E+04  0.00000000000E+00 0. -1.
         22    1    3    3    0    0 -0.17418506957E+03  0.15197742276E+02 -0.17489518234E+03  0.24730494260E+03  0.00000000000E+00 0.  1.
         22    1    3    3    0    0 -0.24379086057E+03 -0.14897731730E+02 -0.49744798955E+03  0.55417544913E+03  0.00000000000E+00 0.  1.
</event>
<event>
 7    1  0.5213103E-005  0.3332144E+03  0.7818608E-02  0.1231469E+00
          2   -1    0    0  502    0  0.00000000000E+00  0.00000000000E+00  0.24045468239E+04  0.24045468239E+04  0.00000000000E+00 0. -1.
          1   -1    0    0  501    0 -0.00000000000E+00 -0.00000000000E+00 -0.80939057409E+03  0.80939057409E+03  0.00000000000E+00 0. -1.
         25    2    1    2    0    0  0.27779081645E+03  0.25732936517E+03  0.51173641839E+03  0.64875641193E+03  0.12499832092E+03 0.  0.
          2    1    1    2  501    0 -0.24587212743E+03 -0.22060378184E+03 -0.70371222140E+03  0.77738666193E+03  0.00000000000E+00 0. -1.
          1    1    1    2  502    0 -0.31918689025E+02 -0.36725583339E+02  0.17871320528E+04  0.17877943241E+04  0.00000000000E+00 0. -1.
         22    1    3    3    0    0  0.20205696748E+03  0.25174501040E+03  0.41185668618E+03  0.52328624893E+03  0.00000000000E+00 0.  1.
         22    1    3    3    0    0  0.75733848973E+02  0.55843547786E+01  0.99879732209E+02  0.12547016301E+03  0.00000000000E+00 0.  1.
</event>
<event>
 7    1  0.5213103E-005  0.3541158E+03  0.7818608E-02  0.1270946E+00
          2   -1    0    0  502    0  0.00000000000E+00  0.00000000000E+00  0.12988212688E+03  0.12988212688E+03  0.00000000000E+00 0. -1.
          1   -1    0    0  501    0 -0.00000000000E+00 -0.00000000000E+00 -0.23602460997E+04  0.23602460997E+04  0.00000000000E+00 0. -1.
         25    2    1    2    0    0  0.32458978624E+03  0.11879840825E+03 -0.36147835331E+03  0.51552244338E+03  0.12500079438E+03 0.  0.
          2    1    1    2  501    0  0.11311557215E+02  0.28740417591E+02 -0.12827392156E+04  0.12831110078E+04  0.00000000000E+00 0. -1.
          1    1    1    2  502    0 -0.33590134345E+03 -0.14753882584E+03 -0.58614640382E+03  0.69149477538E+03  0.00000000000E+00 0. -1.
         22    1    3    3    0    0  0.20701475900E+03  0.52317337558E+02 -0.29716784979E+03  0.36592478079E+03  0.00000000000E+00 0. -1.
         22    1    3    3    0    0  0.11757502724E+03  0.66481070687E+02 -0.64310503518E+02  0.14959766259E+03  0.00000000000E+00 0. -1.
</event>
<event>
 7    1  0.5213103E-005  0.2406255E+03  0.7818608E-02  0.1142357E+00
          2   -1    0    0  502    0  0.00000000000E+00  0.00000000000E+00  0.13981517031E+04  0.13981517031E+04  0.00000000000E+00 0. -1.
          1   -1    0    0  501    0 -0.00000000000E+00 -0.00000000000E+00 -0.16729826567E+03  0.16729826567E+03  0.00000000000E+00 0. -1.
         25    2    1    2    0    0 -0.37870073037E+03  0.83171591784E+02  0.48888201095E+03  0.63636526508E+03  0.12499349227E+03 0.  0.
          2    1    1    2  501    0  0.19968003744E+03 -0.53046693524E+02  0.48468737789E+02  0.21221519170E+03  0.00000000000E+00 0. -1.
          1    1    1    2  502    0  0.17902069293E+03 -0.30124898260E+02  0.69350268873E+03  0.71686951202E+03  0.00000000000E+00 0. -1.
         22    1    3    3    0    0 -0.90985814287E+02  0.35792438722E+02  0.21558686783E+03  0.23672180857E+03  0.00000000000E+00 0. -1.
         22    1    3    3    0    0 -0.28771491608E+03  0.47379153061E+02  0.27329514312E+03  0.39964345651E+03  0.00000000000E+00 0. -1.
</event>
<event>
 7    1  0.5213103E-005  0.3079212E+03  0.7818608E-02  0.1210425E+00
          2   -1    0    0  502    0  0.00000000000E+00  0.00000000000E+00  0.80283559195E+03  0.80283559195E+03  0.00000000000E+00 0. -1.
          1   -1    0    0  501    0 -0.00000000000E+00 -0.00000000000E+00 -0.10956832341E+04  0.10956832341E+04  0.00000000000E+00 0. -1.
         25    2    1    2    0    0  0.37909361502E+02 -0.30489225184E+03  0.33928460005E+03  0.47448462172E+03  0.12500084598E+03 0.  0.
          2    1    1    2  501    0  0.64814400104E+02  0.10444359983E+02 -0.96539111184E+03  0.96762078829E+03  0.00000000000E+00 0. -1.
          1    1    1    2  502    0 -0.10272376161E+03  0.29444789186E+03  0.33325886959E+03  0.45641341608E+03  0.00000000000E+00 0. -1.
         22    1    3    3    0    0 -0.39058989768E+02 -0.17384598171E+03  0.20572569703E+03  0.27216004934E+03  0.00000000000E+00 0.  1.
         22    1    3    3    0    0  0.76968351270E+02 -0.13104627013E+03  0.13355890302E+03  0.20232457238E+03  0.00000000000E+00 0.  1.
</event>
<event>
 7    1  0.5213103E-005  0.3017872E+03  0.7818608E-02  0.1185491E+00
          2   -1    0    0  502    0  0.00000000000E+00  0.00000000000E+00  0.10624771753E+04  0.10624771753E+04  0.00000000000E+00 0. -1.
          1   -1    0    0  501    0 -0.00000000000E+00 -0.00000000000E+00 -0.33159181282E+03  0.33159181282E+03  0.00000000000E+00 0. -1.
         25    2    1    2    0    0 -0.30529769291E+03  0.11987900770E+03  0.84336257743E+03  0.91348919477E+03  0.12499765670E+03 0.  0.
          2    1    1    2  501    0  0.80233179952E+02 -0.35908161906E+02 -0.20508423345E+03  0.22312844298E+03  0.00000000000E+00 0. -1.
          1    1    1    2  502    0  0.22506451296E+03 -0.83970845792E+02  0.92607018533E+02  0.25745135039E+03  0.00000000000E+00 0. -1.
         22    1    3    3    0    0 -0.12237769725E+03  0.10411552300E+03  0.48348504038E+03  0.50948417756E+03  0.00000000000E+00 0.  1.
         22    1    3    3    0    0 -0.18291999566E+03  0.15763484699E+02  0.35987753705E+03  0.40400501722E+03  0.00000000000E+00 0.  1.
</event>
<event>
 7    1  0.5213103E-005  0.2396528E+03  0.7818608E-02  0.1237746E+00
          2   -1    0    0  502    0  0.00000000000E+00  0.00000000000E+00  0.18560727824E+04  0.18560727824E+04  0.00000000000E+00 0. -1.
          1   -1    0    0  501    0 -0.00000000000E+00 -0.00000000000E+00 -0.72085240718E+02  0.72085240718E+02  0.00000000000E+00 0. -1.
         25    2    1    2    0    0  0.16168884132E+03 -0.21655274780E+03  0.88865925576E+03  0.93721827258E+03  0.12499777449E+03 0.  0.
          2    1    1    2  501    0 -0.98687903001E+02  0.20910230581E+03  0.24261012927E+03  0.33514586574E+03  0.00000000000E+00 0. -1.
          1    1    1    2  502    0 -0.63000938316E+02  0.74504419900E+01  0.65271815665E+03  0.65579388480E+03  0.00000000000E+00 0. -1.
         22    1    3    3    0    0  0.14831109677E+03 -0.23025278141E+03  0.77533308311E+03  0.82228578641E+03  0.00000000000E+00 0.  1.
         22    1    3    3    0    0  0.13377744544E+02  0.13700033602E+02  0.11332617265E+03  0.11493248617E+03  0.00000000000E+00 0.  1.
</event>
<event>
 7    1  0.5213103E-005  0.1050337E+04  0.7818608E-02  0.1201015E+00
          2   -1    0    0  502    0  0.00000000000E+00  0.00000000000E+00  0.12712801938E+04  0.12712801938E+04  0.00000000000E+00 0. -1.
          1   -1    0    0  501    0 -0.00000000000E+00 -0.00000000000E+00 -0.14354481461E+04  0.14354481461E+04  0.00000000000E+00 0. -1.
         25    2    1    2    0    0 -0.97614216136E+03  0.37716190724E+03 -0.60984655014E+03  0.12176375631E+04  0.12499518747E+03 0.  0.
          2    1    1    2  501    0  0.99270121830E+03 -0.36377058319E+03  0.14465733171E+02  0.10573523554E+04  0.00000000000E+00 0. -1.
          1    1    1    2  502    0 -0.16559056932E+02 -0.13391324045E+02  0.43121286467E+03  0.43173842148E+03  0.00000000000E+00 0. -1.
         22    1    3    3    0    0 -0.59883809165E+03  0.23810081486E+03 -0.30464623591E+03  0.71281721858E+03  0.00000000000E+00 0.  1.
         22    1    3    3    0    0 -0.37730406971E+03  0.13906109238E+03 -0.30520031423E+03  0.50482034452E+03  0.00000000000E+00 0.  1.
</event>
<event>
 7    1  0.5213103E-005  0.2298709E+03  0.7818608E-02  0.1152823E+00
          2   -1    0    0  502    0  0.00000000000E+00  0.00000000000E+00  0.49660850867E+03  0.49660850867E+03  0.00000000000E+00 0. -1.
          1   -1    0    0  501    0 -0.00000000000E+00 -0.00000000000E+00 -0.55659910260E+03  0.55659910260E+03  0.00000000000E+00 0. -1.
         25    2    1    2    0    0  0.21500560471E+03 -0.25841188647E+03  0.24365591805E+03  0.43358726919E+03  0.12500240192E+03 0.  0.
          2    1    1    2  501    0 -0.12515396189E+03  0.11174513476E+03 -0.39189553181E+03  0.42630106400E+03  0.00000000000E+00 0. -1.
          1    1    1    2  502    0 -0.89851642823E+02  0.14666675170E+03  0.88249019837E+02  0.19331927807E+03  0.00000000000E+00 0. -1.
         22    1    3    3    0    0  0.96874431904E+02 -0.33962671692E+02  0.48374535520E+02  0.11348222025E+03  0.00000000000E+00 0.  1.
         22    1    3    3    0    0  0.11813117281E+03 -0.22444921477E+03  0.19528138253E+03  0.32010504895E+03  0.00000000000E+00 0.  1.
</event>
<event>
 7    1  0.5213103E-005  0.1637628E+03  0.7818608E-02  0.1285844E+00
          2   -1    0    0  502    0  0.00000000000E+00  0.00000000000E+00  0.55100797155E+03  0.55100797155E+03  0.00000000000E+00 0. -1.
          1   -1    0    0  501    0 -0.00000000000E+00 -0.00000000000E+00 -0.19531412484E+03  0.19531412484E+03  0.00000000000E+00 0. -1.
         25    2    1    2    0    0 -0.95676364886E+02  0.18115202438E+03  0.91852553420E+02  0.25696635751E+03  0.12499917834E+03 0.  0.
          2    1    1    2  501    0 -0.36892179125E-01 -0.57938818096E+02 -0.87492163952E+02  0.10493706093E+03  0.00000000000E+00 0. -1.
          1    1    1    2  502    0  0.95713257065E+02 -0.12321320629E+03  0.35133345725E+03  0.38441867796E+03  0.00000000000E+00 0. -1.
         22    1    3    3    0    0 -0.54765538651E+02  0.59760908019E+01  0.44846740924E+02  0.71036666986E+02  0.00000000000E+00 0.  1.
         22    1    3    3    0    0 -0.40910826235E+02  0.17517593358E+03  0.47005812495E+02  0.18592969052E+03  0.00000000000E+00 0.  1.
</event>
<event>
 7    1  0.5213103E-005  0.2498100E+03  0.7818608E-02  0.1143707E+00
          2   -1    0    0  502    0  0.00000000000E+00  0.00000000000E+00  0.12903247404E+04  0.12903247404E+04  0.00000000000E+00 0. -1.
          1   -1    0    0  501    0 -0.00000000000E+00 -0.00000000000E+00 -0.23089557181E+03  0.23089557181E+03  0.00000000000E+00 0. -1.
         25    2    1    2    0    0 -0.22635693465E+03 -0.30543140493E+03  0.57241704308E+03  0.69843537056E+03  0.12499956263E+03 0.  0.
          2    1    1    2  501    0  0.76552809822E+02  0.22080600271E+03 -0.66639468781E+02  0.24301531294E+03  0.00000000000E+00 0. -1.
          1    1    1    2  502    0  0.14980412483E+03  0.84625402221E+02  0.55365159431E+03  0.57976962874E+03  0.00000000000E+00 0. -1.
         22    1    3    3    0    0 -0.19748760453E+03 -0.16742350863E+03  0.38313091747E+03  0.46240813694E+03  0.00000000000E+00 0. -1.
         22    1    3    3    0    0 -0.28869330124E+02 -0.13800789630E+03  0.18928612561E+03  0.23602723362E+03  0.00000000000E+00 0. -1.
</event>
<event>
 7    1  0.5213103E-005  0.4379512E+02  0.7818608E-02  0.1490814E+00
          2   -1    0    0  502    0  0.00000000000E+00  0.00000000000E+00  0.24310386670E+04  0.24310386670E+04  0.00000000000E+00 0. -1.
          1   -1    0    0  501    0 -0.00000000000E+00 -0.00000000000E+00 -0.72171675251E+02  0.72171675251E+02  0.00000000000E+00 0. -1.
         25    2    1    2    0    0  0.68670588229E+01  0.32085362286E+01  0.97157012712E+03  0.97960671006E+03  0.12499337298E+03 0.  0.
          2    1    1    2  501    0 -0.17908239833E+02  0.39966325944E+02 -0.60739378812E+02  0.74881802875E+02  0.00000000000E+00 0. -1.
          1    1    1    2  502    0  0.11041181010E+02 -0.43174862172E+02  0.14480362434E+04  0.14487218293E+04  0.00000000000E+00 0. -1.
         22    1    3    3    0    0  0.62810083477E+02 -0.12259889381E+02  0.39864299216E+03  0.40374700825E+03  0.00000000000E+00 0.  1.
         22    1    3    3    0    0 -0.55943024654E+02  0.15468425610E+02  0.57292713496E+03  0.57585970181E+03  0.00000000000E+00 0.  1.
</event>
<event>
 7    1  0.5213103E-005  0.4969254E+03  0.7818608E-02  0.1210719E+00
          2   -1    0    0  502    0  0.00000000000E+00  0.00000000000E+00  0.21058775937E+04  0.21058775937E+04  0.00000000000E+00 0. -1.
          1   -1    0    0  501    0 -0.00000000000E+00 -0.00000000000E+00 -0.28025112275E+03  0.28025112275E+03  0.00000000000E+00 0. -1.
         25    2    1    2    0    0 -0.51611075191E+03 -0.26975208162E+02  0.14549034192E+04  0.15490215362E+04  0.12500316034E+03 0.  0.
          2    1    1    2  501    0  0.49356796915E+03 -0.67352241994E+01  0.30585432920E+02  0.49456058489E+03  0.00000000000E+00 0. -1.
          1    1    1    2  502    0  0.22542782753E+02  0.33710432361E+02  0.34013761874E+03  0.34254659535E+03  0.00000000000E+00 0. -1.
         22    1    3    3    0    0 -0.18536357659E+03 -0.38518361451E+02  0.38380016703E+03  0.42795547421E+03  0.00000000000E+00 0.  1.
         22    1    3    3    0    0 -0.33074717532E+03  0.11543153290E+02  0.10711032522E+04  0.11210660620E+04  0.00000000000E+00 0.  1.
</event>
<event>
 7    1  0.5213103E-005  0.8127192E+03  0.7818608E-02  0.1109011E+00
          2   -1    0    0  502    0  0.00000000000E+00  0.00000000000E+00  0.18714489590E+04  0.18714489590E+04  0.00000000000E+00 0. -1.
          1   -1    0    0  501    0 -0.00000000000E+00 -0.00000000000E+00 -0.11618769661E+04  0.11618769661E+04  0.00000000000E+00 0. -1.
         25    2    1    2    0    0 -0.34619696238E+03  0.79714675563E+03  0.36376933621E+03  0.95039410088E+03  0.12500212098E+03 0.  0.
          2    1    1    2  501    0  0.37824525436E+02 -0.71869207078E+02 -0.73823342507E+03  0.74268732825E+03  0.00000000000E+00 0. -1.
          1    1    1    2  502    0  0.30837243694E+03 -0.72527754855E+03  0.10840360817E+04  0.13402444959E+04  0.00000000000E+00 0. -1.
         22    1    3    3    0    0 -0.29886353080E+03  0.58900512282E+03  0.31342061500E+03  0.73108065674E+03  0.00000000000E+00 0.  1.
         22    1    3    3    0    0 -0.47333431574E+02  0.20814163280E+03  0.50348721213E+02  0.21931344414E+03  0.00000000000E+00 0.  1.
</event>
<event>
 7    1  0.5213103E-005  0.2922005E+03  0.7818608E-02  0.1172835E+00
          2   -1    0    0  502    0  0.00000000000E+00  0.00000000000E+00  0.45299750534E+03  0.45299750534E+03  0.00000000000E+00 0. -1.
          1   -1    0    0  501    0 -0.00000000000E+00 -0.00000000000E+00 -0.32963976737E+03  0.32963976737E+03  0.00000000000E+00 0. -1.
         25    2    1    2    0    0  0.26513197525E+03 -0.17471871356E+03 -0.57505354854E+02  0.34605388202E+03  0.12499932101E+03 0.  0.
          2    1    1    2  501    0  0.12733919892E+02  0.10390820107E+03  0.16230347672E+02  0.10593625985E+03  0.00000000000E+00 0. -1.
          1    1    1    2  502    0 -0.27786589515E+03  0.70810512491E+02  0.16463274515E+03  0.33064713085E+03  0.00000000000E+00 0. -1.
         22    1    3    3    0    0 -0.72448678802E+01  0.82539490004E+01 -0.93248292549E+01  0.14407228232E+02  0.00000000000E+00 0.  1.
         22    1    3    3    0    0  0.27237684313E+03 -0.18297266256E+03 -0.48180525599E+02  0.33164665378E+03  0.00000000000E+00 0.  1.
</event>
<event>
 7    1  0.5213103E-005  0.8445871E+02  0.7818608E-02  0.1366341E+00
          2   -1    0    0  502    0  0.00000000000E+00  0.00000000000E+00  0.18355213078E+04  0.18355213078E+04  0.00000000000E+00 0. -1.
          1   -1    0    0  501    0 -0.00000000000E+00 -0.00000000000E+00 -0.11913740870E+04  0.11913740870E+04  0.00000000000E+00 0. -1.
         25    2    1    2    0    0 -0.66526109787E+02 -0.11903977335E+02  0.30869200667E+03  0.33982815005E+03  0.12499995449E+03 0.  0.
          2    1    1    2  501    0  0.53640909035E+02  0.65438147196E+02 -0.11737810486E+04  0.11768268557E+04  0.00000000000E+00 0. -1.
          1    1    1    2  502    0  0.12885200752E+02 -0.53534169862E+02  0.15092362627E+04  0.15102403890E+04  0.00000000000E+00 0. -1.
         22    1    3    3    0    0 -0.46394975284E+02  0.64889835509E+01  0.21847691599E+02  0.51690640037E+02  0.00000000000E+00 0. -1.
         22    1    3    3    0    0 -0.20131134503E+02 -0.18392960886E+02  0.28684431508E+03  0.28813751001E+03  0.00000000000E+00 0. -1.
</event>
<event>
 7    1  0.5213103E-005  0.2534567E+03  0.7818608E-02  0.1340150E+00
          2   -1    0    0  502    0  0.00000000000E+00  0.00000000000E+00  0.28525941543E+03  0.28525941543E+03  0.00000000000E+00 0. -1.
          1   -1    0    0  501    0 -0.00000000000E+00 -0.00000000000E+00 -0.31705068968E+03  0.31705068968E+03  0.00000000000E+00 0. -1.
         25    2    1    2    0    0 -0.32353211851E+02  0.25260640074E+03  0.49436706968E+02  0.28796837448E+03  0.12500029077E+03 0.  0.
          2    1    1    2  501    0  0.22917146393E+02 -0.19155283366E+00 -0.55982729789E+02  0.60492134414E+02  0.00000000000E+00 0. -1.
          1    1    1    2  502    0  0.94360654578E+01 -0.25241484791E+03 -0.25245251428E+02  0.25384959621E+03  0.00000000000E+00 0. -1.
         22    1    3    3    0    0 -0.14624451027E+02  0.18078543211E+03 -0.24920618401E+02  0.18307999414E+03  0.00000000000E+00 0. -1.
         22    1    3    3    0    0 -0.17728760824E+02  0.71820968632E+02  0.74357325370E+02  0.10488838035E+03  0.00000000000E+00 0. -1.
</event>
<event>
 7    1  0.5213103E-005  0.4806373E+03  0.7818608E-02  0.1153931E+00
          2   -1    0    0  502    0  0.00000000000E+00  0.00000000000E+00  0.31984656189E+04  0.31984656189E+04  0.00000000000E+00 0. -1.
          1   -1    0    0  501    0 -0.00000000000E+00 -0.00000000000E+00 -0.65988243214E+03  0.65988243214E+03  0.00000000000E+00 0. -1.
         25    2    1    2    0    0 -0.50349914282E+03  0.64383255935E+02 -0.29582300807E+03  0.60066088840E+03  0.12500264112E+03 0.  0.
          2    1    1    2  501    0  0.44074657058E+03 -0.16057978230E+02  0.19293829236E+02  0.44146081365E+03  0.00000000000E+00 0. -1.
          1    1    1    2  502    0  0.62752572242E+02 -0.48325277705E+02  0.28151123656E+04  0.28162263490E+04  0.00000000000E+00 0. -1.
         22    1    3    3    0    0 -0.36642003180E+03 -0.74546267727E+01 -0.18681948315E+03  0.41136447397E+03  0.00000000000E+00 0.  1.
         22    1    3    3    0    0 -0.13707911102E+03  0.71837882708E+02 -0.10900352492E+03  0.18929641443E+03  0.00000000000E+00 0.  1.
</event>
<event>
 7    1  0.5213103E-005  0.5862232E+03  0.7818608E-02  0.1159881E+00
          2   -1    0    0  502    0  0.00000000000E+00  0.00000000000E+00  0.25135762735E+04  0.25135762735E+04  0.00000000000E+00 0. -1.
          1   -1    0    0  501    0 -0.00000000000E+00 -0.00000000000E+00 -0.24958586300E+03  0.24958586300E+03  0.00000000000E+00 0. -1.
         25    2    1    2    0    0  0.46954600802E+03 -0.30082196261E+03  0.11101364476E+04  0.12485971962E+04  0.12499887675E+03 0.  0.
          2    1    1    2  501    0 -0.47794563188E+03  0.36080652513E+03  0.32088596277E+03  0.67939765727E+03  0.00000000000E+00 0. -1.
          1    1    1    2  502    0  0.83996238616E+01 -0.59984562523E+02  0.83296800019E+03  0.83516728310E+03  0.00000000000E+00 0. -1.
         22    1    3    3    0    0  0.10439299556E+03 -0.94521323078E+02  0.18217314207E+03  0.23025905352E+03  0.00000000000E+00 0. -1.
         22    1    3    3    0    0  0.36515301245E+03 -0.20630063953E+03  0.92796330551E+03  0.10183381426E+04  0.00000000000E+00 0. -1.
</event>
<event>
 7    1  0.5213103E-005  0.9905813E+02  0.7818608E-02  0.1400876E+00
          2   -1    0    0  502    0  0.00000000000E+00  0.00000000000E+00  0.16891356741E+04  0.16891356741E+04  0.00000000000E+00 0. -1.
          1   -1    0    0  501    0 -0.00000000000E+00 -0.00000000000E+00 -0.30268875424E+03  0.30268875424E+03  0.00000000000E+00 0. -1.
         25    2    1    2    0    0  0.26501379443E+01 -0.75560662984E+02  0.15479959686E+03  0.21284944761E+03  0.12500214054E+03 0.  0.
          2    1    1    2  501    0 -0.27999048610E+02 -0.21785201875E+02 -0.27082519822E+03  0.27313884699E+03  0.00000000000E+00 0. -1.
          1    1    1    2  502    0  0.25348910666E+02  0.97345864859E+02  0.15024725212E+04  0.15058361337E+04  0.00000000000E+00 0. -1.
         22    1    3    3    0    0 -0.48967330382E+02 -0.48808743533E+02  0.13457132884E+03  0.15129287966E+03  0.00000000000E+00 0. -1.
         22    1    3    3    0    0  0.51617468326E+02 -0.26751919451E+02  0.20228268018E+02  0.61556567950E+02  0.00000000000E+00 0. -1.
</event>
<event>
 7    1  0.5213103E-005  0.1085106E+04  0.7818608E-02  0.1100571E+00
          2   -1    0    0  502    0  0.00000000000E+00  0.00000000000E+00  0.26527932358E+04  0.26527932358E+04  0.00000000000E+00 0. -1.
          1   -1    0    0  501    0 -0.00000000000E+00 -0.00000000000E+00 -0.20534280265E+04  0.20534280265E+04  0.00000000000E+00 0. -1.
         25    2    1    2    0    0 -0.43698727171E+03 -0.10173914137E+04 -0.88125434676E+03  0.14206607086E+04  0.12499784442E+03 0.  0.
          2    1    1    2  501    0  0.37417435499E+03  0.99186398666E+03 -0.59041193848E+03  0.12134194959E+04  0.00000000000E+00 0. -1.
          1    1    1    2  502    0  0.62812916725E+02  0.25527427004E+02  0.20710314945E+04  0.20721410577E+04  0.00000000000E+00 0. -1.
         22    1    3    3    0    0 -0.27640816673E+02 -0.49221449331E+02 -0.14604624035E+02  0.58310040849E+02  0.00000000000E+00 0. -1.
         22    1    3    3    0    0 -0.40934645504E+03 -0.96816996433E+03 -0.86664972273E+03  0.13623506678E+04  0.00000000000E+00 0. -1.
</event>
<event>
 7    1  0.5213103E-005  0.4444136E+03  0.7818608E-02  0.1212943E+00
          2   -1    0    0  502    0  0.00000000000E+00  0.00000000000E+00  0.52225260792E+03  0.52225260792E+03  0.00000000000E+00 0. -1.
          1   -1    0    0  501    0 -0.00000000000E+00 -0.00000000000E+00 -0.63446437538E+03  0.63446437538E+03  0.00000000000E+00 0. -1.
         25    2    1    2    0    0 -0.33700537375E+02  0.45673698884E+03 -0.28822395272E+03  0.55537512296E+03  0.12499630828E+03 0.  0.
          2    1    1    2  501    0  0.47368341619E+01 -0.42323763656E+03  0.35439652645E+01  0.42327897927E+03  0.00000000000E+00 0. -1.
          1    1    1    2  502    0  0.28963703213E+02 -0.33499352283E+02  0.17246822000E+03  0.17806288107E+03  0.00000000000E+00 0. -1.
         22    1    3    3    0    0  0.35892023487E+02  0.29043163246E+03 -0.15455624057E+03  0.33094773300E+03  0.00000000000E+00 0.  1.
         22    1    3    3    0    0 -0.69592560862E+02  0.16630535639E+03 -0.13366771215E+03  0.22442738996E+03  0.00000000000E+00 0.  1.
</event>
<event>
 7    1  0.5213103E-005  0.4686473E+03  0.7818608E-02  0.1159361E+00
          2   -1    0    0  502    0  0.00000000000E+00  0.00000000000E+00  0.26732145693E+03  0.26732145693E+03  0.00000000000E+00 0. -1.
          1   -1    0    0  501    0 -0.00000000000E+00 -0.00000000000E+00 -0.17445990255E+04  0.17445990255E+04  0.00000000000E+00 0. -1.
         25    2    1    2    0    0  0.42935061832E+03  0.26625281839E+03 -0.33225026421E+03  0.61745134338E+03  0.12499362631E+03 0.  0.
          2    1    1    2  501    0 -0.38627626605E+02 -0.65714315500E+02 -0.87627206440E+03  0.87958126154E+03  0.00000000000E+00 0. -1.
          1    1    1    2  502    0 -0.39072299172E+03 -0.20053850289E+03 -0.26875523995E+03  0.51488787750E+03  0.00000000000E+00 0. -1.
         22    1    3    3    0    0  0.18057663240E+03  0.42794580997E+02 -0.10620331282E+03  0.21381870822E+03  0.00000000000E+00 0. -1.
         22    1    3    3    0    0  0.24877398592E+03  0.22345823740E+03 -0.22604695138E+03  0.40363263515E+03  0.00000000000E+00 0. -1.
</event>
<event>
 7    1  0.5213103E-005  0.5526780E+03  0.7818608E-02  0.1163782E+00
          2   -1    0    0  502    0  0.00000000000E+00  0.00000000000E+00  0.56967516431E+03  0.56967516431E+03  0.00000000000E+00 0. -1.
          1   -1    0    0  501    0 -0.00000000000E+00 -0.00000000000E+00 -0.13262011011E+04  0.13262011011E+04  0.00000000000E+00 0. -1.
         25    2    1    2    0    0 -0.46696771964E+03 -0.33779480167E+03 -0.30998716991E+03  0.66624444587E+03  0.12500174770E+03 0.  0.
          2    1    1    2  501    0  0.57740281304E+02 -0.20892021154E+02 -0.64685374869E+03  0.64976164001E+03  0.00000000000E+00 0. -1.
          1    1    1    2  502    0  0.40922743833E+03  0.35868682282E+03  0.20031498183E+03  0.57987017952E+03  0.00000000000E+00 0. -1.
         22    1    3    3    0    0 -0.70099869995E+02 -0.26117458359E+02 -0.15521791959E+01  0.74823276223E+02  0.00000000000E+00 0.  1.
         22    1    3    3    0    0 -0.39686784964E+03 -0.31167734331E+03 -0.30843499071E+03  0.59142116965E+03  0.00000000000E+00 0.  1.
</event>
<event>
 7    1  0.5213103E-005  0.1487627E+03  0.7818608E-02  0.1241959E+00
          2   -1    0    0  502    0  0.00000000000E+00  0.00000000000E+00  0.14971551243E+04  0.14971551243E+04  0.00000000000E+00 0. -1.
          1   -1    0    0  501    0 -0.00000000000E+00 -0.00000000000E+00 -0.12148874571E+04  0.12148874571E+04  0.00000000000E+00 0. -1.
         25    2    1    2    0    0 -0.33307673849E+02 -0.22300139461E+03 -0.38642038770E+03  0.46452611457E+03  0.12499908783E+03 0.  0.
          2    1    1    2  501    0 -0.13688803733E+02  0.13709746629E+03 -0.78173907639E+03  0.79378780677E+03  0.00000000000E+00 0. -1.
          1    1    1    2  502    0  0.46996477582E+02  0.85903928311E+02  0.14504271313E+04  0.14537286601E+04  0.00000000000E+00 0. -1.
         22    1    3    3    0    0 -0.47561408099E+02 -0.14069691675E+03 -0.13911878562E+03  0.20349876274E+03  0.00000000000E+00 0.  1.
         22    1    3    3    0    0  0.14253734250E+02 -0.82304477853E+02 -0.24730160208E+03  0.26102735183E+03  0.00000000000E+00 0.  1.
</event>
<event>
 7    1  0.5213103E-005  0.3028795E+03  0.7818608E-02  0.1128373E+00
          2   -1    0    0  502    0  0.00000000000E+00  0.00000000000E+00  0.11886824441E+04  0.11886824441E+04  0.00000000000E+00 0. -1.
          1   -1    0    0  501    0 -0.00000000000E+00 -0.00000000000E+00 -0.97164996980E+03  0.97164996980E+03  0.00000000000E+00 0. -1.
         25    2    1    2    0    0  0.39012021546E+03 -0.17915828609E+03  0.42063579992E+02  0.44909635993E+03  0.12500688684E+03 0.  0.
          2    1    1    2  501    0 -0.21949830890E+03  0.18993800369E+03 -0.73244093780E+03  0.78786146004E+03  0.00000000000E+00 0. -1.
          1    1    1    2  502    0 -0.17062190655E+03 -0.10779717600E+02  0.90740983207E+03  0.92337459389E+03  0.00000000000E+00 0. -1.
         22    1    3    3    0    0  0.32021290302E+03 -0.19438542952E+03  0.24330893664E+02  0.37538512338E+03  0.00000000000E+00 0.  1.
         22    1    3    3    0    0  0.69907312436E+02  0.15227143430E+02  0.17732686327E+02  0.73711236548E+02  0.00000000000E+00 0.  1.
</event>
<event>
 7    1  0.5213103E-005  0.4995163E+03  0.7818608E-02  0.1274414E+00
          2   -1    0    0  502    0  0.00000000000E+00  0.00000000000E+00  0.79918392190E+03  0.79918392190E+03  0.00000000000E+00 0. -1.
          1   -1    0    0  501    0 -0.00000000000E+00 -0.00000000000E+00 -0.52257783852E+03  0.52257783852E+03  0.00000000000E+00 0. -1.
         25    2    1    2    0    0 -0.35364115475E+03  0.36496029794E+03  0.35077056698E+03  0.63001775690E+03  0.12499719174E+03 0.  0.
          2    1    1    2  501    0  0.17708057148E+02 -0.11613791879E+02 -0.18954766604E+03  0.19072695969E+03  0.00000000000E+00 0. -1.
          1    1    1    2  502    0  0.33593309761E+03 -0.35334650606E+03  0.11538318244E+03  0.50101704383E+03  0.00000000000E+00 0. -1.
         22    1    3    3    0    0 -0.29523914131E+03  0.30960273524E+03  0.23231863323E+03  0.48681819150E+03  0.00000000000E+00 0.  1.
         22    1    3    3    0    0 -0.58402013446E+02  0.55357562704E+02  0.11845193375E+03  0.14319956540E+03  0.00000000000E+00 0.  1.
</event>
<event>
 7    1  0.5213103E-005  0.5627050E+03  0.7818608E-02  0.1082751E+00
          2   -1    0    0  502    0  0.00000000000E+00  0.00000000000E+00  0.12315399428E+04  0.12315399428E+04  0.00000000000E+00 0. -1.
          1   -1    0    0  501    0 -0.00000000000E+00 -0.00000000000E+00 -0.80557378818E+03  0.80557378818E+03  0.00000000000E+00 0. -1.
         25    2    1    2    0    0 -0.52830366491E+03  0.29958839619E+03 -0.44340197730E+02  0.62164997536E+03  0.12499867695E+03 0.  0.
          2    1    1    2  501    0  0.52856573908E+03 -0.13423405338E+03 -0.30355308972E+03  0.62413540189E+03  0.00000000000E+00 0. -1.
          1    1    1    2  502    0 -0.26207416801E+00 -0.16535434281E+03  0.77385944210E+03  0.79132835378E+03  0.00000000000E+00 0. -1.
         22    1    3    3    0    0 -0.24894854844E+03  0.20075284563E+03 -0.57941311354E+02  0.32501427716E+03  0.00000000000E+00 0.  1.
         22    1    3    3    0    0 -0.27935511647E+03  0.98835550567E+02  0.13601113624E+02  0.29663569819E+03  0.00000000000E+00 0.  1.
</event>
<event>
 7    1  0.5213103E-005  0.3487188E+03  0.7818608E-02  0.1250650E+00
          2   -1    0    0  502    0  0.00000000000E+00  0.00000000000E+00  0.84139279918E+03  0.84139279918E+03  0.00000000000E+00 0. -1.
          1   -1    0    0  501    0 -0.00000000000E+00 -0.00000000000E+00 -0.12388911342E+04  0.12388911342E+04  0.00000000000E+00 0. -1.
         25    2    1    2    0    0 -0.28730233630E+03  0.15941928509E+03  0.29864889182E+03  0.46127365358E+03  0.12500032802E+03 0.  0.
          2    1    1    2  501    0 -0.34403595914E+02  0.16781089479E+02 -0.10842942276E+04  0.10849696698E+04  0.00000000000E+00 0. -1.
          1    1    1    2  502    0  0.32170593222E+03 -0.17620037456E+03  0.38814700082E+03  0.53404060994E+03  0.00000000000E+00 0. -1.
         22    1    3    3    0    0 -0.23995427656E+03  0.96924460289E+02  0.27879517391E+03  0.38039342113E+03  0.00000000000E+00 0.  1.
         22    1    3    3    0    0 -0.47348059736E+02  0.62494824796E+02  0.19853717911E+02  0.80880232455E+02  0.00000000000E+00 0.  1.
</event>
<event>
 7    1  0.5213103E-005  0.2613634E+03  0.7818608E-02  0.1207247E+00
          2   -1    0    0  502    0  0.00000000000E+00  0.00000000000E+00  0.14405952834E+04  0.14405952834E+04  0.00000000000E+00 0. -1.
          1   -1    0    0  501    0 -0.00000000000E+00 -0.00000000000E+00 -0.37352966111E+03  0.37352966111E+03  0.00000000000E+00 0. -1.
         25    2    1    2    0    0  0.20363842069E+02  0.24201265731E+03  0.16896923920E+03  0.32118643112E+03  0.12500122949E+03 0.  0.
          2    1    1    2  501    0 -0.10010011720E+03 -0.24874223474E+03 -0.23529235352E+03  0.35672850241E+03  0.00000000000E+00 0. -1.
          1    1    1    2  502    0  0.79736275128E+02  0.67295774275E+01  0.11333887366E+04  0.11362100110E+04  0.00000000000E+00 0. -1.
         22    1    3    3    0    0 -0.39540036376E+02  0.17306944157E+03  0.13761974675E+03  0.22462333088E+03  0.00000000000E+00 0.  1.
         22    1    3    3    0    0  0.59903878445E+02  0.68943215748E+02  0.31349492450E+02  0.96563100237E+02  0.00000000000E+00 0.  1.
</event>
<event>
 7    1  0.5213103E-005  0.3288536E+02  0.7818608E-02  0.1606132E+00
          2   -1    0    0  502    0  0.00000000000E+00  0.00000000000E+00  0.10312766956E+04  0.10312766956E+04  0.00000000000E+00 0. -1.
          1   -1    0    0  501    0 -0.00000000000E+00 -0.00000000000E+00 -0.23247974858E+03  0.23247974858E+03  0.00000000000E+00 0. -1.
         25    2    1    2    0    0 -0.60284753586E+01  0.34997340452E+02  0.33716235874E+02  0.13425048638E+03  0.12500100870E+03 0.  0.
          2    1    1    2  501    0  0.24831935217E+02 -0.79657633497E+01 -0.18099163699E+03  0.18286074224E+03  0.00000000000E+00 0. -1.
          1    1    1    2  502    0 -0.18803459858E+02 -0.27031577102E+02  0.94607234817E+03  0.94664521561E+03  0.00000000000E+00 0. -1.
         22    1    3    3    0    0  0.12028500311E+02 -0.38452768470E+02  0.41952518355E+02  0.58166261862E+02  0.00000000000E+00 0. -1.
         22    1    3    3    0    0 -0.18056975669E+02  0.73450108921E+02 -0.82362824808E+01  0.76084224514E+02  0.00000000000E+00 0. -1.
</event>
<event>
 7    1  0.5213103E-005  0.7662140E+03  0.7818608E-02  0.1163043E+00
          2   -1    0    0  502    0  0.00000000000E+00  0.00000000000E+00  0.15766251960E+04  0.15766251960E+04  0.00000000000E+00 0. -1.
          1   -1    0    0  501    0 -0.00000000000E+00 -0.00000000000E+00 -0.13978995096E+04  0.13978995096E+04  0.00000000000E+00 0. -1.
         25    2    1    2    0    0  0.69754785058E+03 -0.33006117690E+03  0.98611045431E+03  0.12583927675E+04  0.12500057892E+03 0.  0.
          2    1    1    2  501    0  0.74663899241E+00  0.44664821270E+02 -0.94776449750E+03  0.94881665586E+03  0.00000000000E+00 0. -1.
          1    1    1    2  502    0 -0.69829448957E+03  0.28539635563E+03  0.14037972954E+03  0.76731528229E+03  0.00000000000E+00 0. -1.
         22    1    3    3    0    0  0.65961268060E+03 -0.28391605246E+03  0.94006036737E+03  0.11829669089E+04  0.00000000000E+00 0. -1.
         22    1    3    3    0    0  0.37935169982E+02 -0.46145124442E+02  0.46050086937E+02  0.75425858551E+02  0.00000000000E+00 0. -1.
</event>
<event>
 7    1  0.5213103E-005  0.5460840E+03  0.7818608E-02  0.1124887E+00
          2   -1    0    0  502    0  0.00000000000E+00  0.00000000000E+00  0.19511900024E+04  0.19511900024E+04  0.00000000000E+00 0. -1.
          1   -1    0    0  501    0 -0.00000000000E+00 -0.00000000000E+00 -0.62463800522E+03  0.62463800522E+03  0.00000000000E+00 0. -1.
         25    2    1    2    0    0  0.50629213006E+03  0.28700904204E+03  0.59875676156E+03  0.84429916933E+03  0.12500206653E+03 0.  0.
          2    1    1    2  501    0 -0.42134239910E+03 -0.33783915593E+03 -0.35365866615E+03  0.64555337866E+03  0.00000000000E+00 0. -1.
          1    1    1    2  502    0 -0.84949730956E+02  0.50830113881E+02  0.10814539018E+04  0.10859754596E+04  0.00000000000E+00 0. -1.
         22    1    3    3    0    0  0.33010631414E+03  0.13957870886E+03  0.29974901292E+03  0.46722785164E+03  0.00000000000E+00 0. -1.
         22    1    3    3    0    0  0.17618581592E+03  0.14743033319E+03  0.29900774864E+03  0.37707131769E+03  0.00000000000E+00 0. -1.
</event>
<event>
 7    1  0.5213103E-005  0.6927682E+03  0.7818608E-02  0.1237786E+00
          2   -1    0    0  502    0  0.00000000000E+00  0.00000000000E+00  0.34384937480E+04  0.34384937480E+04  0.00000000000E+00 0. -1.
          1   -1    0    0  501    0 -0.00000000000E+00 -0.00000000000E+00 -0.45641591396E+03  0.45641591396E+03  0.00000000000E+00 0. -1.
         25    2    1    2    0    0  0.41442171832E+02 -0.69707114322E+03  0.25833398723E+04  0.26789729377E+04  0.12500189172E+03 0.  0.
          2    1    1    2  501    0 -0.12600489474E+01  0.21900845371E+02 -0.26640943187E+03  0.26731109244E+03  0.00000000000E+00 0. -1.
          1    1    1    2  502    0 -0.40182122884E+02  0.67517029785E+03  0.66514739366E+03  0.94862563184E+03  0.00000000000E+00 0. -1.
         22    1    3    3    0    0  0.97091253662E+01  0.21003919120E+00  0.63778007992E+02  0.64513142345E+02  0.00000000000E+00 0. -1.
         22    1    3    3    0    0  0.31733046466E+02 -0.69728118242E+03  0.25195618643E+04  0.26144597954E+04  0.00000000000E+00 0. -1.
</event>
<event>
 7    1  0.5213103E-005  0.4517459E+03  0.7818608E-02  0.1206425E+00
          2   -1    0    0  502    0  0.00000000000E+00  0.00000000000E+00  0.62307460100E+03  0.62307460100E+03  0.00000000000E+00 0. -1.
          1   -1    0    0  501    0 -0.00000000000E+00 -0.00000000000E+00 -0.10437063111E+04  0.10437063111E+04  0.00000000000E+00 0. -1.
         25    2    1    2    0    0  0.37900007724E+02  0.45573773046E+03  0.26589176225E+03  0.54355982499E+03  0.12500225819E+03 0.  0.
          2    1    1    2  501    0 -0.45202271136E+02 -0.11758960595E+02 -0.67748212049E+03  0.67909023116E+03  0.00000000000E+00 0. -1.
          1    1    1    2  502    0  0.73022634122E+01 -0.44397876987E+03 -0.90413518328E+01  0.44413085593E+03  0.00000000000E+00 0. -1.
         22    1    3    3    0    0  0.32270996872E+01 -0.19467549748E+00 -0.93278810633E+01  0.98722558755E+01  0.00000000000E+00 0. -1.
         22    1    3    3    0    0  0.34672908037E+02  0.45593240596E+03  0.27521964331E+03  0.53368756911E+03  0.00000000000E+00 0. -1.
</event>
<event>
 7    1  0.5213103E-005  0.1450521E+03  0.7818608E-02  0.1224388E+00
          2   -1    0    0  502    0  0.00000000000E+00  0.00000000000E+00  0.28940930885E+03  0.28940930885E+03  0.00000000000E+00 0. -1.
          1   -1    0    0  501    0 -0.00000000000E+00 -0.00000000000E+00 -0.92395488792E+03  0.92395488792E+03  0.00000000000E+00 0. -1.
         25    2    1    2    0    0  0.10132346352E+03  0.20451523680E+03  0.12051498189E+02  0.26050383289E+03  0.12499632794E+03 0.  0.
          2    1    1    2  501    0 -0.11404443201E+03 -0.84905032848E+02 -0.76853681234E+03  0.78157778180E+03  0.00000000000E+00 0. -1.
          1    1    1    2  502    0  0.12720968494E+02 -0.11961020395E+03  0.12193973509E+03  0.17128258208E+03  0.00000000000E+00 0. -1.
         22    1    3    3    0    0 -0.17512355873E+02  0.94048280187E+02 -0.12244691304E+02  0.96445290603E+02  0.00000000000E+00 0.  1.
         22    1    3    3    0    0  0.11883581939E+03  0.11046695661E+03  0.24296189492E+02  0.16405854229E+03  0.00000000000E+00 0.  1.
</event>
<event>
 7    1  0.5213103E-005  0.6701514E+03  0.7818608E-02  0.1100755E+00
          2   -1    0    0  502    0  0.00000000000E+00  0.00000000000E+00  0.24539978104E+04  0.24539978104E+04  0.00000000000E+00 0. -1.
          1   -1    0    0  501    0 -0.00000000000E+00 -0.00000000000E+00 -0.31794092193E+03  0.31794092193E+03  0.00000000000E+00 0. -1.
         25    2    1    2    0    0 -0.24522997282E+03  0.62569164490E+03  0.32546973457E+03  0.75708788722E+03  0.12499498703E+03 0.  0.
          2    1    1    2  501    0  0.14039906833E+03 -0.65740544558E+03  0.10522721160E+04  0.12486674595E+04  0.00000000000E+00 0. -1.
          1    1    1    2  502    0  0.10483090449E+03  0.31713800679E+02  0.75831503790E+03  0.76618338562E+03  0.00000000000E+00 0. -1.
         22    1    3    3    0    0  0.59709474781E+01  0.10764556031E+03  0.52789652942E+02  0.12004151917E+03  0.00000000000E+00 0.  1.
         22    1    3    3    0    0 -0.25120092030E+03  0.51804608460E+03  0.27268008162E+03  0.63704636805E+03  0.00000000000E+00 0.  1.
</event>
<event>
 7    1  0.5213103E-005  0.4917246E+03  0.7818608E-02  0.1193396E+00
          2   -1    0    0  502    0  0.00000000000E+00  0.00000000000E+00  0.11300427863E+04  0.11300427863E+04  0.00000000000E+00 0. -1.
          1   -1    0    0  501    0 -0.00000000000E+00 -0.00000000000E+00 -0.77372737095E+03  0.77372737095E+03  0.00000000000E+00 0. -1.
         25    2    1    2    0    0 -0.50988166114E+03  0.11319767050E+03 -0.24150185115E+03  0.58884678813E+03  0.12499749921E+03 0.  0.
          2    1    1    2  501    0  0.42603793507E+02  0.25070018155E+02 -0.29428256392E+03  0.29840545648E+03  0.00000000000E+00 0. -1.
          1    1    1    2  502    0  0.46727786763E+03 -0.13826768865E+03  0.89209983045E+03  0.10165179127E+04  0.00000000000E+00 0. -1.
         22    1    3    3    0    0 -0.32900112704E+03  0.13783188460E+02 -0.12796344428E+03  0.35327943749E+03  0.00000000000E+00 0. -1.
         22    1    3    3    0    0 -0.18088053410E+03  0.99414482039E+02 -0.11353840687E+03  0.23556735064E+03  0.00000000000E+00 0. -1.
</event>
<event>
 7    1  0.5213103E-005  0.1469612E+04  0.7818608E-02  0.1081442E+00
          2   -1    0    0  502    0  0.00000000000E+00  0.00000000000E+00  0.43416700133E+04  0.43416700133E+04  0.00000000000E+00 0. -1.
          1   -1    0    0  501    0 -0.00000000000E+00 -0.00000000000E+00 -0.11731261662E+04  0.11731261662E+04  0.00000000000E+00 0. -1.
         25    2    1    2    0    0  0.12874237721E+04 -0.73993115806E+03  0.95432947265E+03  0.17695571021E+04  0.12501802928E+03 0.  0.
          2    1    1    2  501    0 -0.12964658926E+04  0.67613416227E+03 -0.66423007628E+02  0.14636916451E+04  0.00000000000E+00 0. -1.
          1    1    1    2  502    0  0.90421204602E+01  0.63796995792E+02  0.22806373821E+04  0.22815474322E+04  0.00000000000E+00 0. -1.
         22    1    3    3    0    0  0.23398244861E+03 -0.13132330273E+03  0.23174505916E+03  0.35454106750E+03  0.00000000000E+00 0. -1.
         22    1    3    3    0    0  0.10534413235E+04 -0.60860785533E+03  0.72258441349E+03  0.14150160346E+04  0.00000000000E+00 0. -1.
</event>
<event>
 7    1  0.5213103E-005  0.2012394E+03  0.7818608E-02  0.1211059E+00
          2   -1    0    0  502    0  0.00000000000E+00  0.00000000000E+00  0.76540182055E+03  0.76540182055E+03  0.00000000000E+00 0. -1.
          1   -1    0    0  501    0 -0.00000000000E+00 -0.00000000000E+00 -0.18132658681E+03  0.18132658681E+03  0.00000000000E+00 0. -1.
         25    2    1    2    0    0  0.15262876305E+03 -0.20568609271E+03  0.50501490407E+03  0.57988516404E+03  0.12499776837E+03 0.  0.
          2    1    1    2  501    0 -0.63585613396E+02  0.76891066012E+02 -0.91450735775E+02  0.13534623503E+03  0.00000000000E+00 0. -1.
          1    1    1    2  502    0 -0.89043149658E+02  0.12879502670E+03  0.17051106546E+03  0.23149700829E+03  0.00000000000E+00 0. -1.
         22    1    3    3    0    0 -0.10419615832E+02 -0.65982519514E+01 -0.81516582163E+00  0.12360008828E+02  0.00000000000E+00 0. -1.
         22    1    3    3    0    0  0.16304837889E+03 -0.19908784076E+03  0.50583006989E+03  0.56752515521E+03  0.00000000000E+00 0. -1.
</event>
<event>
 7    1  0.5213103E-005  0.8759438E+03  0.7818608E-02  0.1025224E+00
          2   -1    0    0  502    0  0.00000000000E+00  0.00000000000E+00  0.30679712364E+04  0.30679712364E+04  0.00000000000E+00 0. -1.
          1   -1    0    0  501    0 -0.00000000000E+00 -0.00000000000E+00 -0.92970207414E+03  0.92970207414E+03  0.00000000000E+00 0. -1.
         25    2    1    2    0    0  0.52477096750E+03  0.87802770946E+03  0.99220575476E+03  0.14305290591E+04  0.12499560933E+03 0.  0.
          2    1    1    2  501    0 -0.30056853720E+03 -0.79247386886E+03 -0.44555559779E+03  0.95753645836E+03  0.00000000000E+00 0. -1.
          1    1    1    2  502    0 -0.22420243030E+03 -0.85553840604E+02  0.15916190053E+04  0.16096077931E+04  0.00000000000E+00 0. -1.
         22    1    3    3    0    0  0.22234417216E+03  0.25876669182E+03  0.31631318977E+03  0.46524312538E+03  0.00000000000E+00 0. -1.
         22    1    3    3    0    0  0.30242679534E+03  0.61926101764E+03  0.67589256499E+03  0.96528593376E+03  0.00000000000E+00 0. -1.
</event>
<event>
 7    1  0.5213103E-005  0.6027829E+03  0.7818608E-02  0.1057217E+00
          2   -1    0    0  502    0  0.00000000000E+00  0.00000000000E+00  0.23950233071E+04  0.23950233071E+04  0.00000000000E+00 0. -1.
          1   -1    0    0  501    0 -0.00000000000E+00 -0.00000000000E+00 -0.99499412009E+03  0.99499412009E+03  0.00000000000E+00 0. -1.
         25    2    1    2    0    0  0.71364390362E+01  0.77782790150E+03  0.46419578851E+03  0.91442080951E+03  0.12498205346E+03 0.  0.
          2    1    1    2  501    0  0.46970807869E+02 -0.21408049678E+03 -0.70578574162E+03  0.73903330708E+03  0.00000000000E+00 0. -1.
          1    1    1    2  502    0 -0.54107246905E+02 -0.56374740472E+03  0.16416191401E+04  0.17365633106E+04  0.00000000000E+00 0. -1.
         22    1    3    3    0    0 -0.37388710028E+01  0.73583038877E+03  0.46602549873E+03  0.87099948660E+03  0.00000000000E+00 0. -1.
         22    1    3    3    0    0  0.10875310039E+02  0.41997512730E+02 -0.18297102199E+01  0.43421322912E+02  0.00000000000E+00 0. -1.
</event>
<event>
 7    1  0.5213103E-005  0.5432587E+03  0.7818608E-02  0.1134512E+00
          2   -1    0    0  502    0  0.00000000000E+00  0.00000000000E+00  0.14417611994E+04  0.14417611994E+04  0.00000000000E+00 0. -1.
          1   -1    0    0  501    0 -0.00000000000E+00 -0.00000000000E+00 -0.92163422777E+03  0.92163422777E+03  0.00000000000E+00 0. -1.
         25    2    1    2    0    0 -0.24401960863E+03 -0.44560860600E+03 -0.31863493913E+03  0.61258080654E+03  0.12495767674E+03 0.  0.
          2    1    1    2  501    0  0.25069229593E+03  0.53376823934E+03 -0.26286781965E+03  0.64564282012E+03  0.00000000000E+00 0. -1.
          1    1    1    2  502    0 -0.66726872942E+01 -0.88159633342E+02  0.11016297304E+04  0.11051718005E+04  0.00000000000E+00 0. -1.
         22    1    3    3    0    0 -0.21621236278E+03 -0.44255233150E+03 -0.31427595087E+03  0.58426853863E+03  0.00000000000E+00 0.  1.
         22    1    3    3    0    0 -0.27807245859E+02 -0.30562744989E+01 -0.43589882545E+01  0.28312267918E+02  0.00000000000E+00 0.  1.
</event>
<event>
 7    1  0.5213103E-005  0.1995150E+03  0.7818608E-02  0.1243139E+00
          2   -1    0    0  502    0  0.00000000000E+00  0.00000000000E+00  0.15720223722E+03  0.15720223722E+03  0.00000000000E+00 0. -1.
          1   -1    0    0  501    0 -0.00000000000E+00 -0.00000000000E+00 -0.22855234499E+04  0.22855234499E+04  0.00000000000E+00 0. -1.
         25    2    1    2    0    0 -0.94522450875E+01 -0.25740804175E+03 -0.34871883685E+03  0.45119619596E+03  0.12499974074E+03 0.  0.
          2    1    1    2  501    0 -0.12058716301E+02  0.71129652356E+02 -0.18013160510E+04  0.18027602047E+04  0.00000000000E+00 0. -1.
          1    1    1    2  502    0  0.21510961388E+02  0.18627838940E+03  0.21713675162E+02  0.18876928644E+03  0.00000000000E+00 0. -1.
         22    1    3    3    0    0 -0.63614601986E+02 -0.13450070816E+03 -0.14942343187E+03  0.21086635595E+03  0.00000000000E+00 0.  1.
         22    1    3    3    0    0  0.54162356898E+02 -0.12290733359E+03 -0.19929540497E+03  0.24032984001E+03  0.00000000000E+00 0.  1.
</event>
<event>
 7    1  0.5213103E-005  0.5221197E+03  0.7818608E-02  0.1083067E+00
          2   -1    0    0  502    0  0.00000000000E+00  0.00000000000E+00  0.34904185535E+03  0.34904185535E+03  0.00000000000E+00 0. -1.
          1   -1    0    0  501    0 -0.00000000000E+00 -0.00000000000E+00 -0.15630508776E+04  0.15630508776E+04  0.00000000000E+00 0. -1.
         25    2    1    2    0    0 -0.44306603702E+03  0.26412739976E+03 -0.71176497760E+03  0.88786933689E+03  0.12502711541E+03 0.  0.
          2    1    1    2  501    0  0.53382090306E+03 -0.11163452527E+03 -0.60870606302E+03  0.81728213912E+03  0.00000000000E+00 0. -1.
          1    1    1    2  502    0 -0.90754866038E+02 -0.15249287450E+03  0.10646201835E+03  0.20694125696E+03  0.00000000000E+00 0. -1.
         22    1    3    3    0    0 -0.23484622145E+03  0.14175722931E+03 -0.48159994408E+03  0.55424395886E+03  0.00000000000E+00 0.  1.
         22    1    3    3    0    0 -0.20821981558E+03  0.12237017045E+03 -0.23016503352E+03  0.33362537803E+03  0.00000000000E+00 0.  1.
</event>
<event>
 7    1  0.5213103E-005  0.1430989E+04  0.7818608E-02  0.1091427E+00
          2   -1    0    0  502    0  0.00000000000E+00  0.00000000000E+00  0.19358855803E+04  0.19358855803E+04  0.00000000000E+00 0. -1.
          1   -1    0    0  501    0 -0.00000000000E+00 -0.00000000000E+00 -0.12301832650E+04  0.12301832650E+04  0.00000000000E+00 0. -1.
         25    2    1    2    0    0  0.18842259471E+03 -0.14021913912E+04  0.36044343074E+03  0.14653283864E+04  0.12499616632E+03 0.  0.
          2    1    1    2  501    0  0.52729210906E+02 -0.24014609894E+02 -0.15875194935E+03  0.16899483008E+03  0.00000000000E+00 0. -1.
          1    1    1    2  502    0 -0.24115180562E+03  0.14262060011E+04  0.50401083395E+03  0.15317456289E+04  0.00000000000E+00 0. -1.
         22    1    3    3    0    0  0.81455895524E+02 -0.91335424188E+03  0.27788475426E+03  0.95816020097E+03  0.00000000000E+00 0.  1.
         22    1    3    3    0    0  0.10696669919E+03 -0.48883714929E+03  0.82558676475E+02  0.50716818544E+03  0.00000000000E+00 0.  1.
</event>
<event>
 7    1  0.5213103E-005  0.5404801E+03  0.7818608E-02  0.1073416E+00
          2   -1    0    0  502    0  0.00000000000E+00  0.00000000000E+00  0.41048387768E+04  0.41048387768E+04  0.00000000000E+00 0. -1.
          1   -1    0    0  501    0 -0.00000000000E+00 -0.00000000000E+00 -0.54627049927E+03  0.54627049927E+03  0.00000000000E+00 0. -1.
         25    2    1    2    0    0  0.47507308156E+03  0.40145385462E+03  0.59256259407E+03  0.86811345525E+03  0.12502365010E+03 0.  0.
          2    1    1    2  501    0 -0.18955470804E+03  0.47050865335E+02 -0.36278308385E+03  0.41201497205E+03  0.00000000000E+00 0. -1.
          1    1    1    2  502    0 -0.28551837352E+03 -0.44850471995E+03  0.33287887673E+04  0.33709808487E+04  0.00000000000E+00 0. -1.
         22    1    3    3    0    0 -0.67617632185E+01  0.12363714911E+02  0.21427702165E+02  0.25646233803E+02  0.00000000000E+00 0. -1.
         22    1    3    3    0    0  0.48183484477E+03  0.38909013971E+03  0.57113489190E+03  0.84246722144E+03  0.00000000000E+00 0. -1.
</event>
<event>
 7    1  0.5213103E-005  0.5222554E+03  0.7818608E-02  0.1029798E+00
          2   -1    0    0  502    0  0.00000000000E+00  0.00000000000E+00  0.16935714674E+04  0.16935714674E+04  0.00000000000E+00 0. -1.
          1   -1    0    0  501    0 -0.00000000000E+00 -0.00000000000E+00 -0.37481405369E+03  0.37481405369E+03  0.00000000000E+00 0. -1.
         25    2    1    2    0    0  0.73539964220E+03 -0.23110898109E+03  0.67109967051E+03  0.10296717707E+04  0.12500077129E+03 0.  0.
          2    1    1    2  501    0 -0.42040788166E+03  0.25878637454E+02  0.24259848602E+03  0.48607254217E+03  0.00000000000E+00 0. -1.
          1    1    1    2  502    0 -0.31499176054E+03  0.20523034363E+03  0.40505925721E+03  0.55264120821E+03  0.00000000000E+00 0. -1.
         22    1    3    3    0    0  0.32492196485E+03 -0.15966439154E+03  0.27321087921E+03  0.45355395014E+03  0.00000000000E+00 0.  1.
         22    1    3    3    0    0  0.41047767735E+03 -0.71444589550E+02  0.39788879130E+03  0.57611782061E+03  0.00000000000E+00 0.  1.
</event>
<event>
 7    1  0.5213103E-005  0.2880980E+03  0.7818608E-02  0.1147739E+00
          2   -1    0    0  502    0  0.00000000000E+00  0.00000000000E+00  0.27214941956E+04  0.27214941956E+04  0.00000000000E+00 0. -1.
          1   -1    0    0  501    0 -0.00000000000E+00 -0.00000000000E+00 -0.53057325235E+03  0.53057325235E+03  0.00000000000E+00 0. -1.
         25    2    1    2    0    0  0.27558587687E+02 -0.35164413386E+03  0.36985470803E+03  0.52614660296E+03  0.12499868047E+03 0.  0.
          2    1    1    2  501    0  0.88738307729E+02  0.26985466027E+03 -0.40534454873E+03  0.49497497726E+03  0.00000000000E+00 0. -1.
          1    1    1    2  502    0 -0.11629689542E+03  0.81789473589E+02  0.22264107839E+04  0.22309458677E+04  0.00000000000E+00 0. -1.
         22    1    3    3    0    0  0.24876225389E+02 -0.10410057312E+03  0.41200656068E+02  0.11468761909E+03  0.00000000000E+00 0. -1.
         22    1    3    3    0    0  0.26823622980E+01 -0.24754356074E+03  0.32865405196E+03  0.41145898387E+03  0.00000000000E+00 0. -1.
</event>
<event>
 7    1  0.5213103E-005  0.4254874E+03  0.7818608E-02  0.1117723E+00
          2   -1    0    0  502    0  0.00000000000E+00  0.00000000000E+00  0.87251385282E+03  0.87251385282E+03  0.00000000000E+00 0. -1.
          1   -1    0    0  501    0 -0.00000000000E+00 -0.00000000000E+00 -0.10090461922E+04  0.10090461922E+04  0.00000000000E+00 0. -1.
         25    2    1    2    0    0  0.35731572298E+03 -0.30220936027E+03  0.59214248272E+03  0.76502513374E+03  0.12500284832E+03 0.  0.
          2    1    1    2  501    0 -0.13508540300E+03  0.32467172273E+02 -0.75345964005E+03  0.76616160995E+03  0.00000000000E+00 0. -1.
          1    1    1    2  502    0 -0.22223031997E+03  0.26974218799E+03  0.24784817937E+02  0.35037330135E+03  0.00000000000E+00 0. -1.
         22    1    3    3    0    0  0.44876416162E+02 -0.35876854158E+01  0.23514902651E+02  0.50790893484E+02  0.00000000000E+00 0. -1.
         22    1    3    3    0    0  0.31243930681E+03 -0.29862167485E+03  0.56862758007E+03  0.71423424025E+03  0.00000000000E+00 0. -1.
</event>
<event>
 7    1  0.5213103E-005  0.4777342E+03  0.7818608E-02  0.1175395E+00
          2   -1    0    0  502    0  0.00000000000E+00  0.00000000000E+00  0.88044399219E+03  0.88044399219E+03  0.00000000000E+00 0. -1.
          1   -1    0    0  501    0 -0.00000000000E+00 -0.00000000000E+00 -0.13506002202E+04  0.13506002202E+04  0.00000000000E+00 0. -1.
         25    2    1    2    0    0 -0.44809044343E+03  0.27341013233E+03 -0.12876510444E+03  0.55474642544E+03  0.12499999386E+03 0.  0.
          2    1    1    2  501    0  0.60748693211E+02 -0.13335895792E+02 -0.92614295831E+03  0.92822897448E+03  0.00000000000E+00 0. -1.
          1    1    1    2  502    0  0.38734175021E+03 -0.26007423654E+03  0.58475183474E+03  0.74806881248E+03  0.00000000000E+00 0. -1.
         22    1    3    3    0    0 -0.34983722097E+02 -0.10044814173E+02  0.35382150287E+01  0.36568812793E+02  0.00000000000E+00 0.  1.
         22    1    3    3    0    0 -0.41310672133E+03  0.28345494651E+03 -0.13230331947E+03  0.51817761265E+03  0.00000000000E+00 0.  1.
</event>
<event>
 7    1  0.5213103E-005  0.3645185E+03  0.7818608E-02  0.1069794E+00
          2   -1    0    0  502    0  0.00000000000E+00  0.00000000000E+00  0.34372449231E+04  0.34372449231E+04  0.00000000000E+00 0. -1.
          1   -1    0    0  501    0 -0.00000000000E+00 -0.00000000000E+00 -0.12568936771E+04  0.12568936771E+04  0.00000000000E+00 0. -1.
         25    2    1    2    0    0 -0.42840717606E+03  0.15555483306E+02  0.13901582232E+04  0.14601163053E+04  0.12500023138E+03 0.  0.
          2    1    1    2  501    0  0.17027508945E+03  0.25220519399E+03 -0.11853431168E+04  0.12237807689E+04  0.00000000000E+00 0. -1.
          1    1    1    2  502    0  0.25813208661E+03 -0.26776067730E+03  0.19755361396E+04  0.20102415261E+04  0.00000000000E+00 0. -1.
         22    1    3    3    0    0 -0.38558194595E+03  0.52141933951E+02  0.12462851878E+04  0.13056105804E+04  0.00000000000E+00 0. -1.
         22    1    3    3    0    0 -0.42825230113E+02 -0.36586450645E+02  0.14387303537E+03  0.15450572485E+03  0.00000000000E+00 0. -1.
</event>
<event>
 7    1  0.5213103E-005  0.9404038E+02  0.7818608E-02  0.1314565E+00
          2   -1    0    0  502    0  0.00000000000E+00  0.00000000000E+00  0.55418766605E+03  0.55418766605E+03  0.00000000000E+00 0. -1.
          1   -1    0    0  501    0 -0.00000000000E+00 -0.00000000000E+00 -0.86056129835E+02  0.86056129835E+02  0.00000000000E+00 0. -1.
         25    2    1    2    0    0 -0.72128964593E+02 -0.46032765905E+02  0.34974653717E+03  0.38114242493E+03  0.12500121897E+03 0.  0.
          2    1    1    2  501    0  0.99538768583E+01 -0.76788801917E+02  0.89672355277E+02  0.11847671107E+03  0.00000000000E+00 0. -1.
          1    1    1    2  502    0  0.62175087735E+02  0.12282156782E+03  0.28712643762E+02  0.14062465989E+03  0.00000000000E+00 0. -1.
         22    1    3    3    0    0 -0.77323541878E+02 -0.19712591965E+02  0.34473575046E+03  0.35385060980E+03  0.00000000000E+00 0. -1.
         22    1    3    3    0    0  0.51945772844E+01 -0.26320173940E+02  0.50107867149E+01  0.27291815127E+02  0.00000000000E+00 0. -1.
</event>
<event>
 7    1  0.5213103E-005  0.4343148E+03  0.7818608E-02  0.1241388E+00
          2   -1    0    0  502    0  0.00000000000E+00  0.00000000000E+00  0.14175172763E+04  0.14175172763E+04  0.00000000000E+00 0. -1.
          1   -1    0    0  501    0 -0.00000000000E+00 -0.00000000000E+00 -0.74003249397E+03  0.74003249397E+03  0.00000000000E+00 0. -1.
         25    2    1    2    0    0 -0.39194733197E+03 -0.16814992324E+03 -0.45415372239E+02  0.44674922039E+03  0.12500080862E+03 0.  0.
          2    1    1    2  501    0 -0.20266527801E+02  0.26967355355E+02 -0.45429982350E+03  0.45555054608E+03  0.00000000000E+00 0. -1.
          1    1    1    2  502    0  0.41221385977E+03  0.14118256789E+03  0.11771999781E+04  0.12552500038E+04  0.00000000000E+00 0. -1.
         22    1    3    3    0    0 -0.20308672549E+03 -0.71257322729E+02  0.38237003064E+02  0.21859527103E+03  0.00000000000E+00 0.  1.
         22    1    3    3    0    0 -0.18886060648E+03 -0.96892600516E+02 -0.83652375303E+02  0.22815394936E+03  0.00000000000E+00 0.  1.
</event>
<event>
 7    1  0.5213103E-005  0.7867372E+03  0.7818608E-02  0.1086477E+00
          2   -1    0    0  502    0  0.00000000000E+00  0.00000000000E+00  0.11221419919E+04  0.11221419919E+04  0.00000000000E+00 0. -1.
          1   -1    0    0  501    0 -0.00000000000E+00 -0.00000000000E+00 -0.97645003698E+03  0.97645003698E+03  0.00000000000E+00 0. -1.
         25    2    1    2    0    0 -0.59672703369E+02  0.84783290897E+03  0.76810482487E+02  0.86249970163E+03  0.12499764808E+03 0.  0.
          2    1    1    2  501    0 -0.45161683203E+02 -0.10306796031E+03 -0.35524468340E+03  0.37264107014E+03  0.00000000000E+00 0. -1.
          1    1    1    2  502    0  0.10483438657E+03 -0.74476494866E+03  0.42412615585E+03  0.86345125713E+03  0.00000000000E+00 0. -1.
         22    1    3    3    0    0  0.57097230153E+01  0.55187160054E+02  0.35954717764E+02  0.66113276286E+02  0.00000000000E+00 0. -1.
         22    1    3    3    0    0 -0.65382426384E+02  0.79264574892E+03  0.40855764722E+02  0.79638642534E+03  0.00000000000E+00 0. -1.
</event>
<event>
 7    1  0.5213103E-005  0.1764362E+03  0.7818608E-02  0.1354806E+00
          2   -1    0    0  502    0  0.00000000000E+00  0.00000000000E+00  0.18488072082E+04  0.18488072082E+04  0.00000000000E+00 0. -1.
          1   -1    0    0  501    0 -0.00000000000E+00 -0.00000000000E+00 -0.17006807291E+03  0.17006807291E+03  0.00000000000E+00 0. -1.
         25    2    1    2    0    0  0.20259804252E+03 -0.16527323030E+02  0.79787891401E+03  0.83279928278E+03  0.12499905899E+03 0.  0.
          2    1    1    2  501    0 -0.17456193199E+03  0.89622005734E+01 -0.10227294828E+03  0.20251406146E+03  0.00000000000E+00 0. -1.
          1    1    1    2  502    0 -0.28036110536E+02  0.75651224571E+01  0.98313316961E+03  0.98356193692E+03  0.00000000000E+00 0. -1.
         22    1    3    3    0    0  0.16184163324E+03 -0.64839023423E+02  0.54896044207E+03  0.57598123247E+03  0.00000000000E+00 0. -1.
         22    1    3    3    0    0  0.40756409284E+02  0.48311700392E+02  0.24891847194E+03  0.25681805031E+03  0.00000000000E+00 0. -1.
</event>
<event>
 7    1  0.5213103E-005  0.6578710E+03  0.7818608E-02  0.1180938E+00
          2   -1    0    0  502    0  0.00000000000E+00  0.00000000000E+00  0.12669685040E+04  0.12669685040E+04  0.00000000000E+00 0. -1.
          1   -1    0    0  501    0 -0.00000000000E+00 -0.00000000000E+00 -0.18947015653E+04  0.18947015653E+04  0.00000000000E+00 0. -1.
         25    2    1    2    0    0  0.64952366307E+03 -0.73045691017E+02  0.10199957465E+04  0.12178807830E+04  0.12500246679E+03 0.  0.
          2    1    1    2  501    0  0.37143943440E+02 -0.20505933695E+02 -0.98169077554E+03  0.98260721788E+03  0.00000000000E+00 0. -1.
          1    1    1    2  502    0 -0.68666760651E+03  0.93551624712E+02 -0.66603803222E+03  0.96118206843E+03  0.00000000000E+00 0. -1.
         22    1    3    3    0    0  0.76013358102E+02 -0.27453270769E+02  0.20431327708E+03  0.21971715427E+03  0.00000000000E+00 0. -1.
         22    1    3    3    0    0  0.57351030496E+03 -0.45592420249E+02  0.81568246944E+03  0.99816362869E+03  0.00000000000E+00 0. -1.
</event>
<event>
 7    1  0.5213103E-005  0.2864731E+03  0.7818608E-02  0.1111429E+00
          2   -1    0    0  502    0  0.00000000000E+00  0.00000000000E+00  0.12491360365E+04  0.12491360365E+04  0.00000000000E+00 0. -1.
          1   -1    0    0  501    0 -0.00000000000E+00 -0.00000000000E+00 -0.45484932558E+03  0.45484932558E+03  0.00000000000E+00 0. -1.
         25    2    1    2    0    0 -0.62808876015E+02  0.47659448900E+03  0.61820873714E+03  0.79303043435E+03  0.12501186055E+03 0.  0.
          2    1    1    2  501    0  0.94503317412E+02 -0.25543148248E+03 -0.28770008084E+03  0.39616594473E+03  0.00000000000E+00 0. -1.
          1    1    1    2  502    0 -0.31694441396E+02 -0.22116300652E+03  0.46377805458E+03  0.51478898296E+03  0.00000000000E+00 0. -1.
         22    1    3    3    0    0 -0.96209693931E+02  0.35728241101E+03  0.49789095517E+03  0.62032445516E+03  0.00000000000E+00 0. -1.
         22    1    3    3    0    0  0.33400817916E+02  0.11931207799E+03  0.12031778197E+03  0.17270597919E+03  0.00000000000E+00 0. -1.
</event>
<event>
 7    1  0.5213103E-005  0.1127039E+03  0.7818608E-02  0.1311844E+00
          2   -1    0    0  502    0  0.00000000000E+00  0.00000000000E+00  0.16900978433E+04  0.16900978433E+04  0.00000000000E+00 0. -1.
          1   -1    0    0  501    0 -0.00000000000E+00 -0.00000000000E+00 -0.23977265790E+02  0.23977265790E+02  0.00000000000E+00 0. -1.
         25    2    1    2    0    0  0.11859383812E+03  0.34894301275E+02  0.47072567957E+03  0.50248311271E+03  0.12499800980E+03 0.  0.
          2    1    1    2  501    0 -0.10701526128E+03  0.30301311658E+02  0.46138566739E+03  0.47460211726E+03  0.00000000000E+00 0. -1.
          1    1    1    2  502    0 -0.11578576845E+02 -0.65195612934E+02  0.73400923051E+03  0.73698987907E+03  0.00000000000E+00 0. -1.
         22    1    3    3    0    0  0.13641270070E+03  0.56569946438E+02  0.40048248058E+03  0.42684282939E+03  0.00000000000E+00 0.  1.
         22    1    3    3    0    0 -0.17818862574E+02 -0.21675645163E+02  0.70243198990E+02  0.75640283322E+02  0.00000000000E+00 0.  1.
</event>
<event>
 7    1  0.5213103E-005  0.2563795E+04  0.7818608E-02  0.9922911E-01
          2   -1    0    0  502    0  0.00000000000E+00  0.00000000000E+00  0.29814327359E+04  0.29814327359E+04  0.00000000000E+00 0. -1.
          1   -1    0    0  501    0 -0.00000000000E+00 -0.00000000000E+00 -0.30722892869E+04  0.30722892869E+04  0.00000000000E+00 0. -1.
         25    2    1    2    0    0  0.13770037950E+04  0.20865043639E+04  0.13083707124E+03  0.25064665894E+04  0.12496604674E+03 0.  0.
          2    1    1    2  501    0  0.12133925486E+03  0.62586619018E+02 -0.84361943782E+03  0.85459584338E+03  0.00000000000E+00 0. -1.
          1    1    1    2  502    0 -0.14983430499E+04 -0.21490909829E+04  0.62192581559E+03  0.26926595900E+04  0.00000000000E+00 0. -1.
         22    1    3    3    0    0  0.12087262792E+04  0.18431101544E+04  0.15521231031E+03  0.22095622011E+04  0.00000000000E+00 0.  1.
         22    1    3    3    0    0  0.16827751587E+03  0.24339420943E+03 -0.24375239069E+02  0.29690438833E+03  0.00000000000E+00 0.  1.
</event>
<event>
 7    1  0.5213103E-005  0.8669662E+02  0.7818608E-02  0.1324423E+00
          2   -1    0    0  502    0  0.00000000000E+00  0.00000000000E+00  0.13171645867E+04  0.13171645867E+04  0.00000000000E+00 0. -1.
          1   -1    0    0  501    0 -0.00000000000E+00 -0.00000000000E+00 -0.52460973234E+03  0.52460973234E+03  0.00000000000E+00 0. -1.
         25    2    1    2    0    0 -0.11444069722E+02 -0.10063096251E+03 -0.72384517389E+02  0.17641299866E+03  0.12499788155E+03 0.  0.
          2    1    1    2  501    0 -0.58845110219E+02  0.49512739313E+02 -0.39500561495E+03  0.40242228342E+03  0.00000000000E+00 0. -1.
          1    1    1    2  502    0  0.70289179942E+02  0.51118223199E+02  0.12599449867E+04  0.12629390370E+04  0.00000000000E+00 0. -1.
         22    1    3    3    0    0  0.24152288646E+01 -0.45797872442E+02 -0.10253266903E+03  0.11232197768E+03  0.00000000000E+00 0.  1.
         22    1    3    3    0    0 -0.13859298587E+02 -0.54833090070E+02  0.30148151640E+02  0.64091020988E+02  0.00000000000E+00 0.  1.
</event>
<event>
 7    1  0.5213103E-005  0.2858334E+03  0.7818608E-02  0.1125726E+00
          2   -1    0    0  502    0  0.00000000000E+00  0.00000000000E+00  0.11678963429E+04  0.11678963429E+04  0.00000000000E+00 0. -1.
          1   -1    0    0  501    0 -0.00000000000E+00 -0.00000000000E+00 -0.57870832096E+03  0.57870832096E+03  0.00000000000E+00 0. -1.
         25    2    1    2    0    0  0.41338340074E+02 -0.39531049698E+03 -0.22810082341E+03  0.47501005195E+03  0.12500126569E+03 0.  0.
          2    1    1    2  501    0 -0.92031477957E+02  0.21512959278E+03 -0.15551023092E+03  0.28095189365E+03  0.00000000000E+00 0. -1.
          1    1    1    2  502    0  0.50693137883E+02  0.18018090421E+03  0.97279907624E+03  0.99064271824E+03  0.00000000000E+00 0. -1.
         22    1    3    3    0    0 -0.10363446926E+02 -0.29057725154E+03 -0.20548015646E+03  0.35604021521E+03  0.00000000000E+00 0.  1.
         22    1    3    3    0    0  0.51701787000E+02 -0.10473324544E+03 -0.22620666941E+02  0.11896983674E+03  0.00000000000E+00 0.  1.
</event>
<event>
 7    1  0.5213103E-005  0.9700718E+03  0.7818608E-02  0.1144279E+00
          2   -1    0    0  502    0  0.00000000000E+00  0.00000000000E+00  0.24919214614E+04  0.24919214614E+04  0.00000000000E+00 0. -1.
          1   -1    0    0  501    0 -0.00000000000E+00 -0.00000000000E+00 -0.15263008518E+04  0.15263008518E+04  0.00000000000E+00 0. -1.
         25    2    1    2    0    0 -0.64325276061E+03 -0.74877698465E+03  0.13605055995E+04  0.16855384029E+04  0.12499253862E+03 0.  0.
          2    1    1    2  501    0  0.38338875652E+02  0.21599773144E+02 -0.11323985983E+04  0.11332532837E+04  0.00000000000E+00 0. -1.
          1    1    1    2  502    0  0.60491388496E+03  0.72717721151E+03  0.73751360845E+03  0.11994306265E+04  0.00000000000E+00 0. -1.
         22    1    3    3    0    0 -0.49816708933E+03 -0.63515596195E+03  0.10493482058E+04  0.13239052844E+04  0.00000000000E+00 0.  1.
         22    1    3    3    0    0 -0.14508567128E+03 -0.11362102271E+03  0.31115739363E+03  0.36163311854E+03  0.00000000000E+00 0.  1.
</event>
<event>
 7    1  0.5213103E-005  0.1964126E+03  0.7818608E-02  0.1202524E+00
          2   -1    0    0  502    0  0.00000000000E+00  0.00000000000E+00  0.13438365789E+04  0.13438365789E+04  0.00000000000E+00 0. -1.
          1   -1    0    0  501    0 -0.00000000000E+00 -0.00000000000E+00 -0.11059267928E+04  0.11059267928E+04  0.00000000000E+00 0. -1.
         25    2    1    2    0    0  0.27697069190E+03 -0.88006554135E+02  0.67771066073E+03  0.74791337297E+03  0.12499902423E+03 0.  0.
          2    1    1    2  501    0 -0.19499222464E+03  0.11639706493E+02 -0.10568302888E+04  0.10747314594E+04  0.00000000000E+00 0. -1.
          1    1    1    2  502    0 -0.81978467254E+02  0.76366847642E+02  0.61702941411E+03  0.62711853934E+03  0.00000000000E+00 0. -1.
         22    1    3    3    0    0  0.96278114740E+02 -0.33930799641E+02  0.39561332041E+03  0.40857150393E+03  0.00000000000E+00 0. -1.
         22    1    3    3    0    0  0.18069257716E+03 -0.54075754493E+02  0.28209734032E+03  0.33934186903E+03  0.00000000000E+00 0. -1.
</event>
<event>
 7    1  0.5213103E-005  0.3439029E+03  0.7818608E-02  0.1128265E+00
          2   -1    0    0  502    0  0.00000000000E+00  0.00000000000E+00  0.39902657964E+03  0.39902657964E+03  0.00000000000E+00 0. -1.
          1   -1    0    0  501    0 -0.00000000000E+00 -0.00000000000E+00 -0.14472816310E+04  0.14472816310E+04  0.00000000000E+00 0. -1.
         25    2    1    2    0    0 -0.34163615964E+03 -0.28101514181E+03 -0.28586179043E+03  0.54131937004E+03  0.12499968660E+03 0.  0.
          2    1    1    2  501    0  0.29549991863E+03  0.13747768447E+03 -0.98421812850E+03  0.10367765623E+04  0.00000000000E+00 0. -1.
          1    1    1    2  502    0  0.46136241007E+02  0.14353745734E+03  0.22182486754E+03  0.26821227834E+03  0.00000000000E+00 0. -1.
         22    1    3    3    0    0 -0.72933788673E+02 -0.13240893327E+03 -0.11488404674E+03  0.18986786810E+03  0.00000000000E+00 0. -1.
         22    1    3    3    0    0 -0.26870237097E+03 -0.14860620854E+03 -0.17097774369E+03  0.35145150194E+03  0.00000000000E+00 0. -1.
</event>
<event>
 7    1  0.5213103E-005  0.2410696E+03  0.7818608E-02  0.1177826E+00
          2   -1    0    0  502    0  0.00000000000E+00  0.00000000000E+00  0.88794357458E+03  0.88794357458E+03  0.00000000000E+00 0. -1.
          1   -1    0    0  501    0 -0.00000000000E+00 -0.00000000000E+00 -0.16116253516E+03  0.16116253516E+03  0.00000000000E+00 0. -1.
         25    2    1    2    0    0  0.25274553565E+03 -0.69342597091E+02  0.23102857217E+03  0.37106308663E+03  0.12499964615E+03 0.  0.
          2    1    1    2  501    0 -0.17636011893E+03  0.16177721665E+03  0.91227322930E+02  0.25611947178E+03  0.00000000000E+00 0. -1.
          1    1    1    2  502    0 -0.76385416727E+02 -0.92434619555E+02  0.40452514432E+03  0.42192355133E+03  0.00000000000E+00 0. -1.
         22    1    3    3    0    0  0.22219640776E+02  0.29891469382E+02  0.15877048936E+02  0.40488184214E+02  0.00000000000E+00 0.  1.
         22    1    3    3    0    0  0.23052589488E+03 -0.99234066474E+02  0.21515152323E+03  0.33057490241E+03  0.00000000000E+00 0.  1.
</event>
<event>
 7    1  0.5213103E-005  0.2984221E+03  0.7818608E-02  0.1154588E+00
          2   -1    0    0  502    0  0.00000000000E+00  0.00000000000E+00  0.16645095189E+04  0.16645095189E+04  0.00000000000E+00 0. -1.
          1   -1    0    0  501    0 -0.00000000000E+00 -0.00000000000E+00 -0.49775763080E+03  0.49775763080E+03  0.00000000000E+00 0. -1.
         25    2    1    2    0    0 -0.14152186664E+03 -0.26590256960E+03  0.92234752234E+01  0.32625536240E+03  0.12499949497E+03 0.  0.
          2    1    1    2  501    0  0.24074625649E+03  0.18730351763E+03 -0.26729822548E+03  0.40557330912E+03  0.00000000000E+00 0. -1.
          1    1    1    2  502    0 -0.99224389849E+02  0.78599051966E+02  0.14248266383E+04  0.14304384782E+04  0.00000000000E+00 0. -1.
         22    1    3    3    0    0  0.29279546694E+01 -0.10942435581E+03 -0.20081628034E+02  0.11129031560E+03  0.00000000000E+00 0.  1.
         22    1    3    3    0    0 -0.14444982131E+03 -0.15647821379E+03  0.29305103258E+02  0.21496504679E+03  0.00000000000E+00 0.  1.
</event>
<event>
 7    1  0.5213103E-005  0.4404793E+03  0.7818608E-02  0.1232663E+00
          2   -1    0    0  502    0  0.00000000000E+00  0.00000000000E+00  0.25659848514E+04  0.25659848514E+04  0.00000000000E+00 0. -1.
          1   -1    0    0  501    0 -0.00000000000E+00 -0.00000000000E+00 -0.18864115303E+03  0.18864115303E+03  0.00000000000E+00 0. -1.
         25    2    1    2    0    0 -0.11207133776E+02  0.43701607775E+03  0.83968021211E+03  0.95488016979E+03  0.12499851198E+03 0.  0.
          2    1    1    2  501    0  0.47464058633E+02 -0.43974101415E+03  0.24315533095E+03  0.50472716527E+03  0.00000000000E+00 0. -1.
          1    1    1    2  502    0 -0.36256924857E+02  0.27249364020E+01  0.12945081553E+04  0.12950186694E+04  0.00000000000E+00 0. -1.
         22    1    3    3    0    0  0.28711039754E+02  0.20187605695E+03  0.49859348825E+03  0.53867776332E+03  0.00000000000E+00 0.  1.
         22    1    3    3    0    0 -0.39918173530E+02  0.23514002080E+03  0.34108672386E+03  0.41620240647E+03  0.00000000000E+00 0.  1.
</event>
<event>
 7    1  0.5213103E-005  0.3216939E+03  0.7818608E-02  0.1228561E+00
          2   -1    0    0  502    0  0.00000000000E+00  0.00000000000E+00  0.11303734481E+04  0.11303734481E+04  0.00000000000E+00 0. -1.
          1   -1    0    0  501    0 -0.00000000000E+00 -0.00000000000E+00 -0.56638668757E+03  0.56638668757E+03  0.00000000000E+00 0. -1.
         25    2    1    2    0    0  0.29123612397E+03 -0.17985519106E+03 -0.24669857678E+03  0.44005805654E+03  0.12499814273E+03 0.  0.
          2    1    1    2  501    0 -0.27006523237E+03  0.13242981525E+03 -0.12053142870E+03  0.32403813203E+03  0.00000000000E+00 0. -1.
          1    1    1    2  502    0 -0.21170891595E+02  0.47425375811E+02  0.93121676603E+03  0.93266394712E+03  0.00000000000E+00 0. -1.
         22    1    3    3    0    0  0.11326460238E+03 -0.27407911051E+01 -0.74437942406E+02  0.13556323011E+03  0.00000000000E+00 0.  1.
         22    1    3    3    0    0  0.17797152158E+03 -0.17711439996E+03 -0.17226063437E+03  0.30449482643E+03  0.00000000000E+00 0.  1.
</event>
<event>
 7    1  0.5213103E-005  0.4930077E+03  0.7818608E-02  0.1112025E+00
          2   -1    0    0  502    0  0.00000000000E+00  0.00000000000E+00  0.25842282084E+04  0.25842282084E+04  0.00000000000E+00 0. -1.
          1   -1    0    0  501    0 -0.00000000000E+00 -0.00000000000E+00 -0.68296034904E+03  0.68296034904E+03  0.00000000000E+00 0. -1.
         25    2    1    2    0    0 -0.53513516466E+03 -0.25582127603E+03  0.18735409315E+03  0.63445740218E+03  0.12498187562E+03 0.  0.
          2    1    1    2  501    0  0.41868376849E+03  0.20068372951E+03 -0.33956330447E+03  0.57521586820E+03  0.00000000000E+00 0. -1.
          1    1    1    2  502    0  0.11645139617E+03  0.55137546524E+02  0.20534770707E+04  0.20575152871E+04  0.00000000000E+00 0. -1.
         22    1    3    3    0    0 -0.16096641473E+03 -0.14044335434E+03  0.48919009143E+02  0.21915198357E+03  0.00000000000E+00 0. -1.
         22    1    3    3    0    0 -0.37416874994E+03 -0.11537792170E+03  0.13843508400E+03  0.41530541861E+03  0.00000000000E+00 0. -1.
</event>
<event>
 7    1  0.5213103E-005  0.1014412E+04  0.7818608E-02  0.1165373E+00
          2   -1    0    0  502    0  0.00000000000E+00  0.00000000000E+00  0.23109323788E+04  0.23109323788E+04  0.00000000000E+00 0. -1.
          1   -1    0    0  501    0 -0.00000000000E+00 -0.00000000000E+00 -0.12423186325E+04  0.12423186325E+04  0.00000000000E+00 0. -1.
         25    2    1    2    0    0 -0.78845999278E+03  0.62355927304E+03  0.22286575674E+03  0.10372021619E+04  0.12499540784E+03 0.  0.
          2    1    1    2  501    0  0.78038098476E+03 -0.65539524613E+03 -0.52399692166E+03  0.11459101989E+04  0.00000000000E+00 0. -1.
          1    1    1    2  502    0  0.80790080114E+01  0.31835973088E+02  0.13697449113E+04  0.13701386505E+04  0.00000000000E+00 0. -1.
         22    1    3    3    0    0 -0.21462971195E+03  0.12010244656E+03  0.16921230195E+02  0.24652959043E+03  0.00000000000E+00 0. -1.
         22    1    3    3    0    0 -0.57383028082E+03  0.50345682648E+03  0.20594452654E+03  0.79067257150E+03  0.00000000000E+00 0. -1.
</event>
<event>
 7    1  0.5213103E-005  0.3467966E+03  0.7818608E-02  0.1183390E+00
          2   -1    0    0  502    0  0.00000000000E+00  0.00000000000E+00  0.26214262012E+04  0.26214262012E+04  0.00000000000E+00 0. -1.
          1   -1    0    0  501    0 -0.00000000000E+00 -0.00000000000E+00 -0.67410022214E+03  0.67410022214E+03  0.00000000000E+00 0. -1.
         25    2    1    2    0    0  0.15263951723E+03 -0.24232971095E+03  0.41257097666E+03  0.51756304476E+03  0.12503672857E+03 0.  0.
          2    1    1    2  501    0  0.37020066216E+02 -0.69002983983E+02 -0.60364940389E+03  0.60870723662E+03  0.00000000000E+00 0. -1.
          1    1    1    2  502    0 -0.18965958345E+03  0.31133269493E+03  0.21384044063E+04  0.21692561419E+04  0.00000000000E+00 0. -1.
         22    1    3    3    0    0  0.98732472399E+02 -0.22381004102E+03  0.37995855337E+03  0.45189328148E+03  0.00000000000E+00 0. -1.
         22    1    3    3    0    0  0.53907044830E+02 -0.18519669932E+02  0.32612423291E+02  0.65669763282E+02  0.00000000000E+00 0. -1.
</event>
<event>
 7    1  0.5213103E-005  0.3710556E+03  0.7818608E-02  0.1144098E+00
          2   -1    0    0  502    0  0.00000000000E+00  0.00000000000E+00  0.91738213311E+03  0.91738213311E+03  0.00000000000E+00 0. -1.
          1   -1    0    0  501    0 -0.00000000000E+00 -0.00000000000E+00 -0.18968579139E+04  0.18968579139E+04  0.00000000000E+00 0. -1.
         25    2    1    2    0    0 -0.27278568980E+03  0.38067381094E+03 -0.84584342305E+02  0.49203996866E+03  0.12499694756E+03 0.  0.
          2    1    1    2  501    0  0.84657775291E+02 -0.78267197493E+02 -0.15618543145E+04  0.15661039534E+04  0.00000000000E+00 0. -1.
          1    1    1    2  502    0  0.18812791451E+03 -0.30240661345E+03  0.66696287605E+03  0.75609612492E+03  0.00000000000E+00 0. -1.
         22    1    3    3    0    0 -0.13875922443E+03  0.27632760531E+03 -0.90176690224E+02  0.32209145174E+03  0.00000000000E+00 0.  1.
         22    1    3    3    0    0 -0.13402646537E+03  0.10434620563E+03  0.55923479184E+01  0.16994851693E+03  0.00000000000E+00 0.  1.
</event>
<event>
 7    1  0.5213103E-005  0.4350015E+03  0.7818608E-02  0.1156334E+00
          2   -1    0    0  502    0  0.00000000000E+00  0.00000000000E+00  0.26257224956E+03  0.26257224956E+03  0.00000000000E+00 0. -1.
          1   -1    0    0  501    0 -0.00000000000E+00 -0.00000000000E+00 -0.40414246819E+04  0.40414246819E+04  0.00000000000E+00 0. -1.
         25    2    1    2    0    0  0.12031417368E+03 -0.40118760096E+03 -0.20499741491E+04  0.20960548209E+04  0.12499923475E+03 0.  0.
          2    1    1    2  501    0 -0.53686160820E+02  0.45409324260E+03 -0.19332390584E+04  0.19865790027E+04  0.00000000000E+00 0. -1.
          1    1    1    2  502    0 -0.66628012864E+02 -0.52905641641E+02  0.20436077528E+03  0.22136310779E+03  0.00000000000E+00 0. -1.
         22    1    3    3    0    0  0.27132849709E+02 -0.13614785848E+03 -0.42865235966E+03  0.45057216552E+03  0.00000000000E+00 0. -1.
         22    1    3    3    0    0  0.93181323975E+02 -0.26503974247E+03 -0.16213217895E+04  0.16454826554E+04  0.00000000000E+00 0. -1.
</event>
<event>
 7    1  0.5213103E-005  0.2124036E+03  0.7818608E-02  0.1197387E+00
          2   -1    0    0  502    0  0.00000000000E+00  0.00000000000E+00  0.14290644620E+04  0.14290644620E+04  0.00000000000E+00 0. -1.
          1   -1    0    0  501    0 -0.00000000000E+00 -0.00000000000E+00 -0.43772208305E+03  0.43772208305E+03  0.00000000000E+00 0. -1.
         25    2    1    2    0    0 -0.23970172385E+03 -0.74594146290E+02  0.52948955875E+03  0.59917085154E+03  0.12500125371E+03 0.  0.
          2    1    1    2  501    0  0.88909255432E+02 -0.63997704875E+02 -0.38296595362E+03  0.39832585098E+03  0.00000000000E+00 0. -1.
          1    1    1    2  502    0  0.15079246842E+03  0.13859185116E+03  0.84481877381E+03  0.86928984253E+03  0.00000000000E+00 0. -1.
         22    1    3    3    0    0 -0.20682770150E+02 -0.20965534852E+02  0.72490637108E+01  0.30329516274E+02  0.00000000000E+00 0.  1.
         22    1    3    3    0    0 -0.21901895370E+03 -0.53628611437E+02  0.52224049504E+03  0.56884133526E+03  0.00000000000E+00 0.  1.
</event>
<event>
 7    1  0.5213103E-005  0.6600011E+03  0.7818608E-02  0.1107138E+00
          2   -1    0    0  502    0  0.00000000000E+00  0.00000000000E+00  0.22784347346E+04  0.22784347346E+04  0.00000000000E+00 0. -1.
          1   -1    0    0  501    0 -0.00000000000E+00 -0.00000000000E+00 -0.13166305062E+04  0.13166305062E+04  0.00000000000E+00 0. -1.
         25    2    1    2    0    0 -0.61679192829E+03 -0.10547809382E+03  0.11459210696E+04  0.13116085732E+04  0.12499616220E+03 0.  0.
          2    1    1    2  501    0 -0.71812974199E+02 -0.73041905369E+02 -0.11106337171E+04  0.11153472449E+04  0.00000000000E+00 0. -1.
          1    1    1    2  502    0  0.68860490249E+03  0.17851999919E+03  0.92651687597E+03  0.11681094227E+04  0.00000000000E+00 0. -1.
         22    1    3    3    0    0 -0.40213677697E+03 -0.10041031675E+03  0.64610874646E+03  0.76762799022E+03  0.00000000000E+00 0. -1.
         22    1    3    3    0    0 -0.21465515131E+03 -0.50677770707E+01  0.49981232312E+03  0.54398058301E+03  0.00000000000E+00 0. -1.
</event>
<event>
 7    1  0.5213103E-005  0.1207292E+03  0.7818608E-02  0.1249436E+00
          2   -1    0    0  502    0  0.00000000000E+00  0.00000000000E+00  0.22054760456E+04  0.22054760456E+04  0.00000000000E+00 0. -1.
          1   -1    0    0  501    0 -0.00000000000E+00 -0.00000000000E+00 -0.66007521472E+03  0.66007521472E+03  0.00000000000E+00 0. -1.
         25    2    1    2    0    0 -0.18445201516E+03  0.12461450506E+03  0.21072568689E+04  0.21226653415E+04  0.12500127920E+03 0.  0.
          2    1    1    2  501    0  0.11458568925E+03 -0.37188237457E+02 -0.60947186313E+03  0.62126387078E+03  0.00000000000E+00 0. -1.
          1    1    1    2  502    0  0.69866325903E+02 -0.87426267607E+02  0.47615825103E+02  0.12162204801E+03  0.00000000000E+00 0. -1.
         22    1    3    3    0    0 -0.11664241826E+03  0.53111888397E+01  0.10764840568E+04  0.10827980361E+04  0.00000000000E+00 0.  1.
         22    1    3    3    0    0 -0.67809596897E+02  0.11930331622E+03  0.10307728121E+04  0.10398673054E+04  0.00000000000E+00 0.  1.
</event>
<event>
 7    1  0.5213103E-005  0.9993462E+03  0.7818608E-02  0.9641363E-01
          2   -1    0    0  502    0  0.00000000000E+00  0.00000000000E+00  0.28149153726E+04  0.28149153726E+04  0.00000000000E+00 0. -1.
          1   -1    0    0  501    0 -0.00000000000E+00 -0.00000000000E+00 -0.14773584489E+04  0.14773584489E+04  0.00000000000E+00 0. -1.
         25    2    1    2    0    0 -0.12231311105E+04 -0.46512378946E+03 -0.18499865990E+03  0.13274938332E+04  0.12500208004E+03 0.  0.
          2    1    1    2  501    0  0.86777694261E+03  0.36011195987E+02 -0.40500646456E+03  0.95831303065E+03  0.00000000000E+00 0. -1.
          1    1    1    2  502    0  0.35535416789E+03  0.42911259347E+03  0.19275620482E+04  0.20064669577E+04  0.00000000000E+00 0. -1.
         22    1    3    3    0    0 -0.36804731231E+03 -0.17178686849E+03 -0.10766918022E+03  0.42019305641E+03  0.00000000000E+00 0. -1.
         22    1    3    3    0    0 -0.85508379820E+03 -0.29333692097E+03 -0.77329479680E+02  0.90730077680E+03  0.00000000000E+00 0. -1.
</event>
<event>
 7    1  0.5213103E-005  0.6760982E+03  0.7818608E-02  0.1205020E+00
          2   -1    0    0  502    0  0.00000000000E+00  0.00000000000E+00  0.25548413441E+04  0.25548413441E+04  0.00000000000E+00 0. -1.
          1   -1    0    0  501    0 -0.00000000000E+00 -0.00000000000E+00 -0.99061602712E+03  0.99061602712E+03  0.00000000000E+00 0. -1.
         25    2    1    2    0    0  0.64686141194E+03  0.18666265293E+03  0.60702610315E+03  0.91508414385E+03  0.12500267261E+03 0.  0.
          2    1    1    2  501    0 -0.53620960611E+01  0.31226100940E+02 -0.77228020478E+03  0.77292983908E+03  0.00000000000E+00 0. -1.
          1    1    1    2  502    0 -0.64149931588E+03 -0.21788875387E+03  0.17294794186E+04  0.18574433883E+04  0.00000000000E+00 0. -1.
         22    1    3    3    0    0  0.46352307847E+03  0.11128852966E+03  0.35456630266E+03  0.59410103862E+03  0.00000000000E+00 0.  1.
         22    1    3    3    0    0  0.18333833347E+03  0.75374123269E+02  0.25245980048E+03  0.32098310522E+03  0.00000000000E+00 0.  1.
</event>
<event>
 7    1  0.5213103E-005  0.7054090E+03  0.7818608E-02  0.1218939E+00
          2   -1    0    0  502    0  0.00000000000E+00  0.00000000000E+00  0.49661274574E+03  0.49661274574E+03  0.00000000000E+00 0. -1.
          1   -1    0    0  501    0 -0.00000000000E+00 -0.00000000000E+00 -0.18094239129E+04  0.18094239129E+04  0.00000000000E+00 0. -1.
         25    2    1    2    0    0 -0.59083435642E+03 -0.37703540293E+03 -0.76407691616E+03  0.10443560704E+04  0.12500054509E+03 0.  0.
          2    1    1    2  501    0  0.87046271061E+01 -0.24696976182E+02 -0.55375061316E+03  0.55436941902E+03  0.00000000000E+00 0. -1.
          1    1    1    2  502    0  0.58212972931E+03  0.40173237911E+03  0.50163621400E+01  0.70731116919E+03  0.00000000000E+00 0. -1.
         22    1    3    3    0    0 -0.11272618753E+03 -0.13079095500E+03 -0.15758317975E+03  0.23376468041E+03  0.00000000000E+00 0.  1.
         22    1    3    3    0    0 -0.47810816889E+03 -0.24624444793E+03 -0.60649373641E+03  0.81059139003E+03  0.00000000000E+00 0.  1.
</event>
<event>
 7    1  0.5213103E-005  0.5190237E+03  0.7818608E-02  0.1173609E+00
          2   -1    0    0  502    0  0.00000000000E+00  0.00000000000E+00  0.30598351412E+03  0.30598351412E+03  0.00000000000E+00 0. -1.
          1   -1    0    0  501    0 -0.00000000000E+00 -0.00000000000E+00 -0.24623545003E+04  0.24623545003E+04  0.00000000000E+00 0. -1.
         25    2    1    2    0    0 -0.42232539645E+03  0.32609775042E+03 -0.90917059026E+03  0.10615621607E+04  0.12499830243E+03 0.  0.
          2    1    1    2  501    0  0.43508957539E+03 -0.26909010835E+03 -0.14279481500E+04  0.15168217905E+04  0.00000000000E+00 0. -1.
          1    1    1    2  502    0 -0.12764178944E+02 -0.57007642067E+02  0.18074775407E+03  0.18995406319E+03  0.00000000000E+00 0. -1.
         22    1    3    3    0    0 -0.21928374117E+03  0.24526595884E+03 -0.52442658148E+03  0.61908318429E+03  0.00000000000E+00 0. -1.
         22    1    3    3    0    0 -0.20304165528E+03  0.80831791574E+02 -0.38474400878E+03  0.44247897645E+03  0.00000000000E+00 0. -1.
</event>
<event>
 7    1  0.5213103E-005  0.5779537E+03  0.7818608E-02  0.1088432E+00
          2   -1    0    0  502    0  0.00000000000E+00  0.00000000000E+00  0.41480347584E+04  0.41480347584E+04  0.00000000000E+00 0. -1.
          1   -1    0    0  501    0 -0.00000000000E+00 -0.00000000000E+00 -0.20232401547E+04  0.20232401547E+04  0.00000000000E+00 0. -1.
         25    2    1    2    0    0 -0.40244405218E+03  0.49965838928E+03  0.26374683959E+04  0.27172568007E+04  0.12500104124E+03 0.  0.
          2    1    1    2  501    0  0.36833931367E+02 -0.14463572809E+03 -0.19362391098E+04  0.19419830388E+04  0.00000000000E+00 0. -1.
          1    1    1    2  502    0  0.36561012082E+03 -0.35502266119E+03  0.14235653177E+04  0.15120350737E+04  0.00000000000E+00 0. -1.
         22    1    3    3    0    0 -0.36030001611E+03  0.38246188083E+03  0.22362958927E+04  0.22971966637E+04  0.00000000000E+00 0.  1.
         22    1    3    3    0    0 -0.42144036070E+02  0.11719650845E+03  0.40117250320E+03  0.42006013699E+03  0.00000000000E+00 0.  1.
</event>
<event>
 7    1  0.5213103E-005  0.6669370E+03  0.7818608E-02  0.1154823E+00
          2   -1    0    0  502    0  0.00000000000E+00  0.00000000000E+00  0.44108595237E+04  0.44108595237E+04  0.00000000000E+00 0. -1.
          1   -1    0    0  501    0 -0.00000000000E+00 -0.00000000000E+00 -0.12966801775E+04  0.12966801775E+04  0.00000000000E+00 0. -1.
         25    2    1    2    0    0 -0.61528457196E+03  0.36529244615E+03 -0.11652691621E+03  0.73567472930E+03  0.12500043770E+03 0.  0.
          2    1    1    2  501    0  0.33499721423E+02 -0.45477075070E+02 -0.84276089919E+03  0.84465160208E+03  0.00000000000E+00 0. -1.
          1    1    1    2  502    0  0.58178485053E+03 -0.31981537108E+03  0.40734671615E+04  0.41272133698E+04  0.00000000000E+00 0. -1.
         22    1    3    3    0    0 -0.60972984378E+03  0.33696201214E+03 -0.11885576733E+03  0.70671109617E+03  0.00000000000E+00 0. -1.
         22    1    3    3    0    0 -0.55547281806E+01  0.28330434018E+02  0.23288511250E+01  0.28963633135E+02  0.00000000000E+00 0. -1.
</event>
<event>
 7    1  0.5213103E-005  0.6832411E+03  0.7818608E-02  0.1109427E+00
          2   -1    0    0  502    0  0.00000000000E+00  0.00000000000E+00  0.22179401452E+04  0.22179401452E+04  0.00000000000E+00 0. -1.
          1   -1    0    0  501    0 -0.00000000000E+00 -0.00000000000E+00 -0.20608292485E+04  0.20608292485E+04  0.00000000000E+00 0. -1.
         25    2    1    2    0    0  0.68230793273E+03 -0.36824711369E+03 -0.11589015565E+04  0.13999384619E+04  0.12499931061E+03 0.  0.
          2    1    1    2  501    0 -0.85662761658E+02  0.43545918782E+02 -0.72314928909E+03  0.72950616865E+03  0.00000000000E+00 0. -1.
          1    1    1    2  502    0 -0.59664517107E+03  0.32470119491E+03  0.20391617423E+04  0.21493247631E+04  0.00000000000E+00 0. -1.
         22    1    3    3    0    0  0.18284795660E+03 -0.71826680816E+02 -0.21133361463E+03  0.28853828859E+03  0.00000000000E+00 0. -1.
         22    1    3    3    0    0  0.49945997613E+03 -0.29642043287E+03 -0.94756794191E+03  0.11114001733E+04  0.00000000000E+00 0. -1.
</event>
<event>
 7    1  0.5213103E-005  0.2352345E+03  0.7818608E-02  0.1188159E+00
          2   -1    0    0  502    0  0.00000000000E+00  0.00000000000E+00  0.54327000321E+03  0.54327000321E+03  0.00000000000E+00 0. -1.
          1   -1    0    0  501    0 -0.00000000000E+00 -0.00000000000E+00 -0.13623343646E+04  0.13623343646E+04  0.00000000000E+00 0. -1.
         25    2    1    2    0    0 -0.28998879811E+03 -0.15328175515E+03 -0.11722940666E+02  0.35121316276E+03  0.12499783544E+03 0.  0.
          2    1    1    2  501    0  0.21828012078E+03  0.70557474652E+02 -0.11613763765E+04  0.11838157189E+04  0.00000000000E+00 0. -1.
          1    1    1    2  502    0  0.71708677324E+02  0.82724280501E+02  0.35403495582E+03  0.37057548614E+03  0.00000000000E+00 0. -1.
         22    1    3    3    0    0 -0.68320394710E+02  0.10893955331E+02 -0.28577948805E+02  0.74853548706E+02  0.00000000000E+00 0.  1.
         22    1    3    3    0    0 -0.22166840340E+03 -0.16417571048E+03  0.16855008138E+02  0.27635961405E+03  0.00000000000E+00 0.  1.
</event>
<event>
 7    1  0.5213103E-005  0.1371721E+04  0.7818608E-02  0.1099290E+00
          2   -1    0    0  502    0  0.00000000000E+00  0.00000000000E+00  0.19476166553E+04  0.19476166553E+04  0.00000000000E+00 0. -1.
          1   -1    0    0  501    0 -0.00000000000E+00 -0.00000000000E+00 -0.27814330702E+04  0.27814330702E+04  0.00000000000E+00 0. -1.
         25    2    1    2    0    0  0.13482465982E+04 -0.36153635889E+03  0.56512336032E+03  0.15111144308E+04  0.12499992931E+03 0.  0.
          2    1    1    2  501    0 -0.53820510222E+02 -0.87920418129E+01 -0.18095370475E+04  0.18103586036E+04  0.00000000000E+00 0. -1.
          1    1    1    2  502    0 -0.12944260880E+04  0.37032840070E+03  0.41059727222E+03  0.14075766912E+04  0.00000000000E+00 0. -1.
         22    1    3    3    0    0  0.87159418888E+03 -0.17908503254E+03  0.39011725515E+03  0.97156541299E+03  0.00000000000E+00 0.  1.
         22    1    3    3    0    0  0.47665240932E+03 -0.18245132635E+03  0.17500610517E+03  0.53954901783E+03  0.00000000000E+00 0.  1.
</event>
<event>
 7    1  0.5213103E-005  0.1534304E+04  0.7818608E-02  0.1002098E+00
          2   -1    0    0  502    0  0.00000000000E+00  0.00000000000E+00  0.27849483651E+04  0.27849483651E+04  0.00000000000E+00 0. -1.
          1   -1    0    0  501    0 -0.00000000000E+00 -0.00000000000E+00 -0.31564057301E+04  0.31564057301E+04  0.00000000000E+00 0. -1.
         25    2    1    2    0    0 -0.72716353600E+03 -0.13771099633E+04  0.22370285602E+04  0.27285750358E+04  0.12500515204E+03 0.  0.
          2    1    1    2  501    0  0.15774282088E+03  0.11514454836E+03 -0.12772877078E+04  0.12921319410E+04  0.00000000000E+00 0. -1.
          1    1    1    2  502    0  0.56942071513E+03  0.12619654149E+04 -0.13311982174E+04  0.19206471184E+04  0.00000000000E+00 0. -1.
         22    1    3    3    0    0 -0.69740903926E+03 -0.13433907609E+04  0.21995373664E+04  0.26700267285E+04  0.00000000000E+00 0.  1.
         22    1    3    3    0    0 -0.29754496741E+02 -0.33719202349E+02  0.37491193812E+02  0.58548307378E+02  0.00000000000E+00 0.  1.
</event>
<event>
 7    1  0.5213103E-005  0.1129597E+03  0.7818608E-02  0.1296334E+00
          2   -1    0    0  502    0  0.00000000000E+00  0.00000000000E+00  0.16128415024E+04  0.16128415024E+04  0.00000000000E+00 0. -1.
          1   -1    0    0  501    0 -0.00000000000E+00 -0.00000000000E+00 -0.64834868342E+02  0.64834868342E+02  0.00000000000E+00 0. -1.
         25    2    1    2    0    0 -0.11542602517E+03  0.51162978987E+02  0.16965598594E+03  0.24565538934E+03  0.12499039581E+03 0.  0.
          2    1    1    2  501    0  0.45844588634E+01 -0.76011834078E+02  0.34882611806E+02  0.83759254947E+02  0.00000000000E+00 0. -1.
          1    1    1    2  502    0  0.11084156630E+03  0.24848855090E+02  0.13434680363E+04  0.13482617265E+04  0.00000000000E+00 0. -1.
         22    1    3    3    0    0 -0.21981399644E+01  0.41285321994E+02  0.10953105631E+03  0.11707417276E+03  0.00000000000E+00 0. -1.
         22    1    3    3    0    0 -0.11322788520E+03  0.98776569935E+01  0.60124929630E+02  0.12858121658E+03  0.00000000000E+00 0. -1.
</event>
<event>
 7    1  0.5213103E-005  0.3160056E+03  0.7818608E-02  0.1207510E+00
          2   -1    0    0  502    0  0.00000000000E+00  0.00000000000E+00  0.51359395168E+03  0.51359395168E+03  0.00000000000E+00 0. -1.
          1   -1    0    0  501    0 -0.00000000000E+00 -0.00000000000E+00 -0.75353745140E+03  0.75353745140E+03  0.00000000000E+00 0. -1.
         25    2    1    2    0    0 -0.22881803493E+03 -0.24561155611E+03 -0.50482588543E+03  0.61899616124E+03  0.12499737367E+03 0.  0.
          2    1    1    2  501    0  0.21528312083E+03  0.18101755451E+03 -0.83619877757E+02  0.29343902452E+03  0.00000000000E+00 0. -1.
          1    1    1    2  502    0  0.13534914097E+02  0.64594001599E+02  0.34850226347E+03  0.35469621732E+03  0.00000000000E+00 0. -1.
         22    1    3    3    0    0 -0.13052099281E+03 -0.63554477006E+02 -0.26581603810E+03  0.30287467247E+03  0.00000000000E+00 0. -1.
         22    1    3    3    0    0 -0.98297042111E+02 -0.18205707910E+03 -0.23900984733E+03  0.31612148877E+03  0.00000000000E+00 0. -1.
</event>
<event>
 7    1  0.5213103E-005  0.9323416E+03  0.7818608E-02  0.1178607E+00
          2   -1    0    0  502    0  0.00000000000E+00  0.00000000000E+00  0.96877891020E+03  0.96877891020E+03  0.00000000000E+00 0. -1.
          1   -1    0    0  501    0 -0.00000000000E+00 -0.00000000000E+00 -0.16050144758E+04  0.16050144758E+04  0.00000000000E+00 0. -1.
         25    2    1    2    0    0  0.57562870762E+03 -0.74832036175E+03  0.14960772721E+03  0.96402234862E+03  0.12499937499E+03 0.  0.
          2    1    1    2  501    0 -0.28426199217E+02  0.11681932155E+02 -0.68602839902E+03  0.68671644847E+03  0.00000000000E+00 0. -1.
          1    1    1    2  502    0 -0.54720250840E+03  0.73663842960E+03 -0.99814893838E+02  0.92305458896E+03  0.00000000000E+00 0. -1.
         22    1    3    3    0    0  0.22284588574E+03 -0.22947533259E+03  0.97686905048E+02  0.33445769311E+03  0.00000000000E+00 0. -1.
         22    1    3    3    0    0  0.35278282188E+03 -0.51884502916E+03  0.51920822160E+02  0.62956465551E+03  0.00000000000E+00 0. -1.
</event>
<event>
 7    1  0.5213103E-005  0.5077648E+03  0.7818608E-02  0.1177262E+00
          2   -1    0    0  502    0  0.00000000000E+00  0.00000000000E+00  0.15881794380E+04  0.15881794380E+04  0.00000000000E+00 0. -1.
          1   -1    0    0  501    0 -0.00000000000E+00 -0.00000000000E+00 -0.53485695551E+03  0.53485695551E+03  0.00000000000E+00 0. -1.
         25    2    1    2    0    0  0.25507453971E+03  0.48356051470E+03 -0.67399328457E+02  0.56485549214E+03  0.12500106136E+03 0.  0.
          2    1    1    2  501    0 -0.51827394383E+02 -0.24422950940E+02 -0.16671994326E+03  0.17628981485E+03  0.00000000000E+00 0. -1.
          1    1    1    2  502    0 -0.20324714532E+03 -0.45913756376E+03  0.12874417543E+04  0.13818910866E+04  0.00000000000E+00 0. -1.
         22    1    3    3    0    0  0.10817068338E+03  0.16833793450E+03  0.33183756513E+02  0.20282928445E+03  0.00000000000E+00 0.  1.
         22    1    3    3    0    0  0.14690385633E+03  0.31522258020E+03 -0.10058308497E+03  0.36202620769E+03  0.00000000000E+00 0.  1.
</event>
<event>
 7    1  0.5213103E-005  0.8410196E+02  0.7818608E-02  0.1498134E+00
          2   -1    0    0  502    0  0.00000000000E+00  0.00000000000E+00  0.17872566742E+04  0.17872566742E+04  0.00000000000E+00 0. -1.
          1   -1    0    0  501    0 -0.00000000000E+00 -0.00000000000E+00 -0.97674340031E+03  0.97674340031E+03  0.00000000000E+00 0. -1.
         25    2    1    2    0    0 -0.18981432983E+02  0.66778473505E+02  0.88891107657E+03  0.90033701666E+03  0.12499672875E+03 0.  0.
          2    1    1    2  501    0  0.37487229013E+02 -0.75321194458E+02 -0.96909118124E+03  0.97273649681E+03  0.00000000000E+00 0. -1.
          1    1    1    2  502    0 -0.18505796031E+02  0.85427209523E+01  0.89069337853E+03  0.89092656102E+03  0.00000000000E+00 0. -1.
         22    1    3    3    0    0  0.51955974305E+02  0.13553724882E+02  0.29612291499E+03  0.30095166972E+03  0.00000000000E+00 0.  1.
         22    1    3    3    0    0 -0.70937407288E+02  0.53224748623E+02  0.59278816158E+03  0.59938534694E+03  0.00000000000E+00 0.  1.
</event>
<event>
 7    1  0.5213103E-005  0.3137758E+03  0.7818608E-02  0.1130606E+00
          2   -1    0    0  502    0  0.00000000000E+00  0.00000000000E+00  0.16575892795E+04  0.16575892795E+04  0.00000000000E+00 0. -1.
          1   -1    0    0  501    0 -0.00000000000E+00 -0.00000000000E+00 -0.21479682910E+03  0.21479682910E+03  0.00000000000E+00 0. -1.
         25    2    1    2    0    0  0.35736125264E+03  0.58405959455E+02  0.52161429383E+03  0.64716690667E+03  0.12500085028E+03 0.  0.
          2    1    1    2  501    0 -0.10816263739E+03  0.11865688313E+03 -0.79304902358E+02  0.17907506689E+03  0.00000000000E+00 0. -1.
          1    1    1    2  502    0 -0.24919861525E+03 -0.17706284259E+03  0.10004830589E+04  0.10461441350E+04  0.00000000000E+00 0. -1.
         22    1    3    3    0    0  0.12742972724E+03  0.21595493887E+02  0.29577034888E+03  0.32277670303E+03  0.00000000000E+00 0. -1.
         22    1    3    3    0    0  0.22993152540E+03  0.36810465569E+02  0.22584394496E+03  0.32439020365E+03  0.00000000000E+00 0. -1.
</event>
<event>
 7    1  0.5213103E-005  0.1648469E+04  0.7818608E-02  0.1130339E+00
          2   -1    0    0  502    0  0.00000000000E+00  0.00000000000E+00  0.35222709577E+04  0.35222709577E+04  0.00000000000E+00 0. -1.
          1   -1    0    0  501    0 -0.00000000000E+00 -0.00000000000E+00 -0.27321178270E+04  0.27321178270E+04  0.00000000000E+00 0. -1.
         25    2    1    2    0    0 -0.16337274000E+04 -0.10497007355E+03  0.11591822099E+04  0.20098286397E+04  0.12499532576E+03 0.  0.
          2    1    1    2  501    0 -0.19282986270E+02 -0.23838885558E+02 -0.19519865777E+04  0.19522273754E+04  0.00000000000E+00 0. -1.
          1    1    1    2  502    0  0.16530103862E+04  0.12880895910E+03  0.15829574984E+04  0.22923327696E+04  0.00000000000E+00 0. -1.
         22    1    3    3    0    0 -0.11576520854E+04 -0.10839041064E+03  0.87721298943E+03  0.14565059082E+04  0.00000000000E+00 0. -1.
         22    1    3    3    0    0 -0.47607531456E+03  0.34203370917E+01  0.28196922050E+03  0.55332273145E+03  0.00000000000E+00 0. -1.
</event>
<event>
 7    1  0.5213103E-005  0.2810291E+03  0.7818608E-02  0.1294072E+00
          2   -1    0    0  502    0  0.00000000000E+00  0.00000000000E+00  0.94259701048E+03  0.94259701048E+03  0.00000000000E+00 0. -1.
          1   -1    0    0  501    0 -0.00000000000E+00 -0.00000000000E+00 -0.56580891927E+03  0.56580891927E+03  0.00000000000E+00 0. -1.
         25    2    1    2    0    0 -0.12391141211E+03 -0.24782429167E+03  0.43721132129E+02  0.30709480065E+03  0.12499904640E+03 0.  0.
          2    1    1    2  501    0  0.97764565118E+02  0.26495388329E+03 -0.38781663506E+03  0.47975015674E+03  0.00000000000E+00 0. -1.
          1    1    1    2  502    0  0.26146846994E+02 -0.17129591620E+02  0.72088359415E+03  0.72156097235E+03  0.00000000000E+00 0. -1.
         22    1    3    3    0    0 -0.69980756231E+02 -0.97479455953E+02  0.78806283639E+02  0.14356176690E+03  0.00000000000E+00 0. -1.
         22    1    3    3    0    0 -0.53930655881E+02 -0.15034483572E+03 -0.35085151510E+02  0.16353303375E+03  0.00000000000E+00 0. -1.
</event>
<event>
 7    1  0.5213103E-005  0.3124631E+03  0.7818608E-02  0.1316526E+00
          2   -1    0    0  502    0  0.00000000000E+00  0.00000000000E+00  0.27464240475E+04  0.27464240475E+04  0.00000000000E+00 0. -1.
          1   -1    0    0  501    0 -0.00000000000E+00 -0.00000000000E+00 -0.17237509060E+03  0.17237509060E+03  0.00000000000E+00 0. -1.
         25    2    1    2    0    0 -0.13103487047E+03  0.28037799487E+03  0.12606139156E+04  0.13040518047E+04  0.12498683128E+03 0.  0.
          2    1    1    2  501    0 -0.22326271497E+02 -0.50784112084E+01 -0.13270687863E+03  0.13466762156E+03  0.00000000000E+00 0. -1.
          1    1    1    2  502    0  0.15336114197E+03 -0.27529958366E+03  0.14461419200E+04  0.14800797118E+04  0.00000000000E+00 0. -1.
         22    1    3    3    0    0 -0.44524986587E+02  0.31715585446E+02  0.10016561783E+03  0.11411180388E+03  0.00000000000E+00 0.  1.
         22    1    3    3    0    0 -0.86509883885E+02  0.24866240942E+03  0.11604482977E+04  0.11899400008E+04  0.00000000000E+00 0.  1.
</event>
<event>
 7    1  0.5213103E-005  0.8699830E+03  0.7818608E-02  0.1144616E+00
          2   -1    0    0  502    0  0.00000000000E+00  0.00000000000E+00  0.53727653029E+03  0.53727653029E+03  0.00000000000E+00 0. -1.
          1   -1    0    0  501    0 -0.00000000000E+00 -0.00000000000E+00 -0.35267389274E+04  0.35267389274E+04  0.00000000000E+00 0. -1.
         25    2    1    2    0    0 -0.86866693473E+03  0.24608604052E+02 -0.69052722699E+03  0.11169783108E+04  0.12499947437E+03 0.  0.
          2    1    1    2  501    0  0.62171496614E+00  0.48865954812E+02 -0.20366833474E+04  0.20372695761E+04  0.00000000000E+00 0. -1.
          1    1    1    2  502    0  0.86804521976E+03 -0.73474558864E+02 -0.26225182265E+03  0.90976757078E+03  0.00000000000E+00 0. -1.
         22    1    3    3    0    0 -0.39178058944E+03  0.16645822772E+02 -0.23341724958E+03  0.45634715522E+03  0.00000000000E+00 0.  1.
         22    1    3    3    0    0 -0.47688634529E+03  0.79627812802E+01 -0.45710997742E+03  0.66063115554E+03  0.00000000000E+00 0.  1.
</event>
<event>
 7    1  0.5435799E-005  0.2124439E+04  0.7818608E-02  0.1070231E+00
          2   -1    0    0  502    0  0.00000000000E+00  0.00000000000E+00  0.49216522357E+04  0.49216522357E+04  0.00000000000E+00 0. -1.
          1   -1    0    0  501    0 -0.00000000000E+00 -0.00000000000E+00 -0.13959276916E+04  0.13959276916E+04  0.00000000000E+00 0. -1.
         25    2    1    2    0    0  0.52036002361E+03  0.20736867817E+04  0.45173747077E+03  0.21887538551E+04  0.12500109231E+03 0.  0.
          2    1    1    2  501    0 -0.47479312010E+03 -0.20488398595E+04  0.15714217855E+04  0.26253646804E+04  0.00000000000E+00 0. -1.
          1    1    1    2  502    0 -0.45566903512E+02 -0.24846922187E+02  0.15025652879E+04  0.15034613918E+04  0.00000000000E+00 0. -1.
         22    1    3    3    0    0  0.52709230570E+03  0.20598384517E+04  0.44762109466E+03  0.21728150842E+04  0.00000000000E+00 0. -1.
         22    1    3    3    0    0 -0.67322820933E+01  0.13848330065E+02  0.41163761108E+01  0.15938770971E+02  0.00000000000E+00 0. -1.
</event>
<event>
 7    1  0.5213103E-005  0.6851329E+02  0.7818608E-02  0.1374415E+00
          2   -1    0    0  502    0  0.00000000000E+00  0.00000000000E+00  0.11651471916E+04  0.11651471916E+04  0.00000000000E+00 0. -1.
          1   -1    0    0  501    0 -0.00000000000E+00 -0.00000000000E+00 -0.50209590038E+02  0.50209590038E+02  0.00000000000E+00 0. -1.
         25    2    1    2    0    0  0.36153145878E+02  0.24283795287E+02  0.65358427154E+03  0.66685451731E+03  0.12500317833E+03 0.  0.
          2    1    1    2  501    0 -0.12903820602E+02  0.62166772825E+02 -0.13812457956E+02  0.64976920706E+02  0.00000000000E+00 0. -1.
          1    1    1    2  502    0 -0.23249325275E+02 -0.86450568112E+02  0.47516578796E+03  0.48352534360E+03  0.00000000000E+00 0. -1.
         22    1    3    3    0    0  0.31807915736E+02 -0.45223073324E+02  0.40291610970E+03  0.40669185057E+03  0.00000000000E+00 0. -1.
         22    1    3    3    0    0  0.43452301422E+01  0.69506868611E+02  0.25066816184E+03  0.26016266675E+03  0.00000000000E+00 0. -1.
</event>
<event>
 7    1  0.5213103E-005  0.4910766E+03  0.7818608E-02  0.1166338E+00
          2   -1    0    0  502    0  0.00000000000E+00  0.00000000000E+00  0.11715411119E+04  0.11715411119E+04  0.00000000000E+00 0. -1.
          1   -1    0    0  501    0 -0.00000000000E+00 -0.00000000000E+00 -0.86626146559E+03  0.86626146559E+03  0.00000000000E+00 0. -1.
         25    2    1    2    0    0 -0.36567366850E+03 -0.24310244540E+03 -0.83876020387E+02  0.46419470661E+03  0.12500203223E+03 0.  0.
          2    1    1    2  501    0 -0.64552578898E+02 -0.18306617176E+02 -0.52539250407E+03  0.52965975022E+03  0.00000000000E+00 0. -1.
          1    1    1    2  502    0  0.43022624739E+03  0.26140906258E+03  0.91454817072E+03  0.10439481206E+04  0.00000000000E+00 0. -1.
         22    1    3    3    0    0 -0.15679959469E+03 -0.17436418207E+03 -0.20719855095E+02  0.23541090306E+03  0.00000000000E+00 0.  1.
         22    1    3    3    0    0 -0.20887407381E+03 -0.68738263331E+02 -0.63156165292E+02  0.22878380355E+03  0.00000000000E+00 0.  1.
</event>
<event>
 7    1  0.5213103E-005  0.4531312E+03  0.7818608E-02  0.1278059E+00
          2   -1    0    0  502    0  0.00000000000E+00  0.00000000000E+00  0.43503378005E+03  0.43503378005E+03  0.00000000000E+00 0. -1.
          1   -1    0    0  501    0 -0.00000000000E+00 -0.00000000000E+00 -0.19432794713E+04  0.19432794713E+04  0.00000000000E+00 0. -1.
         25    2    1    2    0    0 -0.22628892718E+03 -0.37990875640E+03 -0.38148599313E+03  0.59723832376E+03  0.12499884263E+03 0.  0.
          2    1    1    2  501    0  0.24857577110E+03  0.38330528320E+03 -0.14175822774E+04  0.14893798600E+04  0.00000000000E+00 0. -1.
          1    1    1    2  502    0 -0.22286843919E+02 -0.33965267989E+01  0.29082257932E+03  0.29169506757E+03  0.00000000000E+00 0. -1.
         22    1    3    3    0    0 -0.30141897075E+02 -0.72711432566E+02 -0.14544242800E+02  0.80043871619E+02  0.00000000000E+00 0. -1.
         22    1    3    3    0    0 -0.19614703011E+03 -0.30719732383E+03 -0.36694175033E+03  0.51719445214E+03  0.00000000000E+00 0. -1.
</event>
<event>
 7    1  0.5213103E-005  0.2103879E+03  0.7818608E-02  0.1257253E+00
          2   -1    0    0  502    0  0.00000000000E+00  0.00000000000E+00  0.70332608776E+03  0.70332608776E+03  0.00000000000E+00 0. -1.
          1   -1    0    0  501    0 -0.00000000000E+00 -0.00000000000E+00 -0.21996046650E+03  0.21996046650E+03  0.00000000000E+00 0. -1.
         25    2    1    2    0    0  0.24172569073E+03 -0.81176329046E+02  0.35508942653E+03  0.45467991743E+03  0.12499768209E+03 0.  0.
          2    1    1    2  501    0 -0.18293754583E+03  0.89830781053E+02 -0.10403173542E+03  0.22881939794E+03  0.00000000000E+00 0. -1.
          1    1    1    2  502    0 -0.58788144900E+02 -0.86544520069E+01  0.23230793016E+03  0.23978723889E+03  0.00000000000E+00 0. -1.
         22    1    3    3    0    0  0.17769071566E+03 -0.10945220708E+03  0.30074036910E+03  0.36605811789E+03  0.00000000000E+00 0. -1.
         22    1    3    3    0    0  0.64034975065E+02  0.28275878037E+02  0.54349057428E+02  0.88621799540E+02  0.00000000000E+00 0. -1.
</event>
<event>
 7    1  0.5213103E-005  0.6173747E+03  0.7818608E-02  0.1118690E+00
          2   -1    0    0  502    0  0.00000000000E+00  0.00000000000E+00  0.14378346498E+04  0.14378346498E+04  0.00000000000E+00 0. -1.
          1   -1    0    0  501    0 -0.00000000000E+00 -0.00000000000E+00 -0.40546376288E+03  0.40546376288E+03  0.00000000000E+00 0. -1.
         25    2    1    2    0    0  0.10024927739E+03 -0.63136806587E+03  0.86326025744E+03  0.10814430497E+04  0.12500098156E+03 0.  0.
          2    1    1    2  501    0  0.61154240403E+02  0.72169335663E+02 -0.84626503473E+02  0.12692477780E+03  0.00000000000E+00 0. -1.
          1    1    1    2  502    0 -0.16140351779E+03  0.55919873020E+03  0.25373713297E+03  0.63493058523E+03  0.00000000000E+00 0. -1.
         22    1    3    3    0    0  0.11278558730E+03 -0.41818671350E+03  0.63715714946E+03  0.77043490910E+03  0.00000000000E+00 0. -1.
         22    1    3    3    0    0 -0.12536309913E+02 -0.21318135237E+03  0.22610310798E+03  0.31100814057E+03  0.00000000000E+00 0. -1.
</event>
<event>
 7    1  0.5213103E-005  0.2744949E+03  0.7818608E-02  0.1131441E+00
          2   -1    0    0  502    0  0.00000000000E+00  0.00000000000E+00  0.27322747763E+04  0.27322747763E+04  0.00000000000E+00 0. -1.
          1   -1    0    0  501    0 -0.00000000000E+00 -0.00000000000E+00 -0.46840710752E+03  0.46840710752E+03  0.00000000000E+00 0. -1.
         25    2    1    2    0    0  0.22225772650E+03 -0.31467644332E+03 -0.98661623350E+02  0.41686847869E+03  0.12500180652E+03 0.  0.
          2    1    1    2  501    0 -0.64323131464E+02  0.22490605205E+03 -0.14137610163E+03  0.27332654390E+03  0.00000000000E+00 0. -1.
          1    1    1    2  502    0 -0.15793459504E+03  0.89770391273E+02  0.25039053938E+04  0.25104868612E+04  0.00000000000E+00 0. -1.
         22    1    3    3    0    0  0.23078972313E+03 -0.31811691458E+03 -0.87929392642E+02  0.40273297075E+03  0.00000000000E+00 0.  1.
         22    1    3    3    0    0 -0.85319966243E+01  0.34404712522E+01 -0.10732230708E+02  0.14135507943E+02  0.00000000000E+00 0.  1.
</event>
<event>
 7    1  0.5213103E-005  0.2052744E+03  0.7818608E-02  0.1266800E+00
          2   -1    0    0  502    0  0.00000000000E+00  0.00000000000E+00  0.57299282837E+03  0.57299282837E+03  0.00000000000E+00 0. -1.
          1   -1    0    0  501    0 -0.00000000000E+00 -0.00000000000E+00 -0.11188783140E+04  0.11188783140E+04  0.00000000000E+00 0. -1.
         25    2    1    2    0    0  0.16604389092E+03 -0.18693278098E+03 -0.76562732862E+02  0.28983077359E+03  0.12500234773E+03 0.  0.
          2    1    1    2  501    0 -0.50125823380E+02  0.23744138903E+02 -0.91332251385E+03  0.91500513475E+03  0.00000000000E+00 0. -1.
          1    1    1    2  502    0 -0.11591806754E+03  0.16318864208E+03  0.44399976112E+03  0.48703523400E+03  0.00000000000E+00 0. -1.
         22    1    3    3    0    0  0.56305245018E+02 -0.14727255812E+03 -0.71260991981E+02  0.17302489985E+03  0.00000000000E+00 0. -1.
         22    1    3    3    0    0  0.10973864590E+03 -0.39660222862E+02 -0.53017408809E+01  0.11680587373E+03  0.00000000000E+00 0. -1.
</event>
<event>
 7    1  0.5213103E-005  0.4367549E+03  0.7818608E-02  0.1168686E+00
          2   -1    0    0  502    0  0.00000000000E+00  0.00000000000E+00  0.33699829053E+04  0.33699829053E+04  0.00000000000E+00 0. -1.
          1   -1    0    0  501    0 -0.00000000000E+00 -0.00000000000E+00 -0.11641490283E+04  0.11641490283E+04  0.00000000000E+00 0. -1.
         25    2    1    2    0    0 -0.27958130442E+03  0.25381664703E+03  0.27722663977E+03  0.48483833654E+03  0.12500002674E+03 0.  0.
          2    1    1    2  501    0 -0.31396906434E+02  0.66385320266E+02 -0.10423797539E+04  0.10449633141E+04  0.00000000000E+00 0. -1.
          1    1    1    2  502    0  0.31097821085E+03 -0.32020196730E+03  0.29709869912E+04  0.30043302830E+04  0.00000000000E+00 0. -1.
         22    1    3    3    0    0 -0.12872230378E+03  0.46951009014E+02  0.13313025818E+03  0.19104317413E+03  0.00000000000E+00 0.  1.
         22    1    3    3    0    0 -0.15085900064E+03  0.20686563802E+03  0.14409638160E+03  0.29379516241E+03  0.00000000000E+00 0.  1.
</event>
<event>
 7    1  0.5213103E-005  0.5572723E+03  0.7818608E-02  0.1158584E+00
          2   -1    0    0  502    0  0.00000000000E+00  0.00000000000E+00  0.45805312936E+03  0.45805312936E+03  0.00000000000E+00 0. -1.
          1   -1    0    0  501    0 -0.00000000000E+00 -0.00000000000E+00 -0.17526893942E+04  0.17526893942E+04  0.00000000000E+00 0. -1.
         25    2    1    2    0    0 -0.43393198444E+03 -0.40403521271E+03 -0.17641243667E+03  0.63110060724E+03  0.12500083368E+03 0.  0.
          2    1    1    2  501    0  0.35326014733E+02  0.54189164967E+02 -0.10418002279E+04  0.10438065471E+04  0.00000000000E+00 0. -1.
          1    1    1    2  502    0  0.39860596971E+03  0.34984604774E+03 -0.76423600247E+02  0.53583536920E+03  0.00000000000E+00 0. -1.
         22    1    3    3    0    0 -0.13029845899E+03 -0.14280341530E+03  0.28251864366E+00  0.19331472695E+03  0.00000000000E+00 0. -1.
         22    1    3    3    0    0 -0.30363352545E+03 -0.26123179741E+03 -0.17669495531E+03  0.43778588030E+03  0.00000000000E+00 0. -1.
</event>
<event>
 7    1  0.5213103E-005  0.1665942E+03  0.7818608E-02  0.1235769E+00
          2   -1    0    0  502    0  0.00000000000E+00  0.00000000000E+00  0.25532298884E+04  0.25532298884E+04  0.00000000000E+00 0. -1.
          1   -1    0    0  501    0 -0.00000000000E+00 -0.00000000000E+00 -0.54463789900E+03  0.54463789900E+03  0.00000000000E+00 0. -1.
         25    2    1    2    0    0  0.22486501094E+03 -0.10526183592E+03  0.51046887962E+03  0.58124686286E+03  0.12500044513E+03 0.  0.
          2    1    1    2  501    0 -0.13198536362E+03  0.98548112783E+02 -0.49481364794E+03  0.52150974385E+03  0.00000000000E+00 0. -1.
          1    1    1    2  502    0 -0.92879647323E+02  0.67137231409E+01  0.19929367577E+04  0.19951111807E+04  0.00000000000E+00 0. -1.
         22    1    3    3    0    0  0.85037795225E+02 -0.64960222995E+02  0.10281520825E+03  0.14839886872E+03  0.00000000000E+00 0. -1.
         22    1    3    3    0    0  0.13982721572E+03 -0.40301612928E+02  0.40765367137E+03  0.43284799415E+03  0.00000000000E+00 0. -1.
</event>
<event>
 7    1  0.5213103E-005  0.1403227E+03  0.7818608E-02  0.1251761E+00
          2   -1    0    0  502    0  0.00000000000E+00  0.00000000000E+00  0.63572778666E+03  0.63572778666E+03  0.00000000000E+00 0. -1.
          1   -1    0    0  501    0 -0.00000000000E+00 -0.00000000000E+00 -0.89804993477E+02  0.89804993477E+02  0.00000000000E+00 0. -1.
         25    2    1    2    0    0 -0.17879260500E+03  0.10581701053E+03  0.18963972400E+03  0.30782078490E+03  0.12500550140E+03 0.  0.
          2    1    1    2  501    0  0.60240159663E+02 -0.72261797647E+02  0.13713392309E+03  0.16630200570E+03  0.00000000000E+00 0. -1.
          1    1    1    2  502    0  0.11855244534E+03 -0.33555212886E+02  0.21914914609E+03  0.25140998954E+03  0.00000000000E+00 0. -1.
         22    1    3    3    0    0 -0.19250771071E+03  0.93586131735E+02  0.19405605381E+03  0.28892098359E+03  0.00000000000E+00 0.  1.
         22    1    3    3    0    0  0.13715105712E+02  0.12230878798E+02 -0.44163298113E+01  0.18899801318E+02  0.00000000000E+00 0.  1.
</event>
<event>
 7    1  0.5213103E-005  0.3100099E+03  0.7818608E-02  0.1165045E+00
          2   -1    0    0  502    0  0.00000000000E+00  0.00000000000E+00  0.80325964168E+03  0.80325964168E+03  0.00000000000E+00 0. -1.
          1   -1    0    0  501    0 -0.00000000000E+00 -0.00000000000E+00 -0.28530451412E+03  0.28530451412E+03  0.00000000000E+00 0. -1.
         25    2    1    2    0    0  0.94621836506E+02  0.38050578456E+03  0.15385836285E+03  0.43936916265E+03  0.12503967864E+03 0.  0.
          2    1    1    2  501    0 -0.11677081333E+02 -0.10724897720E+03 -0.70714490234E+02  0.12899316442E+03  0.00000000000E+00 0. -1.
          1    1    1    2  502    0 -0.82944755173E+02 -0.27325680737E+03  0.43481125495E+03  0.52020182873E+03  0.00000000000E+00 0. -1.
         22    1    3    3    0    0  0.14773408613E+02  0.10171172407E+03 -0.14875814387E+02  0.10384997963E+03  0.00000000000E+00 0. -1.
         22    1    3    3    0    0  0.79848427893E+02  0.27879406050E+03  0.16873417724E+03  0.33551918302E+03  0.00000000000E+00 0. -1.
</event>
<event>
 7    1  0.5213103E-005  0.4308129E+02  0.7818608E-02  0.1510284E+00
          2   -1    0    0  502    0  0.00000000000E+00  0.00000000000E+00  0.31643287437E+04  0.31643287437E+04  0.00000000000E+00 0. -1.
          1   -1    0    0  501    0 -0.00000000000E+00 -0.00000000000E+00 -0.11053012860E+03  0.11053012860E+03  0.00000000000E+00 0. -1.
         25    2    1    2    0    0  0.29536722666E+01 -0.75326036055E+01  0.12821219464E+03  0.17924521936E+03  0.12500007005E+03 0.  0.
          2    1    1    2  501    0  0.31442842444E+02 -0.18772567268E+02 -0.80906791989E+02  0.88808617897E+02  0.00000000000E+00 0. -1.
          1    1    1    2  502    0 -0.34396514711E+02  0.26305170873E+02  0.30064932125E+04  0.30068050351E+04  0.00000000000E+00 0. -1.
         22    1    3    3    0    0 -0.49937144871E+01  0.50478601176E+02  0.10433257504E+03  0.11600996757E+03  0.00000000000E+00 0.  1.
         22    1    3    3    0    0  0.79473867538E+01 -0.58011204782E+02  0.23879619600E+02  0.63235251788E+02  0.00000000000E+00 0.  1.
</event>
<event>
 7    1  0.5213103E-005  0.4018176E+03  0.7818608E-02  0.1209133E+00
          2   -1    0    0  502    0  0.00000000000E+00  0.00000000000E+00  0.83583235941E+03  0.83583235941E+03  0.00000000000E+00 0. -1.
          1   -1    0    0  501    0 -0.00000000000E+00 -0.00000000000E+00 -0.85392140254E+03  0.85392140254E+03  0.00000000000E+00 0. -1.
         25    2    1    2    0    0 -0.43004257389E+03 -0.10419936110E+03  0.47604106241E+02  0.46226065318E+03  0.12499855333E+03 0.  0.
          2    1    1    2  501    0  0.37914484082E+03  0.10083979859E+03 -0.58571849587E+03  0.70497207867E+03  0.00000000000E+00 0. -1.
          1    1    1    2  502    0  0.50897733066E+02  0.33595625117E+01  0.52002534651E+03  0.52252103010E+03  0.00000000000E+00 0. -1.
         22    1    3    3    0    0 -0.42180295759E+03 -0.12245190516E+03  0.40793342690E+02  0.44110803769E+03  0.00000000000E+00 0.  1.
         22    1    3    3    0    0 -0.82396162992E+01  0.18252544066E+02  0.68107635506E+01  0.21152615483E+02  0.00000000000E+00 0.  1.
</event>
<event>
 7    1  0.5213103E-005  0.4245541E+03  0.7818608E-02  0.1260242E+00
          2   -1    0    0  502    0  0.00000000000E+00  0.00000000000E+00  0.10865162967E+04  0.10865162967E+04  0.00000000000E+00 0. -1.
          1   -1    0    0  501    0 -0.00000000000E+00 -0.00000000000E+00 -0.69958856652E+03  0.69958856652E+03  0.00000000000E+00 0. -1.
         25    2    1    2    0    0 -0.41182570908E+03  0.10837308703E+03  0.27967489298E+03  0.52458424204E+03  0.12500176229E+03 0.  0.
          2    1    1    2  501    0  0.97680900790E+01  0.26872176081E+02 -0.51096483393E+03  0.51176419467E+03  0.00000000000E+00 0. -1.
          1    1    1    2  502    0  0.40205761900E+03 -0.13524526312E+03  0.61821767111E+03  0.74975642650E+03  0.00000000000E+00 0. -1.
         22    1    3    3    0    0  0.58560854188E+01  0.17111406843E+01  0.20945954570E+02  0.21816387229E+02  0.00000000000E+00 0. -1.
         22    1    3    3    0    0 -0.41768179450E+03  0.10666194635E+03  0.25872893841E+03  0.50276785481E+03  0.00000000000E+00 0. -1.
</event>
<event>
 7    1  0.5213103E-005  0.6829086E+02  0.7818608E-02  0.1430593E+00
          2   -1    0    0  502    0  0.00000000000E+00  0.00000000000E+00  0.10504258321E+03  0.10504258321E+03  0.00000000000E+00 0. -1.
          1   -1    0    0  501    0 -0.00000000000E+00 -0.00000000000E+00 -0.72396351779E+03  0.72396351779E+03  0.00000000000E+00 0. -1.
         25    2    1    2    0    0  0.35751413917E+02 -0.18415174285E+02 -0.20771216818E+02  0.13294495956E+03  0.12500254631E+03 0.  0.
          2    1    1    2  501    0 -0.69248499226E+02 -0.50297988484E+01 -0.63633772751E+03  0.64011433118E+03  0.00000000000E+00 0. -1.
          1    1    1    2  502    0  0.33497085308E+02  0.23444973134E+02  0.38188009756E+02  0.55946810262E+02  0.00000000000E+00 0. -1.
         22    1    3    3    0    0  0.42144142044E+02  0.12898195625E+02 -0.64904975675E+02  0.78454751458E+02  0.00000000000E+00 0. -1.
         22    1    3    3    0    0 -0.63927281266E+01 -0.31313369910E+02  0.44133758856E+02  0.54490208101E+02  0.00000000000E+00 0. -1.
</event>
<event>
 7    1  0.5213103E-005  0.1504071E+03  0.7818608E-02  0.1305449E+00
          2   -1    0    0  502    0  0.00000000000E+00  0.00000000000E+00  0.64464952534E+03  0.64464952534E+03  0.00000000000E+00 0. -1.
          1   -1    0    0  501    0 -0.00000000000E+00 -0.00000000000E+00 -0.77990270505E+02  0.77990270505E+02  0.00000000000E+00 0. -1.
         25    2    1    2    0    0 -0.41455333359E+02 -0.15948816207E+03  0.45377697458E+03  0.49869204236E+03  0.12500076779E+03 0.  0.
          2    1    1    2  501    0  0.45613999265E+02  0.26169675853E+02  0.58153921189E+01  0.52908483712E+02  0.00000000000E+00 0. -1.
          1    1    1    2  502    0 -0.41586659064E+01  0.13331848622E+03  0.10706688813E+03  0.17103926977E+03  0.00000000000E+00 0. -1.
         22    1    3    3    0    0 -0.38001328516E+01 -0.11368247326E+02 -0.65487512284E+01  0.13658850597E+02  0.00000000000E+00 0.  1.
         22    1    3    3    0    0 -0.37655200507E+02 -0.14811991474E+03  0.46032572581E+03  0.48503319176E+03  0.00000000000E+00 0.  1.
</event>
<event>
 7    1  0.5213103E-005  0.5623171E+03  0.7818608E-02  0.1147748E+00
          2   -1    0    0  502    0  0.00000000000E+00  0.00000000000E+00  0.11897965750E+04  0.11897965750E+04  0.00000000000E+00 0. -1.
          1   -1    0    0  501    0 -0.00000000000E+00 -0.00000000000E+00 -0.13222316846E+04  0.13222316846E+04  0.00000000000E+00 0. -1.
         25    2    1    2    0    0  0.18402271590E+03 -0.57278462856E+03  0.33268021542E+03  0.69874821036E+03  0.12500538017E+03 0.  0.
          2    1    1    2  501    0 -0.22267734404E+03  0.51105271402E+03 -0.10686798068E+04  0.12053367187E+04  0.00000000000E+00 0. -1.
          1    1    1    2  502    0  0.38654628145E+02  0.61731914542E+02  0.60356448170E+03  0.60794333052E+03  0.00000000000E+00 0. -1.
         22    1    3    3    0    0  0.20118889192E+03 -0.48938094718E+03  0.28040019528E+03  0.59882798132E+03  0.00000000000E+00 0.  1.
         22    1    3    3    0    0 -0.17166176019E+02 -0.83403681376E+02  0.52280020140E+02  0.99920229043E+02  0.00000000000E+00 0.  1.
</event>
<event>
 7    1  0.5213103E-005  0.3503746E+03  0.7818608E-02  0.1193695E+00
          2   -1    0    0  502    0  0.00000000000E+00  0.00000000000E+00  0.15186844957E+04  0.15186844957E+04  0.00000000000E+00 0. -1.
          1   -1    0    0  501    0 -0.00000000000E+00 -0.00000000000E+00 -0.11836207324E+03  0.11836207324E+03  0.00000000000E+00 0. -1.
         25    2    1    2    0    0  0.35569744768E+03  0.50242496623E+02  0.80829333768E+03  0.89331317103E+03  0.12500127621E+03 0.  0.
          2    1    1    2  501    0 -0.30587650330E+02  0.62014148087E+02  0.13153415928E+02  0.70387294779E+02  0.00000000000E+00 0. -1.
          1    1    1    2  502    0 -0.32510979735E+03 -0.11225664471E+03  0.57887566886E+03  0.67334610314E+03  0.00000000000E+00 0. -1.
         22    1    3    3    0    0  0.27808977625E+03  0.73786329453E+02  0.52533377839E+03  0.59896070387E+03  0.00000000000E+00 0.  1.
         22    1    3    3    0    0  0.77607671425E+02 -0.23543832830E+02  0.28295955929E+03  0.29435246716E+03  0.00000000000E+00 0.  1.
</event>
<event>
 7    1  0.5213103E-005  0.6137985E+03  0.7818608E-02  0.1229093E+00
          2   -1    0    0  502    0  0.00000000000E+00  0.00000000000E+00  0.19792015784E+04  0.19792015784E+04  0.00000000000E+00 0. -1.
          1   -1    0    0  501    0 -0.00000000000E+00 -0.00000000000E+00 -0.13578627547E+04  0.13578627547E+04  0.00000000000E+00 0. -1.
         25    2    1    2    0    0  0.58505054645E+03 -0.76221718613E+02 -0.19639704022E+03  0.63426397163E+03  0.12500038404E+03 0.  0.
          2    1    1    2  501    0  0.26271771941E+02 -0.65276051464E+01 -0.88827078737E+03  0.88868318726E+03  0.00000000000E+00 0. -1.
          1    1    1    2  502    0 -0.61132231839E+03  0.82749323760E+02  0.17060066513E+04  0.18141171743E+04  0.00000000000E+00 0. -1.
         22    1    3    3    0    0  0.27781685818E+03 -0.23245691982E+02 -0.15716807769E+03  0.32003808137E+03  0.00000000000E+00 0.  1.
         22    1    3    3    0    0  0.30723368827E+03 -0.52976026631E+02 -0.39228962530E+02  0.31422589026E+03  0.00000000000E+00 0.  1.
</event>
<event>
 7    1  0.5213103E-005  0.4165431E+03  0.7818608E-02  0.1155722E+00
          2   -1    0    0  502    0  0.00000000000E+00  0.00000000000E+00  0.82317003931E+03  0.82317003931E+03  0.00000000000E+00 0. -1.
          1   -1    0    0  501    0 -0.00000000000E+00 -0.00000000000E+00 -0.24109651001E+04  0.24109651001E+04  0.00000000000E+00 0. -1.
         25    2    1    2    0    0 -0.96193714058E+02 -0.49373944509E+03 -0.18542166609E+04  0.19252996888E+04  0.12501038223E+03 0.  0.
          2    1    1    2  501    0  0.25512544926E+02  0.85774631028E+02 -0.46220343967E+03  0.47078678499E+03  0.00000000000E+00 0. -1.
          1    1    1    2  502    0  0.70681169132E+02  0.40796481407E+03  0.72862503987E+03  0.83804866560E+03  0.00000000000E+00 0. -1.
         22    1    3    3    0    0 -0.10672036557E+03 -0.42629876566E+03 -0.17127242531E+04  0.17682036764E+04  0.00000000000E+00 0.  1.
         22    1    3    3    0    0  0.10526651514E+02 -0.67440679435E+02 -0.14149240781E+03  0.15709601237E+03  0.00000000000E+00 0.  1.
</event>
<event>
 7    1  0.5213103E-005  0.3358535E+03  0.7818608E-02  0.1140209E+00
          2   -1    0    0  502    0  0.00000000000E+00  0.00000000000E+00  0.18425800390E+04  0.18425800390E+04  0.00000000000E+00 0. -1.
          1   -1    0    0  501    0 -0.00000000000E+00 -0.00000000000E+00 -0.44684034188E+04  0.44684034188E+04  0.00000000000E+00 0. -1.
         25    2    1    2    0    0 -0.42474959478E+03 -0.17191026988E+03 -0.25632971491E+04  0.26069298473E+04  0.12500237864E+03 0.  0.
          2    1    1    2  501    0  0.10024731945E+03  0.88117931027E+02 -0.18654628669E+04  0.18702315371E+04  0.00000000000E+00 0. -1.
          1    1    1    2  502    0  0.32450227532E+03  0.83792338849E+02  0.18029366362E+04  0.18338220734E+04  0.00000000000E+00 0. -1.
         22    1    3    3    0    0  0.49620812376E+01 -0.46725586728E+01 -0.87048790378E+01  0.11055766542E+02  0.00000000000E+00 0. -1.
         22    1    3    3    0    0 -0.42971167601E+03 -0.16723771120E+03 -0.25545922701E+04  0.25958740807E+04  0.00000000000E+00 0. -1.
</event>
<event>
 7    1  0.5213103E-005  0.4362139E+03  0.7818608E-02  0.1219550E+00
          2   -1    0    0  502    0  0.00000000000E+00  0.00000000000E+00  0.34460018370E+04  0.34460018370E+04  0.00000000000E+00 0. -1.
          1   -1    0    0  501    0 -0.00000000000E+00 -0.00000000000E+00 -0.24346881255E+04  0.24346881255E+04  0.00000000000E+00 0. -1.
         25    2    1    2    0    0 -0.39701383197E+03 -0.29938501152E+01  0.44813561893E+03  0.61162036874E+03  0.12499998635E+03 0.  0.
          2    1    1    2  501    0  0.43748413450E+03  0.14501670688E+02 -0.23324338513E+04  0.23731519836E+04  0.00000000000E+00 0. -1.
          1    1    1    2  502    0 -0.40470302534E+02 -0.11507820573E+02  0.28956119439E+04  0.28959176102E+04  0.00000000000E+00 0. -1.
         22    1    3    3    0    0 -0.33670359186E+02  0.29483285039E+02  0.89475260125E+02  0.10004388716E+03  0.00000000000E+00 0.  1.
         22    1    3    3    0    0 -0.36334347278E+03 -0.32477135154E+02  0.35866035880E+03  0.51157648157E+03  0.00000000000E+00 0.  1.
</event>
<event>
 7    1  0.5213103E-005  0.7704309E+03  0.7818608E-02  0.1125154E+00
          2   -1    0    0  502    0  0.00000000000E+00  0.00000000000E+00  0.86583975555E+03  0.86583975555E+03  0.00000000000E+00 0. -1.
          1   -1    0    0  501    0 -0.00000000000E+00 -0.00000000000E+00 -0.16927273857E+04  0.16927273857E+04  0.00000000000E+00 0. -1.
         25    2    1    2    0    0  0.76932543185E+03  0.21954857690E+03  0.13389884351E+03  0.82074188457E+03  0.12500057236E+03 0.  0.
          2    1    1    2  501    0 -0.48560211942E+02 -0.50329672328E+02 -0.99424959718E+03  0.99670629154E+03  0.00000000000E+00 0. -1.
          1    1    1    2  502    0 -0.72076521991E+03 -0.16921890457E+03  0.33463123492E+02  0.74111896517E+03  0.00000000000E+00 0. -1.
         22    1    3    3    0    0  0.64556814796E+03  0.22935361888E+03  0.10288843688E+03  0.69278232266E+03  0.00000000000E+00 0.  1.
         22    1    3    3    0    0  0.12375728390E+03 -0.98050419829E+01  0.31010406630E+02  0.12795956191E+03  0.00000000000E+00 0.  1.
</event>
<event>
 7    1  0.5213103E-005  0.2546617E+03  0.7818608E-02  0.1185113E+00
          2   -1    0    0  502    0  0.00000000000E+00  0.00000000000E+00  0.12382352981E+03  0.12382352981E+03  0.00000000000E+00 0. -1.
          1   -1    0    0  501    0 -0.00000000000E+00 -0.00000000000E+00 -0.16538631673E+04  0.16538631673E+04  0.00000000000E+00 0. -1.
         25    2    1    2    0    0  0.30433519144E+03  0.50113430927E+02 -0.88324325433E+03  0.94386181833E+03  0.12500088429E+03 0.  0.
          2    1    1    2  501    0 -0.20725359107E+03 -0.89073737614E+02 -0.68597988618E+03  0.72211950949E+03  0.00000000000E+00 0. -1.
          1    1    1    2  502    0 -0.97081600370E+02  0.38960306688E+02  0.39183502992E+02  0.11170536932E+03  0.00000000000E+00 0. -1.
         22    1    3    3    0    0 -0.64564151917E+01 -0.52174875610E+01 -0.31714631175E+01  0.88862619747E+01  0.00000000000E+00 0. -1.
         22    1    3    3    0    0  0.31079160663E+03  0.55330918488E+02 -0.88007179121E+03  0.93497555635E+03  0.00000000000E+00 0. -1.
</event>
<event>
 7    1  0.5213103E-005  0.2930768E+03  0.7818608E-02  0.1277847E+00
          2   -1    0    0  502    0  0.00000000000E+00  0.00000000000E+00  0.57098481303E+03  0.57098481303E+03  0.00000000000E+00 0. -1.
          1   -1    0    0  501    0 -0.00000000000E+00 -0.00000000000E+00 -0.56760242619E+03  0.56760242619E+03  0.00000000000E+00 0. -1.
         25    2    1    2    0    0  0.16826689607E+03 -0.20820129318E+03  0.54967409657E+01  0.29549401080E+03  0.12499987785E+03 0.  0.
          2    1    1    2  501    0 -0.18555965318E+03  0.23854625991E+03 -0.36763259913E+03  0.47591010805E+03  0.00000000000E+00 0. -1.
          1    1    1    2  502    0  0.17292757102E+02 -0.30344966736E+02  0.36551824500E+03  0.36718312037E+03  0.00000000000E+00 0. -1.
         22    1    3    3    0    0  0.11482170717E+03 -0.50033666996E+02 -0.19238924309E+02  0.12671830364E+03  0.00000000000E+00 0.  1.
         22    1    3    3    0    0  0.53445188906E+02 -0.15816762618E+03  0.24735665275E+02  0.16877570715E+03  0.00000000000E+00 0.  1.
</event>
<event>
 7    1  0.5213103E-005  0.1766742E+03  0.7818608E-02  0.1239255E+00
          2   -1    0    0  502    0  0.00000000000E+00  0.00000000000E+00  0.83897426662E+03  0.83897426662E+03  0.00000000000E+00 0. -1.
          1   -1    0    0  501    0 -0.00000000000E+00 -0.00000000000E+00 -0.44002503823E+03  0.44002503823E+03  0.00000000000E+00 0. -1.
         25    2    1    2    0    0 -0.24634944947E+03  0.18793232492E+02  0.23140916877E+03  0.36085583035E+03  0.12500196025E+03 0.  0.
          2    1    1    2  501    0  0.16601982886E+03 -0.45781161490E+02 -0.35192953455E+03  0.39180721741E+03  0.00000000000E+00 0. -1.
          1    1    1    2  502    0  0.80329620612E+02  0.26987928997E+02  0.51946959418E+03  0.52633625709E+03  0.00000000000E+00 0. -1.
         22    1    3    3    0    0 -0.52843895174E+02 -0.45617489392E+02  0.36607638365E+02  0.78826085672E+02  0.00000000000E+00 0. -1.
         22    1    3    3    0    0 -0.19350555430E+03  0.64410721884E+02  0.19480153041E+03  0.28202974468E+03  0.00000000000E+00 0. -1.
</event>
<event>
 7    1  0.5213103E-005  0.7235359E+03  0.7818608E-02  0.1092896E+00
          2   -1    0    0  502    0  0.00000000000E+00  0.00000000000E+00  0.81460054291E+03  0.81460054291E+03  0.00000000000E+00 0. -1.
          1   -1    0    0  501    0 -0.00000000000E+00 -0.00000000000E+00 -0.14215911942E+04  0.14215911942E+04  0.00000000000E+00 0. -1.
         25    2    1    2    0    0  0.53198764162E+03  0.53080023422E+03  0.98642338704E+02  0.76818958593E+03  0.12500075781E+03 0.  0.
          2    1    1    2  501    0 -0.10915613631E+03  0.26804600619E+02 -0.75796690103E+03  0.76625542201E+03  0.00000000000E+00 0. -1.
          1    1    1    2  502    0 -0.42283150531E+03 -0.55760483484E+03  0.52333910994E+02  0.70174672921E+03  0.00000000000E+00 0. -1.
         22    1    3    3    0    0  0.59153708600E+02  0.33069612292E+02  0.41111164130E+02  0.79264672549E+02  0.00000000000E+00 0. -1.
         22    1    3    3    0    0  0.47283393302E+03  0.49773062193E+03  0.57531174574E+02  0.68892491338E+03  0.00000000000E+00 0. -1.
</event>
<event>
 7    1  0.5213103E-005  0.5668998E+03  0.7818608E-02  0.1231809E+00
          2   -1    0    0  502    0  0.00000000000E+00  0.00000000000E+00  0.12925976873E+04  0.12925976873E+04  0.00000000000E+00 0. -1.
          1   -1    0    0  501    0 -0.00000000000E+00 -0.00000000000E+00 -0.10559207601E+04  0.10559207601E+04  0.00000000000E+00 0. -1.
         25    2    1    2    0    0  0.51121538245E+03  0.25925975946E+03 -0.15028185150E+03  0.60561249848E+03  0.12500029320E+03 0.  0.
          2    1    1    2  501    0  0.51339435893E+01 -0.28034168423E+02 -0.60247156983E+03  0.60314530955E+03  0.00000000000E+00 0. -1.
          1    1    1    2  502    0 -0.51634932604E+03 -0.23122559104E+03  0.98943034852E+03  0.11397606394E+04  0.00000000000E+00 0. -1.
         22    1    3    3    0    0  0.33392370924E+03  0.10365998452E+03 -0.71190075615E+02  0.35681712802E+03  0.00000000000E+00 0.  1.
         22    1    3    3    0    0  0.17729167321E+03  0.15559977494E+03 -0.79091775889E+02  0.24879537047E+03  0.00000000000E+00 0.  1.
</event>
<event>
 7    1  0.5213103E-005  0.3237617E+03  0.7818608E-02  0.1267899E+00
          2   -1    0    0  502    0  0.00000000000E+00  0.00000000000E+00  0.97526993261E+03  0.97526993261E+03  0.00000000000E+00 0. -1.
          1   -1    0    0  501    0 -0.00000000000E+00 -0.00000000000E+00 -0.11800110326E+04  0.11800110326E+04  0.00000000000E+00 0. -1.
         25    2    1    2    0    0  0.12798312587E+03 -0.26758764995E+03 -0.93500671805E+02  0.33518681853E+03  0.12499998710E+03 0.  0.
          2    1    1    2  501    0 -0.13346194536E+03  0.30194675854E+03 -0.93707560597E+03  0.99352635957E+03  0.00000000000E+00 0. -1.
          1    1    1    2  502    0  0.54788194920E+01 -0.34359108587E+02  0.82583517779E+03  0.82656778711E+03  0.00000000000E+00 0. -1.
         22    1    3    3    0    0  0.87301495256E+01 -0.10492992002E+03  0.14688304635E+02  0.10631204033E+03  0.00000000000E+00 0.  1.
         22    1    3    3    0    0  0.11925297634E+03 -0.16265772993E+03 -0.10818897644E+03  0.22887477820E+03  0.00000000000E+00 0.  1.
</event>
<event>
 7    1  0.5213103E-005  0.3517920E+03  0.7818608E-02  0.1131778E+00
          2   -1    0    0  502    0  0.00000000000E+00  0.00000000000E+00  0.91143796924E+03  0.91143796924E+03  0.00000000000E+00 0. -1.
          1   -1    0    0  501    0 -0.00000000000E+00 -0.00000000000E+00 -0.11153249549E+04  0.11153249549E+04  0.00000000000E+00 0. -1.
         25    2    1    2    0    0  0.34609280265E+02  0.40646531408E+03  0.54238309528E+03  0.69008536984E+03  0.12500616700E+03 0.  0.
          2    1    1    2  501    0 -0.86064144631E+02 -0.11189669874E+03 -0.95923327275E+03  0.96956504667E+03  0.00000000000E+00 0. -1.
          1    1    1    2  502    0  0.51454864366E+02 -0.29456861534E+03  0.21296319178E+03  0.36711250764E+03  0.00000000000E+00 0. -1.
         22    1    3    3    0    0  0.75004209329E+02  0.16500876128E+03  0.24881669447E+03  0.30783643410E+03  0.00000000000E+00 0.  1.
         22    1    3    3    0    0 -0.40394929063E+02  0.24145655280E+03  0.29356640081E+03  0.38224893574E+03  0.00000000000E+00 0.  1.
</event>
<event>
 7    1  0.5213103E-005  0.6767712E+03  0.7818608E-02  0.1211820E+00
          2   -1    0    0  502    0  0.00000000000E+00  0.00000000000E+00  0.14923191480E+04  0.14923191480E+04  0.00000000000E+00 0. -1.
          1   -1    0    0  501    0 -0.00000000000E+00 -0.00000000000E+00 -0.99829610649E+03  0.99829610649E+03  0.00000000000E+00 0. -1.
         25    2    1    2    0    0 -0.47482644579E+03 -0.44545180189E+03  0.79073429927E+03  0.10318784325E+04  0.12499962377E+03 0.  0.
          2    1    1    2  501    0  0.49654187334E+03  0.46531461476E+03 -0.74527382311E+03  0.10092098860E+04  0.00000000000E+00 0. -1.
          1    1    1    2  502    0 -0.21715427542E+02 -0.19862812872E+02  0.44856256534E+03  0.44952693596E+03  0.00000000000E+00 0. -1.
         22    1    3    3    0    0 -0.32996820734E+03 -0.37215069628E+03  0.55021818523E+03  0.74169751918E+03  0.00000000000E+00 0.  1.
         22    1    3    3    0    0 -0.14485823846E+03 -0.73301105607E+02  0.24051611403E+03  0.29018091330E+03  0.00000000000E+00 0.  1.
</event>
<event>
 7    1  0.5213103E-005  0.1923502E+03  0.7818608E-02  0.1195563E+00
          2   -1    0    0  502    0  0.00000000000E+00  0.00000000000E+00  0.76490760943E+03  0.76490760943E+03  0.00000000000E+00 0. -1.
          1   -1    0    0  501    0 -0.00000000000E+00 -0.00000000000E+00 -0.19203518502E+03  0.19203518502E+03  0.00000000000E+00 0. -1.
         25    2    1    2    0    0 -0.26776955125E+03  0.68561794602E+02  0.49277101949E+03  0.57866173869E+03  0.12499951165E+03 0.  0.
          2    1    1    2  501    0  0.15014439987E+03 -0.10587927108E+03 -0.58398836768E+02  0.19278014678E+03  0.00000000000E+00 0. -1.
          1    1    1    2  502    0  0.11762515139E+03  0.37317476477E+02  0.13850024169E+03  0.18550090899E+03  0.00000000000E+00 0. -1.
         22    1    3    3    0    0 -0.22983899982E+03  0.61921433944E+02  0.30452419352E+03  0.38651677099E+03  0.00000000000E+00 0. -1.
         22    1    3    3    0    0 -0.37930551431E+02  0.66403606580E+01  0.18824682598E+03  0.19214496770E+03  0.00000000000E+00 0. -1.
</event>
<event>
 7    1  0.5213103E-005  0.7055842E+03  0.7818608E-02  0.1053462E+00
          2   -1    0    0  502    0  0.00000000000E+00  0.00000000000E+00  0.18655362641E+04  0.18655362641E+04  0.00000000000E+00 0. -1.
          1   -1    0    0  501    0 -0.00000000000E+00 -0.00000000000E+00 -0.91893218089E+03  0.91893218089E+03  0.00000000000E+00 0. -1.
         25    2    1    2    0    0  0.62374262641E+03  0.51054154400E+03 -0.28874804926E+03  0.86528191038E+03  0.12501926381E+03 0.  0.
          2    1    1    2  501    0 -0.47812240531E+03 -0.37722014938E+03 -0.57153830096E+02  0.61168834864E+03  0.00000000000E+00 0. -1.
          1    1    1    2  502    0 -0.14562022110E+03 -0.13332139462E+03  0.12925059625E+04  0.13074981859E+04  0.00000000000E+00 0. -1.
         22    1    3    3    0    0  0.19532478070E+03  0.88984661537E+02 -0.75634872580E+02  0.22757564434E+03  0.00000000000E+00 0. -1.
         22    1    3    3    0    0  0.42841784571E+03  0.42155688247E+03 -0.21311317668E+03  0.63770626604E+03  0.00000000000E+00 0. -1.
</event>
<event>
 7    1  0.5213103E-005  0.5108857E+03  0.7818608E-02  0.1200418E+00
          2   -1    0    0  502    0  0.00000000000E+00  0.00000000000E+00  0.73168618906E+03  0.73168618906E+03  0.00000000000E+00 0. -1.
          1   -1    0    0  501    0 -0.00000000000E+00 -0.00000000000E+00 -0.85228224804E+03  0.85228224804E+03  0.00000000000E+00 0. -1.
         25    2    1    2    0    0  0.47775807523E+03 -0.52809230090E+02 -0.83297180362E+02  0.50359147331E+03  0.12499743399E+03 0.  0.
          2    1    1    2  501    0  0.44067349835E+02 -0.10241520431E+00 -0.42554177324E+03  0.42781741734E+03  0.00000000000E+00 0. -1.
          1    1    1    2  502    0 -0.52182542506E+03  0.52911645295E+02  0.38824289461E+03  0.65255954645E+03  0.00000000000E+00 0. -1.
         22    1    3    3    0    0  0.10116565428E+03  0.40011880568E+02 -0.17812504241E+02  0.11023940085E+03  0.00000000000E+00 0.  1.
         22    1    3    3    0    0  0.37659242095E+03 -0.92821110658E+02 -0.65484676121E+02  0.39335207246E+03  0.00000000000E+00 0.  1.
</event>
<event>
 7    1  0.5213103E-005  0.2245061E+03  0.7818608E-02  0.1215315E+00
          2   -1    0    0  502    0  0.00000000000E+00  0.00000000000E+00  0.42565438844E+03  0.42565438844E+03  0.00000000000E+00 0. -1.
          1   -1    0    0  501    0 -0.00000000000E+00 -0.00000000000E+00 -0.30040611256E+04  0.30040611256E+04  0.00000000000E+00 0. -1.
         25    2    1    2    0    0 -0.28401723645E+02  0.22345061993E+03 -0.16260347477E+04  0.16463144846E+04  0.12500217699E+03 0.  0.
          2    1    1    2  501    0  0.85275291077E+02 -0.59743592077E+01 -0.13360178284E+04  0.13387498669E+04  0.00000000000E+00 0. -1.
          1    1    1    2  502    0 -0.56873567432E+02 -0.21747626072E+03  0.38364583890E+03  0.44465116255E+03  0.00000000000E+00 0. -1.
         22    1    3    3    0    0  0.31486044852E+01  0.20433469035E+03 -0.15273368528E+04  0.15409479035E+04  0.00000000000E+00 0. -1.
         22    1    3    3    0    0 -0.31550328130E+02  0.19115929585E+02 -0.98697894892E+02  0.10536658116E+03  0.00000000000E+00 0. -1.
</event>
<event>
 7    1  0.5213103E-005  0.2094405E+03  0.7818608E-02  0.1206653E+00
          2   -1    0    0  502    0  0.00000000000E+00  0.00000000000E+00  0.18064256676E+04  0.18064256676E+04  0.00000000000E+00 0. -1.
          1   -1    0    0  501    0 -0.00000000000E+00 -0.00000000000E+00 -0.45914816204E+03  0.45914816204E+03  0.00000000000E+00 0. -1.
         25    2    1    2    0    0 -0.45076988434E+02  0.28312728975E+03  0.28644454431E+03  0.42410987314E+03  0.12500284172E+03 0.  0.
          2    1    1    2  501    0 -0.16249806215E+02 -0.20351141422E+03 -0.36172402768E+03  0.41536155831E+03  0.00000000000E+00 0. -1.
          1    1    1    2  502    0  0.61326794650E+02 -0.79615875527E+02  0.14225569890E+04  0.14261023982E+04  0.00000000000E+00 0. -1.
         22    1    3    3    0    0 -0.86266195199E+02  0.14833281540E+03  0.16513764946E+03  0.23814895303E+03  0.00000000000E+00 0.  1.
         22    1    3    3    0    0  0.41189206764E+02  0.13479447435E+03  0.12130689485E+03  0.18596092011E+03  0.00000000000E+00 0.  1.
</event>
<event>
 7    1  0.5213103E-005  0.1497902E+03  0.7818608E-02  0.1397430E+00
          2   -1    0    0  502    0  0.00000000000E+00  0.00000000000E+00  0.29441578232E+03  0.29441578232E+03  0.00000000000E+00 0. -1.
          1   -1    0    0  501    0 -0.00000000000E+00 -0.00000000000E+00 -0.11400610808E+04  0.11400610808E+04  0.00000000000E+00 0. -1.
         25    2    1    2    0    0  0.47880987096E+02 -0.13998229952E+03  0.19658954970E+03  0.27596538899E+03  0.12498724642E+03 0.  0.
          2    1    1    2  501    0 -0.20026991784E+02 -0.13424960152E+02 -0.99543044894E+03  0.99572239536E+03  0.00000000000E+00 0. -1.
          1    1    1    2  502    0 -0.27853995312E+02  0.15340725967E+03 -0.46804399238E+02  0.16278907876E+03  0.00000000000E+00 0. -1.
         22    1    3    3    0    0  0.29988982833E+02 -0.47944616712E+02  0.16902881497E+03  0.17823794673E+03  0.00000000000E+00 0.  1.
         22    1    3    3    0    0  0.17892004263E+02 -0.92037682807E+02  0.27560734725E+02  0.97727442265E+02  0.00000000000E+00 0.  1.
</event>
<event>
 7    1  0.5213103E-005  0.4707861E+03  0.7818608E-02  0.1115706E+00
          2   -1    0    0  502    0  0.00000000000E+00  0.00000000000E+00  0.16076665717E+04  0.16076665717E+04  0.00000000000E+00 0. -1.
          1   -1    0    0  501    0 -0.00000000000E+00 -0.00000000000E+00 -0.12419456350E+04  0.12419456350E+04  0.00000000000E+00 0. -1.
         25    2    1    2    0    0 -0.44853528506E+02 -0.58608053385E+03  0.46207406010E+03  0.75805017972E+03  0.12500162711E+03 0.  0.
          2    1    1    2  501    0  0.57305305776E+02  0.45789238931E+03 -0.10407266166E+04  0.11384468493E+04  0.00000000000E+00 0. -1.
          1    1    1    2  502    0 -0.12451777269E+02  0.12818814454E+03  0.94437349322E+03  0.95311517764E+03  0.00000000000E+00 0. -1.
         22    1    3    3    0    0 -0.21501700228E+02 -0.14281384724E+02  0.65990912705E+01  0.26642617513E+02  0.00000000000E+00 0. -1.
         22    1    3    3    0    0 -0.23351828278E+02 -0.57179914912E+03  0.45547496883E+03  0.73140756221E+03  0.00000000000E+00 0. -1.
</event>
<event>
 7    1  0.5213103E-005  0.9917991E+03  0.7818608E-02  0.1061987E+00
          2   -1    0    0  502    0  0.00000000000E+00  0.00000000000E+00  0.10877833812E+04  0.10877833812E+04  0.00000000000E+00 0. -1.
          1   -1    0    0  501    0 -0.00000000000E+00 -0.00000000000E+00 -0.13549536887E+04  0.13549536887E+04  0.00000000000E+00 0. -1.
         25    2    1    2    0    0 -0.39069440537E+03 -0.97873103792E+03  0.15350153878E+03  0.10722615969E+04  0.12500258739E+03 0.  0.
          2    1    1    2  501    0  0.45177565864E+02  0.11611869819E+03 -0.42327691889E+03  0.44123453468E+03  0.00000000000E+00 0. -1.
          1    1    1    2  502    0  0.34551683951E+03  0.86261233972E+03  0.26050726300E+01  0.92924093831E+03  0.00000000000E+00 0. -1.
         22    1    3    3    0    0 -0.37282875608E+03 -0.96052481620E+03  0.13173981727E+03  0.10387322000E+04  0.00000000000E+00 0. -1.
         22    1    3    3    0    0 -0.17865649294E+02 -0.18206221721E+02  0.21761721510E+02  0.33529396910E+02  0.00000000000E+00 0. -1.
</event>
<event>
 7    1  0.7299897E-005  0.3842280E+03  0.7818608E-02  0.1222987E+00
          2   -1    0    0  502    0  0.00000000000E+00  0.00000000000E+00  0.18150812618E+04  0.18150812618E+04  0.00000000000E+00 0. -1.
          1   -1    0    0  501    0 -0.00000000000E+00 -0.00000000000E+00 -0.17781819796E+04  0.17781819796E+04  0.00000000000E+00 0. -1.
         25    2    1    2    0    0  0.25914073740E+03  0.26628494840E+03 -0.74748085210E+03  0.84404654402E+03  0.12500139476E+03 0.  0.
          2    1    1    2  501    0 -0.24539923664E+03 -0.31026635722E+03 -0.94227682778E+03  0.10219450171E+04  0.00000000000E+00 0. -1.
          1    1    1    2  502    0 -0.13741500763E+02  0.43981408819E+02  0.17266569621E+04  0.17272716804E+04  0.00000000000E+00 0. -1.
         22    1    3    3    0    0  0.90670641580E+02  0.34506995032E+02 -0.12055436218E+03  0.15474253517E+03  0.00000000000E+00 0. -1.
         22    1    3    3    0    0  0.16847009582E+03  0.23177795337E+03 -0.62692648992E+03  0.68930400885E+03  0.00000000000E+00 0. -1.
</event>
<event>
 7    1  0.5213103E-005  0.3204172E+03  0.7818608E-02  0.1276753E+00
          2   -1    0    0  502    0  0.00000000000E+00  0.00000000000E+00  0.15673286250E+04  0.15673286250E+04  0.00000000000E+00 0. -1.
          1   -1    0    0  501    0 -0.00000000000E+00 -0.00000000000E+00 -0.36628530787E+03  0.36628530787E+03  0.00000000000E+00 0. -1.
         25    2    1    2    0    0 -0.16371328570E+03 -0.25186976152E+03  0.34407633893E+02  0.32718396915E+03  0.12500019088E+03 0.  0.
          2    1    1    2  501    0 -0.31841515644E+02 -0.53140827477E+01 -0.19976247313E+03  0.20235406412E+03  0.00000000000E+00 0. -1.
          1    1    1    2  502    0  0.19555480134E+03  0.25718384426E+03  0.13663981564E+04  0.14040758996E+04  0.00000000000E+00 0. -1.
         22    1    3    3    0    0 -0.17742391789E+03 -0.22002232355E+03  0.53404636234E+02  0.28764757025E+03  0.00000000000E+00 0.  1.
         22    1    3    3    0    0  0.13710632192E+02 -0.31847437965E+02 -0.18997002341E+02  0.39536398900E+02  0.00000000000E+00 0.  1.
</event>
<event>
 7    1  0.5213103E-005  0.1418570E+03  0.7818608E-02  0.1390373E+00
          2   -1    0    0  502    0  0.00000000000E+00  0.00000000000E+00  0.15624732655E+03  0.15624732655E+03  0.00000000000E+00 0. -1.
          1   -1    0    0  501    0 -0.00000000000E+00 -0.00000000000E+00 -0.57298629861E+03  0.57298629861E+03  0.00000000000E+00 0. -1.
         25    2    1    2    0    0 -0.72979726475E+02 -0.11675512856E+03  0.15418999394E+02  0.18660160160E+03  0.12499844661E+03 0.  0.
          2    1    1    2  501    0 -0.26038038539E+02  0.68950400115E+01 -0.38708147467E+03  0.38801751128E+03  0.00000000000E+00 0. -1.
          1    1    1    2  502    0  0.99017765014E+02  0.10986008855E+03 -0.45076496778E+02  0.15461451228E+03  0.00000000000E+00 0. -1.
         22    1    3    3    0    0 -0.67384416411E+02 -0.35170364285E+01 -0.15192888867E+02  0.69165403146E+02  0.00000000000E+00 0.  1.
         22    1    3    3    0    0 -0.55953100643E+01 -0.11323809213E+03  0.30611888261E+02  0.11743619845E+03  0.00000000000E+00 0.  1.
</event>
<event>
 7    1  0.5213103E-005  0.3742130E+03  0.7818608E-02  0.1296438E+00
          2   -1    0    0  502    0  0.00000000000E+00  0.00000000000E+00  0.40827101764E+03  0.40827101764E+03  0.00000000000E+00 0. -1.
          1   -1    0    0  501    0 -0.00000000000E+00 -0.00000000000E+00 -0.10796604027E+04  0.10796604027E+04  0.00000000000E+00 0. -1.
         25    2    1    2    0    0  0.34391669280E+03 -0.18599939519E+03  0.17998498439E+03  0.44821128404E+03  0.12499717571E+03 0.  0.
          2    1    1    2  501    0 -0.32107887937E+03  0.18840784736E+03 -0.90652026236E+03  0.97998374976E+03  0.00000000000E+00 0. -1.
          1    1    1    2  502    0 -0.22837813429E+02 -0.24084521659E+01  0.55145892943E+02  0.59736386504E+02  0.00000000000E+00 0. -1.
         22    1    3    3    0    0  0.12269416587E+03 -0.92527693947E+02  0.10031538910E+02  0.15399955928E+03  0.00000000000E+00 0. -1.
         22    1    3    3    0    0  0.22122252693E+03 -0.93471701246E+02  0.16995344548E+03  0.29421172476E+03  0.00000000000E+00 0. -1.
</event>
<event>
 7    1  0.5213103E-005  0.1382134E+03  0.7818608E-02  0.1247514E+00
          2   -1    0    0  502    0  0.00000000000E+00  0.00000000000E+00  0.31919141347E+04  0.31919141347E+04  0.00000000000E+00 0. -1.
          1   -1    0    0  501    0 -0.00000000000E+00 -0.00000000000E+00 -0.10924482498E+04  0.10924482498E+04  0.00000000000E+00 0. -1.
         25    2    1    2    0    0  0.94551842036E+02  0.19571803655E+03  0.12493229397E+03  0.28014082141E+03  0.12500080432E+03 0.  0.
          2    1    1    2  501    0 -0.14862475030E+02 -0.13587802291E+03 -0.10094057745E+04  0.10186185488E+04  0.00000000000E+00 0. -1.
          1    1    1    2  502    0 -0.79689367007E+02 -0.59840013648E+02  0.29839393654E+04  0.29856030143E+04  0.00000000000E+00 0. -1.
         22    1    3    3    0    0  0.24134857541E+01  0.44656822259E+02  0.88973144466E+02  0.99580505742E+02  0.00000000000E+00 0.  1.
         22    1    3    3    0    0  0.92138356282E+02  0.15106121429E+03  0.35959149502E+02  0.18056031567E+03  0.00000000000E+00 0.  1.
</event>
<event>
 7    1  0.5213103E-005  0.3012748E+03  0.7818608E-02  0.1160269E+00
          2   -1    0    0  502    0  0.00000000000E+00  0.00000000000E+00  0.93317813187E+03  0.93317813187E+03  0.00000000000E+00 0. -1.
          1   -1    0    0  501    0 -0.00000000000E+00 -0.00000000000E+00 -0.30054857142E+03  0.30054857142E+03  0.00000000000E+00 0. -1.
         25    2    1    2    0    0 -0.28971592999E+03  0.16105821413E+03  0.18326193609E+03  0.39885522287E+03  0.12500193262E+03 0.  0.
          2    1    1    2  501    0  0.97760700180E+02  0.64872792668E+02 -0.13545135034E+03  0.17920017309E+03  0.00000000000E+00 0. -1.
          1    1    1    2  502    0  0.19195522981E+03 -0.22593100679E+03  0.58481897470E+03  0.65567130732E+03  0.00000000000E+00 0. -1.
         22    1    3    3    0    0 -0.62261916653E+02  0.28743246850E+01 -0.70652709101E+01  0.62727394819E+02  0.00000000000E+00 0. -1.
         22    1    3    3    0    0 -0.22745401334E+03  0.15818388944E+03  0.19032720700E+03  0.33612782805E+03  0.00000000000E+00 0. -1.
</event>
<event>
 7    1  0.5213103E-005  0.8449705E+02  0.7818608E-02  0.1329546E+00
          2   -1    0    0  502    0  0.00000000000E+00  0.00000000000E+00  0.97146527130E+03  0.97146527130E+03  0.00000000000E+00 0. -1.
          1   -1    0    0  501    0 -0.00000000000E+00 -0.00000000000E+00 -0.80437817359E+03  0.80437817359E+03  0.00000000000E+00 0. -1.
         25    2    1    2    0    0 -0.38529046205E+02 -0.25099404552E+02 -0.82603317986E+02  0.15671492793E+03  0.12498717127E+03 0.  0.
          2    1    1    2  501    0  0.81017361500E+02 -0.37205488716E+02 -0.68028428281E+03  0.68610113445E+03  0.00000000000E+00 0. -1.
          1    1    1    2  502    0 -0.42488315295E+02  0.62304893268E+02  0.92997469850E+03  0.93302738251E+03  0.00000000000E+00 0. -1.
         22    1    3    3    0    0 -0.51775193733E+02  0.39053699687E+02 -0.25067791124E+02  0.69528816308E+02  0.00000000000E+00 0.  1.
         22    1    3    3    0    0  0.13246147528E+02 -0.64153104240E+02 -0.57535526862E+02  0.87186111618E+02  0.00000000000E+00 0.  1.
</event>
<event>
 7    1  0.5213103E-005  0.2366733E+03  0.7818608E-02  0.1178271E+00
          2   -1    0    0  502    0  0.00000000000E+00  0.00000000000E+00  0.12724855821E+04  0.12724855821E+04  0.00000000000E+00 0. -1.
          1   -1    0    0  501    0 -0.00000000000E+00 -0.00000000000E+00 -0.15397562128E+04  0.15397562128E+04  0.00000000000E+00 0. -1.
         25    2    1    2    0    0  0.36130781630E+02 -0.26187859696E+03  0.54460225560E+03  0.61814368889E+03  0.12499668150E+03 0.  0.
          2    1    1    2  501    0 -0.11355307492E+03  0.43298125347E+02 -0.14809751382E+04  0.14859530236E+04  0.00000000000E+00 0. -1.
          1    1    1    2  502    0  0.77422293291E+02  0.21858047161E+03  0.66910225190E+03  0.70814508229E+03  0.00000000000E+00 0. -1.
         22    1    3    3    0    0 -0.36465602211E+02 -0.79577584072E+02  0.24340787296E+03  0.25866914128E+03  0.00000000000E+00 0. -1.
         22    1    3    3    0    0  0.72596383842E+02 -0.18230101289E+03  0.30119438264E+03  0.35947454761E+03  0.00000000000E+00 0. -1.
</event>
<event>
 7    1  0.5213103E-005  0.3475304E+03  0.7818608E-02  0.1159650E+00
          2   -1    0    0  502    0  0.00000000000E+00  0.00000000000E+00  0.32756552396E+04  0.32756552396E+04  0.00000000000E+00 0. -1.
          1   -1    0    0  501    0 -0.00000000000E+00 -0.00000000000E+00 -0.78346899080E+03  0.78346899080E+03  0.00000000000E+00 0. -1.
         25    2    1    2    0    0 -0.44142248904E+03  0.62254044877E+02 -0.47913369494E+03  0.66627565607E+03  0.12499908923E+03 0.  0.
          2    1    1    2  501    0  0.96660133192E+02 -0.33941950855E+02 -0.18829162711E+03  0.21435711842E+03  0.00000000000E+00 0. -1.
          1    1    1    2  502    0  0.34476235585E+03 -0.28312094022E+02  0.31596115708E+04  0.31784914559E+04  0.00000000000E+00 0. -1.
         22    1    3    3    0    0 -0.34952786999E+02 -0.24687784375E+02 -0.20964605576E+02  0.47651848897E+02  0.00000000000E+00 0. -1.
         22    1    3    3    0    0 -0.40646970204E+03  0.86941829252E+02 -0.45816908936E+03  0.61862380717E+03  0.00000000000E+00 0. -1.
</event>
<event>
 7    1  0.5213103E-005  0.7417475E+02  0.7818608E-02  0.1466853E+00
          2   -1    0    0  502    0  0.00000000000E+00  0.00000000000E+00  0.86623409728E+02  0.86623409728E+02  0.00000000000E+00 0. -1.
          1   -1    0    0  501    0 -0.00000000000E+00 -0.00000000000E+00 -0.34509924279E+03  0.34509924279E+03  0.00000000000E+00 0. -1.
         25    2    1    2    0    0 -0.50753915354E+02  0.13622325921E+02 -0.20404800190E+03  0.24500109471E+03  0.12501368582E+03 0.  0.
          2    1    1    2  501    0 -0.15879454513E+02  0.24030912624E+02 -0.95578431515E+02  0.99824237578E+02  0.00000000000E+00 0. -1.
          1    1    1    2  502    0  0.66633369867E+02 -0.37653238545E+02  0.41150600356E+02  0.86897320226E+02  0.00000000000E+00 0. -1.
         22    1    3    3    0    0 -0.30720446961E+02  0.67682928037E+02 -0.14216581058E+03  0.16042394555E+03  0.00000000000E+00 0.  1.
         22    1    3    3    0    0 -0.20033468393E+02 -0.54060602117E+02 -0.61882191324E+02  0.84577149161E+02  0.00000000000E+00 0.  1.
</event>
<event>
 7    1  0.5213103E-005  0.1940310E+03  0.7818608E-02  0.1293705E+00
          2   -1    0    0  502    0  0.00000000000E+00  0.00000000000E+00  0.28881011812E+04  0.28881011812E+04  0.00000000000E+00 0. -1.
          1   -1    0    0  501    0 -0.00000000000E+00 -0.00000000000E+00 -0.62614632826E+03  0.62614632826E+03  0.00000000000E+00 0. -1.
         25    2    1    2    0    0  0.16695384724E+03  0.69043513696E+02 -0.36311324709E+03  0.42440228227E+03  0.12500189236E+03 0.  0.
          2    1    1    2  501    0 -0.18783587734E+03 -0.10938854303E+03 -0.18133564327E+03  0.28307381667E+03  0.00000000000E+00 0. -1.
          1    1    1    2  502    0  0.20882030100E+02  0.40345029338E+02  0.28064037433E+04  0.28067714105E+04  0.00000000000E+00 0. -1.
         22    1    3    3    0    0  0.35619870533E+02 -0.22348468974E+02 -0.21618715823E+02  0.47282112010E+02  0.00000000000E+00 0.  1.
         22    1    3    3    0    0  0.13133397670E+03  0.91391982670E+02 -0.34149453126E+03  0.37712017026E+03  0.00000000000E+00 0.  1.
</event>
<event>
 7    1  0.5213103E-005  0.7705716E+03  0.7818608E-02  0.1136929E+00
          2   -1    0    0  502    0  0.00000000000E+00  0.00000000000E+00  0.21860061365E+04  0.21860061365E+04  0.00000000000E+00 0. -1.
          1   -1    0    0  501    0 -0.00000000000E+00 -0.00000000000E+00 -0.97352012517E+03  0.97352012517E+03  0.00000000000E+00 0. -1.
         25    2    1    2    0    0  0.41806842655E+03  0.68194495440E+03  0.62948031097E+03  0.10255218305E+04  0.12497772892E+03 0.  0.
          2    1    1    2  501    0 -0.57783067586E+02 -0.18016022777E+02 -0.66902103886E+03  0.67175338511E+03  0.00000000000E+00 0. -1.
          1    1    1    2  502    0 -0.36028535897E+03 -0.66392893162E+03  0.12520267392E+04  0.14622510461E+04  0.00000000000E+00 0. -1.
         22    1    3    3    0    0  0.15251781061E+03  0.36305691219E+03  0.32969728352E+03  0.51358767782E+03  0.00000000000E+00 0. -1.
         22    1    3    3    0    0  0.26555061594E+03  0.31888804221E+03  0.29978302744E+03  0.51193415264E+03  0.00000000000E+00 0. -1.
</event>
<event>
 7    1  0.5213103E-005  0.2264550E+03  0.7818608E-02  0.1285936E+00
          2   -1    0    0  502    0  0.00000000000E+00  0.00000000000E+00  0.23484530012E+04  0.23484530012E+04  0.00000000000E+00 0. -1.
          1   -1    0    0  501    0 -0.00000000000E+00 -0.00000000000E+00 -0.75398374412E+02  0.75398374412E+02  0.00000000000E+00 0. -1.
         25    2    1    2    0    0  0.17206708821E+03  0.20073330465E+03  0.27903543849E+03  0.40421665672E+03  0.12501754756E+03 0.  0.
          2    1    1    2  501    0 -0.25667954365E+02 -0.33070350256E+02  0.61840100770E+02  0.74677238906E+02  0.00000000000E+00 0. -1.
          1    1    1    2  502    0 -0.14639913384E+03 -0.16766295439E+03  0.19321790875E+04  0.19449574800E+04  0.00000000000E+00 0. -1.
         22    1    3    3    0    0  0.90066365422E+02  0.18725326756E+03  0.21757922343E+03  0.30085952679E+03  0.00000000000E+00 0. -1.
         22    1    3    3    0    0  0.82000722788E+02  0.13480037082E+02  0.61456215060E+02  0.10335712993E+03  0.00000000000E+00 0. -1.
</event>
<event>
 7    1  0.5213103E-005  0.6149217E+03  0.7818608E-02  0.1230008E+00
          2   -1    0    0  502    0  0.00000000000E+00  0.00000000000E+00  0.90734949570E+03  0.90734949570E+03  0.00000000000E+00 0. -1.
          1   -1    0    0  501    0 -0.00000000000E+00 -0.00000000000E+00 -0.93349695636E+03  0.93349695636E+03  0.00000000000E+00 0. -1.
         25    2    1    2    0    0 -0.51350795984E+03  0.34659903411E+03  0.31295923480E+03  0.70525860711E+03  0.12499962000E+03 0.  0.
          2    1    1    2  501    0  0.22376277760E+02  0.14689180369E+02 -0.50341953158E+03  0.50413063248E+03  0.00000000000E+00 0. -1.
          1    1    1    2  502    0  0.49113168208E+03 -0.36128821448E+03  0.16431283612E+03  0.63145721247E+03  0.00000000000E+00 0. -1.
         22    1    3    3    0    0 -0.53929096544E+01  0.34979015134E+02  0.24669475752E+02  0.43141604145E+02  0.00000000000E+00 0. -1.
         22    1    3    3    0    0 -0.50811505018E+03  0.31162001898E+03  0.28828975905E+03  0.66211700297E+03  0.00000000000E+00 0. -1.
</event>
<event>
 7    1  0.5213103E-005  0.1487193E+03  0.7818608E-02  0.1225095E+00
          2   -1    0    0  502    0  0.00000000000E+00  0.00000000000E+00  0.13506096858E+04  0.13506096858E+04  0.00000000000E+00 0. -1.
          1   -1    0    0  501    0 -0.00000000000E+00 -0.00000000000E+00 -0.75908820512E+03  0.75908820512E+03  0.00000000000E+00 0. -1.
         25    2    1    2    0    0 -0.95375619646E+02  0.22655803207E+03  0.14224005579E+03  0.31029043789E+03  0.12499148633E+03 0.  0.
          2    1    1    2  501    0  0.81374159261E+02 -0.83310778560E+02 -0.66537868203E+03  0.67549332352E+03  0.00000000000E+00 0. -1.
          1    1    1    2  502    0  0.14001460385E+02 -0.14324725351E+03  0.11146601069E+04  0.11239141295E+04  0.00000000000E+00 0. -1.
         22    1    3    3    0    0 -0.49772579413E+02  0.22182146520E+03  0.13343632856E+03  0.26360448757E+03  0.00000000000E+00 0. -1.
         22    1    3    3    0    0 -0.45603040233E+02  0.47365668632E+01  0.88037272324E+01  0.46685950320E+02  0.00000000000E+00 0. -1.
</event>
<event>
 7    1  0.8995487E-005  0.8736896E+02  0.7818608E-02  0.1364897E+00
          2   -1    0    0  502    0  0.00000000000E+00  0.00000000000E+00  0.19706920719E+04  0.19706920719E+04  0.00000000000E+00 0. -1.
          1   -1    0    0  501    0 -0.00000000000E+00 -0.00000000000E+00 -0.78547776092E+03  0.78547776092E+03  0.00000000000E+00 0. -1.
         25    2    1    2    0    0 -0.39434057981E+02 -0.30394928716E+01 -0.44418683516E+02  0.13842437936E+03  0.12499602357E+03 0.  0.
          2    1    1    2  501    0 -0.38493601305E+02 -0.37690399677E+02 -0.69200395112E+03  0.69409782591E+03  0.00000000000E+00 0. -1.
          1    1    1    2  502    0  0.77927659287E+02  0.40729892548E+02  0.19216369456E+04  0.19236476275E+04  0.00000000000E+00 0. -1.
         22    1    3    3    0    0 -0.69206117337E+02 -0.18873827077E+01  0.16001914644E+02  0.71057090868E+02  0.00000000000E+00 0.  1.
         22    1    3    3    0    0  0.29772059356E+02 -0.11521101639E+01 -0.60420598160E+02  0.67367288487E+02  0.00000000000E+00 0.  1.
</event>
<event>
 7    1  0.5213103E-005  0.5986488E+03  0.7818608E-02  0.1159230E+00
          2   -1    0    0  502    0  0.00000000000E+00  0.00000000000E+00  0.36788493709E+03  0.36788493709E+03  0.00000000000E+00 0. -1.
          1   -1    0    0  501    0 -0.00000000000E+00 -0.00000000000E+00 -0.18178932898E+04  0.18178932898E+04  0.00000000000E+00 0. -1.
         25    2    1    2    0    0  0.62137799257E+03 -0.19767310278E+02 -0.54194760837E+03  0.83416590996E+03  0.12499679559E+03 0.  0.
          2    1    1    2  501    0 -0.58652823906E+03 -0.28784588141E+02 -0.10469585866E+04  0.12004025199E+04  0.00000000000E+00 0. -1.
          1    1    1    2  502    0 -0.34849753518E+02  0.48551898419E+02  0.13889784221E+03  0.15120979707E+03  0.00000000000E+00 0. -1.
         22    1    3    3    0    0  0.32211656762E+03 -0.39309443909E+02 -0.20860428431E+03  0.38577203495E+03  0.00000000000E+00 0.  1.
         22    1    3    3    0    0  0.29926142496E+03  0.19542133631E+02 -0.33334332406E+03  0.44839387501E+03  0.00000000000E+00 0.  1.
</event>
<event>
 7    1  0.5213103E-005  0.6429254E+03  0.7818608E-02  0.1095142E+00
          2   -1    0    0  502    0  0.00000000000E+00  0.00000000000E+00  0.25636427487E+04  0.25636427487E+04  0.00000000000E+00 0. -1.
          1   -1    0    0  501    0 -0.00000000000E+00 -0.00000000000E+00 -0.14916793337E+04  0.14916793337E+04  0.00000000000E+00 0. -1.
         25    2    1    2    0    0 -0.53545066130E+03  0.25151143839E+03 -0.61117877552E+03  0.85972807957E+03  0.12500984288E+03 0.  0.
          2    1    1    2  501    0  0.65436165488E+03 -0.28224617348E+03 -0.58630564666E+03  0.92282522134E+03  0.00000000000E+00 0. -1.
          1    1    1    2  502    0 -0.11891099358E+03  0.30734735087E+02  0.22694478372E+04  0.22727687815E+04  0.00000000000E+00 0. -1.
         22    1    3    3    0    0 -0.17196383134E+03  0.43579032864E+02 -0.25111242140E+03  0.30745428860E+03  0.00000000000E+00 0.  1.
         22    1    3    3    0    0 -0.36348682995E+03  0.20793240553E+03 -0.36006635412E+03  0.55227379097E+03  0.00000000000E+00 0.  1.
</event>
<event>
 7    1  0.5213103E-005  0.2484243E+03  0.7818608E-02  0.1145579E+00
          2   -1    0    0  502    0  0.00000000000E+00  0.00000000000E+00  0.19358329479E+04  0.19358329479E+04  0.00000000000E+00 0. -1.
          1   -1    0    0  501    0 -0.00000000000E+00 -0.00000000000E+00 -0.29799613914E+03  0.29799613914E+03  0.00000000000E+00 0. -1.
         25    2    1    2    0    0  0.25444441086E+03  0.18534072345E+03 -0.11705480578E+03  0.35834984415E+03  0.12497856319E+03 0.  0.
          2    1    1    2  501    0 -0.16312592626E+03  0.44871222848E+02  0.88785205449E+02  0.19106623763E+03  0.00000000000E+00 0. -1.
          1    1    1    2  502    0 -0.91318484605E+02 -0.23021194630E+03  0.16661064091E+04  0.16844130052E+04  0.00000000000E+00 0. -1.
         22    1    3    3    0    0  0.24381990611E+03  0.18128745682E+03 -0.72492433890E+02  0.31235947494E+03  0.00000000000E+00 0.  1.
         22    1    3    3    0    0  0.10624504757E+02  0.40532666382E+01 -0.44562371889E+02  0.45990369211E+02  0.00000000000E+00 0.  1.
</event>
<event>
 7    1  0.5213103E-005  0.1686263E+04  0.7818608E-02  0.1068724E+00
          2   -1    0    0  502    0  0.00000000000E+00  0.00000000000E+00  0.31464042040E+04  0.31464042040E+04  0.00000000000E+00 0. -1.
          1   -1    0    0  501    0 -0.00000000000E+00 -0.00000000000E+00 -0.15332529327E+04  0.15332529327E+04  0.00000000000E+00 0. -1.
         25    2    1    2    0    0  0.50116956762E+03 -0.16097166700E+04  0.21367099830E+03  0.17040067655E+04  0.12500027333E+03 0.  0.
          2    1    1    2  501    0 -0.43742148906E+03  0.16295290230E+04  0.11682279867E+03  0.16912569178E+04  0.00000000000E+00 0. -1.
          1    1    1    2  502    0 -0.63748078567E+02 -0.19812352990E+02  0.12826574743E+04  0.12843934534E+04  0.00000000000E+00 0. -1.
         22    1    3    3    0    0  0.44871805527E+03 -0.14924866755E+04  0.22684347358E+03  0.15749039118E+04  0.00000000000E+00 0.  1.
         22    1    3    3    0    0  0.52451512357E+02 -0.11722999442E+03 -0.13172475282E+02  0.12910285375E+03  0.00000000000E+00 0.  1.
</event>
<event>
 7    1  0.6365301E-005  0.4956378E+03  0.7818608E-02  0.1171816E+00
          2   -1    0    0  502    0  0.00000000000E+00  0.00000000000E+00  0.89007795318E+03  0.89007795318E+03  0.00000000000E+00 0. -1.
          1   -1    0    0  501    0 -0.00000000000E+00 -0.00000000000E+00 -0.21227389018E+04  0.21227389018E+04  0.00000000000E+00 0. -1.
         25    2    1    2    0    0 -0.26709638555E+03  0.37553122893E+03 -0.10157708681E+04  0.11223988037E+04  0.12499774016E+03 0.  0.
          2    1    1    2  501    0 -0.62410014461E+02 -0.18365469693E+01 -0.97840932839E+03  0.98039950872E+03  0.00000000000E+00 0. -1.
          1    1    1    2  502    0  0.32950640001E+03 -0.37369468196E+03  0.76151924785E+03  0.91001854257E+03  0.00000000000E+00 0. -1.
         22    1    3    3    0    0 -0.62945467052E+02  0.15253444307E+03 -0.25475670642E+03  0.30352902268E+03  0.00000000000E+00 0. -1.
         22    1    3    3    0    0 -0.20415091850E+03  0.22299678586E+03 -0.76101416164E+03  0.81886978101E+03  0.00000000000E+00 0. -1.
</event>
<event>
 7    1  0.5213103E-005  0.4957845E+03  0.7818608E-02  0.1167731E+00
          2   -1    0    0  502    0  0.00000000000E+00  0.00000000000E+00  0.11485782117E+04  0.11485782117E+04  0.00000000000E+00 0. -1.
          1   -1    0    0  501    0 -0.00000000000E+00 -0.00000000000E+00 -0.79482627468E+03  0.79482627468E+03  0.00000000000E+00 0. -1.
         25    2    1    2    0    0 -0.22642509271E+03 -0.45379853376E+03 -0.39751850055E+02  0.52383879539E+03  0.12500176846E+03 0.  0.
          2    1    1    2  501    0  0.27354166658E+03  0.40843532589E+03 -0.39360909571E+03  0.62974008847E+03  0.00000000000E+00 0. -1.
          1    1    1    2  502    0 -0.47116573870E+02  0.45363207871E+02  0.78711288277E+03  0.78982560251E+03  0.00000000000E+00 0. -1.
         22    1    3    3    0    0 -0.22936887823E+03 -0.37810368112E+03 -0.96961955277E+01  0.44234205338E+03  0.00000000000E+00 0.  1.
         22    1    3    3    0    0  0.29437855183E+01 -0.75694852642E+02 -0.30055654528E+02  0.81496742013E+02  0.00000000000E+00 0.  1.
</event>
<event>
 7    1  0.5213103E-005  0.1443587E+03  0.7818608E-02  0.1227594E+00
          2   -1    0    0  502    0  0.00000000000E+00  0.00000000000E+00  0.74520822706E+03  0.74520822706E+03  0.00000000000E+00 0. -1.
          1   -1    0    0  501    0 -0.00000000000E+00 -0.00000000000E+00 -0.22827683150E+03  0.22827683150E+03  0.00000000000E+00 0. -1.
         25    2    1    2    0    0  0.17552523468E+03 -0.17649179865E+03  0.17897177594E+03  0.33107968312E+03  0.12499758794E+03 0.  0.
          2    1    1    2  501    0 -0.92338042575E+02  0.94357998379E+02 -0.11470370903E+03  0.17489049954E+03  0.00000000000E+00 0. -1.
          1    1    1    2  502    0 -0.83187192110E+02  0.82133800273E+02  0.45266332865E+03  0.46751487589E+03  0.00000000000E+00 0. -1.
         22    1    3    3    0    0  0.16172774771E+03 -0.19293287392E+03  0.18017337337E+03  0.30958262660E+03  0.00000000000E+00 0.  1.
         22    1    3    3    0    0  0.13797486971E+02  0.16441075268E+02 -0.12015974356E+01  0.21497056522E+02  0.00000000000E+00 0.  1.
</event>
<event>
 7    1  0.5213103E-005  0.5709570E+02  0.7818608E-02  0.1427999E+00
          2   -1    0    0  502    0  0.00000000000E+00  0.00000000000E+00  0.42457328480E+04  0.42457328480E+04  0.00000000000E+00 0. -1.
          1   -1    0    0  501    0 -0.00000000000E+00 -0.00000000000E+00 -0.99840292963E+03  0.99840292963E+03  0.00000000000E+00 0. -1.
         25    2    1    2    0    0 -0.62898918487E+02  0.25014879339E+01  0.32532733730E+03  0.35415707979E+03  0.12500731733E+03 0.  0.
          2    1    1    2  501    0  0.26829056799E+02  0.42045179162E+02 -0.98314558839E+03  0.98440989600E+03  0.00000000000E+00 0. -1.
          1    1    1    2  502    0  0.36069861689E+02 -0.44546667096E+02  0.39051481695E+04  0.39055688019E+04  0.00000000000E+00 0. -1.
         22    1    3    3    0    0  0.23260322699E+02  0.12008087273E+02  0.20039967531E+03  0.20210211933E+03  0.00000000000E+00 0.  1.
         22    1    3    3    0    0 -0.86159241187E+02 -0.95065993390E+01  0.12492766198E+03  0.15205496046E+03  0.00000000000E+00 0.  1.
</event>
<event>
 7    1  0.5213103E-005  0.2229406E+03  0.7818608E-02  0.1193193E+00
          2   -1    0    0  502    0  0.00000000000E+00  0.00000000000E+00  0.58083565269E+03  0.58083565269E+03  0.00000000000E+00 0. -1.
          1   -1    0    0  501    0 -0.00000000000E+00 -0.00000000000E+00 -0.10844839723E+04  0.10844839723E+04  0.00000000000E+00 0. -1.
         25    2    1    2    0    0 -0.16476993205E+03 -0.78800069888E+02 -0.47633556090E+03  0.52524130368E+03  0.12499711593E+03 0.  0.
          2    1    1    2  501    0  0.27366148816E+03  0.69669494907E+02 -0.54348258747E+03  0.61246858818E+03  0.00000000000E+00 0. -1.
          1    1    1    2  502    0 -0.10889155611E+03  0.91305749804E+01  0.51616982875E+03  0.52760973314E+03  0.00000000000E+00 0. -1.
         22    1    3    3    0    0 -0.13373600561E+03 -0.10714222721E+03 -0.42889754004E+03  0.46186348188E+03  0.00000000000E+00 0. -1.
         22    1    3    3    0    0 -0.31033926442E+02  0.28342157322E+02 -0.47438020862E+02  0.63377821795E+02  0.00000000000E+00 0. -1.
</event>
<event>
 7    1  0.5213103E-005  0.2699453E+03  0.7818608E-02  0.1181841E+00
          2   -1    0    0  502    0  0.00000000000E+00  0.00000000000E+00  0.48349731557E+03  0.48349731557E+03  0.00000000000E+00 0. -1.
          1   -1    0    0  501    0 -0.00000000000E+00 -0.00000000000E+00 -0.79555006205E+03  0.79555006205E+03  0.00000000000E+00 0. -1.
         25    2    1    2    0    0 -0.11250136626E+03 -0.32517378844E+03 -0.99044504158E+02  0.37924882110E+03  0.12500121762E+03 0.  0.
          2    1    1    2  501    0  0.41221063043E+02  0.25171329482E+03 -0.51837691906E+03  0.57773124292E+03  0.00000000000E+00 0. -1.
          1    1    1    2  502    0  0.71280303212E+02  0.73460493620E+02  0.30536867674E+03  0.32206731359E+03  0.00000000000E+00 0. -1.
         22    1    3    3    0    0 -0.43700839540E+02 -0.18417593306E+03  0.77732247423E+01  0.18944909796E+03  0.00000000000E+00 0. -1.
         22    1    3    3    0    0 -0.68800526716E+02 -0.14099785538E+03 -0.10681772890E+03  0.18979972315E+03  0.00000000000E+00 0. -1.
</event>
<event>
 7    1  0.5213103E-005  0.2700819E+03  0.7818608E-02  0.1118727E+00
          2   -1    0    0  502    0  0.00000000000E+00  0.00000000000E+00  0.19624124575E+04  0.19624124575E+04  0.00000000000E+00 0. -1.
          1   -1    0    0  501    0 -0.00000000000E+00 -0.00000000000E+00 -0.63022662756E+03  0.63022662756E+03  0.00000000000E+00 0. -1.
         25    2    1    2    0    0  0.96191542232E+02 -0.42887015545E+03  0.56890510538E+03  0.72969934220E+03  0.12500275218E+03 0.  0.
          2    1    1    2  501    0 -0.11618550689E+03  0.18225044186E+03 -0.51626956607E+03  0.55968612670E+03  0.00000000000E+00 0. -1.
          1    1    1    2  502    0  0.19993964653E+02  0.24661971359E+03  0.12795502907E+04  0.13032536162E+04  0.00000000000E+00 0. -1.
         22    1    3    3    0    0  0.49270796183E+02 -0.20860666596E+03  0.37765371652E+03  0.43424265341E+03  0.00000000000E+00 0.  1.
         22    1    3    3    0    0  0.46920746049E+02 -0.22026348949E+03  0.19125138886E+03  0.29545668879E+03  0.00000000000E+00 0.  1.
</event>
<event>
 7    1  0.5213103E-005  0.3607284E+03  0.7818608E-02  0.1186405E+00
          2   -1    0    0  502    0  0.00000000000E+00  0.00000000000E+00  0.16023288199E+04  0.16023288199E+04  0.00000000000E+00 0. -1.
          1   -1    0    0  501    0 -0.00000000000E+00 -0.00000000000E+00 -0.20955652897E+03  0.20955652897E+03  0.00000000000E+00 0. -1.
         25    2    1    2    0    0 -0.31170338137E+03  0.22533684835E+03  0.10078772612E+04  0.10859913111E+04  0.12499944351E+03 0.  0.
          2    1    1    2  501    0  0.18319137961E+02 -0.70452564650E+02 -0.10890703030E+03  0.13099578592E+03  0.00000000000E+00 0. -1.
          1    1    1    2  502    0  0.29338424340E+03 -0.15488428370E+03  0.49380206003E+03  0.59489825189E+03  0.00000000000E+00 0. -1.
         22    1    3    3    0    0 -0.29540755378E+03  0.21946668104E+03  0.10024097825E+04  0.10678279913E+04  0.00000000000E+00 0. -1.
         22    1    3    3    0    0 -0.16295827588E+02  0.58701673098E+01  0.54674786560E+01  0.18163319737E+02  0.00000000000E+00 0. -1.
</event>
<event>
 7    1  0.5213103E-005  0.1138042E+03  0.7818608E-02  0.1312088E+00
          2   -1    0    0  502    0  0.00000000000E+00  0.00000000000E+00  0.58574254249E+03  0.58574254249E+03  0.00000000000E+00 0. -1.
          1   -1    0    0  501    0 -0.00000000000E+00 -0.00000000000E+00 -0.74460587596E+02  0.74460587596E+02  0.00000000000E+00 0. -1.
         25    2    1    2    0    0  0.12508425122E+03 -0.78802449015E+02  0.12211995262E+03  0.22889978733E+03  0.12500373569E+03 0.  0.
          2    1    1    2  501    0 -0.88937110463E+02  0.24262806196E+02  0.10509366104E+03  0.13979689186E+03  0.00000000000E+00 0. -1.
          1    1    1    2  502    0 -0.36147140761E+02  0.54539642819E+02  0.28406834123E+03  0.29150645090E+03  0.00000000000E+00 0. -1.
         22    1    3    3    0    0  0.90698504231E+01  0.31431209850E+02  0.12988634113E+02  0.35197837369E+02  0.00000000000E+00 0. -1.
         22    1    3    3    0    0  0.11601440080E+03 -0.11023365887E+03  0.10913131851E+03  0.19370194996E+03  0.00000000000E+00 0. -1.
</event>
<event>
 7    1  0.5213103E-005  0.6409400E+03  0.7818608E-02  0.1066478E+00
          2   -1    0    0  502    0  0.00000000000E+00  0.00000000000E+00  0.80748547087E+03  0.80748547087E+03  0.00000000000E+00 0. -1.
          1   -1    0    0  501    0 -0.00000000000E+00 -0.00000000000E+00 -0.30869570185E+04  0.30869570185E+04  0.00000000000E+00 0. -1.
         25    2    1    2    0    0  0.24798002805E+03  0.63057077089E+03 -0.17107784289E+04  0.18443158773E+04  0.12499852439E+03 0.  0.
          2    1    1    2  501    0 -0.18106241484E+03  0.57647563956E+01 -0.11628992399E+04  0.11769245824E+04  0.00000000000E+00 0. -1.
          1    1    1    2  502    0 -0.66917613211E+02 -0.63633552729E+03  0.59420612114E+03  0.87320202969E+03  0.00000000000E+00 0. -1.
         22    1    3    3    0    0  0.25023357930E+03  0.54644565962E+03 -0.15577829114E+04  0.16697027587E+04  0.00000000000E+00 0. -1.
         22    1    3    3    0    0 -0.22535512541E+01  0.84125111272E+02 -0.15299551747E+03  0.17461311865E+03  0.00000000000E+00 0. -1.
</event>
<event>
 7    1  0.5213103E-005  0.7970535E+03  0.7818608E-02  0.1180333E+00
          2   -1    0    0  502    0  0.00000000000E+00  0.00000000000E+00  0.12795779231E+04  0.12795779231E+04  0.00000000000E+00 0. -1.
          1   -1    0    0  501    0 -0.00000000000E+00 -0.00000000000E+00 -0.17892679402E+04  0.17892679402E+04  0.00000000000E+00 0. -1.
         25    2    1    2    0    0 -0.61768617111E+03  0.49405261144E+03  0.88980596655E+03  0.11970815558E+04  0.12500161672E+03 0.  0.
          2    1    1    2  501    0 -0.23357041658E+02  0.26411829871E+02 -0.91239104737E+03  0.91307204506E+03  0.00000000000E+00 0. -1.
          1    1    1    2  502    0  0.64104321277E+03 -0.52046444131E+03 -0.48710493623E+03  0.95869226252E+03  0.00000000000E+00 0. -1.
         22    1    3    3    0    0 -0.38738421810E+03  0.24116489627E+03  0.55424240796E+03  0.71792178293E+03  0.00000000000E+00 0. -1.
         22    1    3    3    0    0 -0.23030195301E+03  0.25288771517E+03  0.33556355859E+03  0.47915977283E+03  0.00000000000E+00 0. -1.
</event>
<event>
 7    1  0.5213103E-005  0.2311656E+03  0.7818608E-02  0.1150958E+00
          2   -1    0    0  502    0  0.00000000000E+00  0.00000000000E+00  0.72040848721E+03  0.72040848721E+03  0.00000000000E+00 0. -1.
          1   -1    0    0  501    0 -0.00000000000E+00 -0.00000000000E+00 -0.40876057159E+03  0.40876057159E+03  0.00000000000E+00 0. -1.
         25    2    1    2    0    0 -0.34984851773E+03 -0.77209729851E+02 -0.60460917306E+02  0.38423393451E+03  0.12499946466E+03 0.  0.
          2    1    1    2  501    0  0.18929065145E+03  0.19673195450E+02 -0.11940704882E+03  0.22466870867E+03  0.00000000000E+00 0. -1.
          1    1    1    2  502    0  0.16055786627E+03  0.57536534400E+02  0.49151588174E+03  0.52026641562E+03  0.00000000000E+00 0. -1.
         22    1    3    3    0    0 -0.20703556760E+03 -0.97831045769E+02 -0.70494187466E+02  0.23959146528E+03  0.00000000000E+00 0.  1.
         22    1    3    3    0    0 -0.14281295013E+03  0.20621315919E+02  0.10033270160E+02  0.14464246923E+03  0.00000000000E+00 0.  1.
</event>
<event>
 7    1  0.5213103E-005  0.7078915E+02  0.7818608E-02  0.1428987E+00
          2   -1    0    0  502    0  0.00000000000E+00  0.00000000000E+00  0.21868582417E+04  0.21868582417E+04  0.00000000000E+00 0. -1.
          1   -1    0    0  501    0 -0.00000000000E+00 -0.00000000000E+00 -0.24312746069E+02  0.24312746069E+02  0.00000000000E+00 0. -1.
         25    2    1    2    0    0  0.31616372527E+02 -0.24239535355E+02  0.52757372736E+03  0.54364864263E+03  0.12503063123E+03 0.  0.
          2    1    1    2  501    0  0.39771527069E+02  0.35184183804E+01  0.10411073653E+02  0.41261896320E+02  0.00000000000E+00 0. -1.
          1    1    1    2  502    0 -0.71387899596E+02  0.20721116975E+02  0.16245606946E+04  0.16262604488E+04  0.00000000000E+00 0. -1.
         22    1    3    3    0    0  0.18571894753E+02 -0.65464011594E+02  0.16463868404E+03  0.17814698530E+03  0.00000000000E+00 0.  1.
         22    1    3    3    0    0  0.13044477774E+02  0.41224476239E+02  0.36293504331E+03  0.36550165732E+03  0.00000000000E+00 0.  1.
</event>
<event>
 7    1  0.5213103E-005  0.4674726E+03  0.7818608E-02  0.1169628E+00
          2   -1    0    0  502    0  0.00000000000E+00  0.00000000000E+00  0.64806663970E+03  0.64806663970E+03  0.00000000000E+00 0. -1.
          1   -1    0    0  501    0 -0.00000000000E+00 -0.00000000000E+00 -0.75995681340E+03  0.75995681340E+03  0.00000000000E+00 0. -1.
         25    2    1    2    0    0  0.47930008004E+03  0.14148495411E+03  0.29251132092E+03  0.59239843427E+03  0.12500589223E+03 0.  0.
          2    1    1    2  501    0 -0.45489784381E+03 -0.78149014230E+02 -0.51141542387E+03  0.68890133728E+03  0.00000000000E+00 0. -1.
          1    1    1    2  502    0 -0.24402236229E+02 -0.63335939882E+02  0.10701392924E+03  0.12672368155E+03  0.00000000000E+00 0. -1.
         22    1    3    3    0    0  0.37153921803E+03  0.64714096739E+02  0.25365529795E+03  0.45450007154E+03  0.00000000000E+00 0. -1.
         22    1    3    3    0    0  0.10776086201E+03  0.76770857373E+02  0.38856022971E+02  0.13789836273E+03  0.00000000000E+00 0. -1.
</event>
<event>
 7    1  0.5213103E-005  0.1972433E+03  0.7818608E-02  0.1250285E+00
          2   -1    0    0  502    0  0.00000000000E+00  0.00000000000E+00  0.48452879479E+02  0.48452879479E+02  0.00000000000E+00 0. -1.
          1   -1    0    0  501    0 -0.00000000000E+00 -0.00000000000E+00 -0.21336840750E+04  0.21336840750E+04  0.00000000000E+00 0. -1.
         25    2    1    2    0    0 -0.19042693311E+03 -0.16542417048E+03 -0.61954747216E+03  0.68050862322E+03  0.12500137193E+03 0.  0.
          2    1    1    2  501    0  0.14873152350E+03  0.11180699968E+03 -0.13790359661E+04  0.13915322731E+04  0.00000000000E+00 0. -1.
          1    1    1    2  502    0  0.41695409607E+02  0.53617170807E+02 -0.86647757304E+02  0.11009605821E+03  0.00000000000E+00 0. -1.
         22    1    3    3    0    0 -0.30170263679E+01  0.14693407818E+02 -0.10492052316E+02  0.18305240868E+02  0.00000000000E+00 0.  1.
         22    1    3    3    0    0 -0.18740990674E+03 -0.18011757830E+03 -0.60905541984E+03  0.66220338235E+03  0.00000000000E+00 0.  1.
</event>
<event>
 7    1  0.5213103E-005  0.6699345E+02  0.7818608E-02  0.1404866E+00
          2   -1    0    0  502    0  0.00000000000E+00  0.00000000000E+00  0.37580712846E+02  0.37580712846E+02  0.00000000000E+00 0. -1.
          1   -1    0    0  501    0 -0.00000000000E+00 -0.00000000000E+00 -0.14731265589E+04  0.14731265589E+04  0.00000000000E+00 0. -1.
         25    2    1    2    0    0  0.50619878648E+02  0.34856536298E+02 -0.91948048949E+03  0.92997064497E+03  0.12499471878E+03 0.  0.
          2    1    1    2  501    0 -0.39372140044E+02  0.32150439592E+02 -0.50999460239E+03  0.51252152213E+03  0.00000000000E+00 0. -1.
          1    1    1    2  502    0 -0.11247738604E+02 -0.67006975890E+02 -0.60707541435E+01  0.68215104614E+02  0.00000000000E+00 0. -1.
         22    1    3    3    0    0  0.84143727444E+02  0.14859532611E+02 -0.79334675908E+03  0.79793486747E+03  0.00000000000E+00 0. -1.
         22    1    3    3    0    0 -0.33523848796E+02  0.19997003687E+02 -0.12613373041E+03  0.13203577750E+03  0.00000000000E+00 0. -1.
</event>
<event>
 7    1  0.5213103E-005  0.2587964E+03  0.7818608E-02  0.1239316E+00
          2   -1    0    0  502    0  0.00000000000E+00  0.00000000000E+00  0.13424621140E+04  0.13424621140E+04  0.00000000000E+00 0. -1.
          1   -1    0    0  501    0 -0.00000000000E+00 -0.00000000000E+00 -0.80286024257E+03  0.80286024257E+03  0.00000000000E+00 0. -1.
         25    2    1    2    0    0  0.20989203325E+02  0.25085741534E+03 -0.32151229150E+03  0.42704463243E+03  0.12500789979E+03 0.  0.
          2    1    1    2  501    0 -0.57522836256E+02  0.58119770064E+01 -0.41352134692E+03  0.41754348292E+03  0.00000000000E+00 0. -1.
          1    1    1    2  502    0  0.36533632931E+02 -0.25666939235E+03  0.12746355099E+04  0.13007342412E+04  0.00000000000E+00 0. -1.
         22    1    3    3    0    0 -0.28202561436E+02  0.21622007730E+03 -0.27523589983E+03  0.35114285819E+03  0.00000000000E+00 0. -1.
         22    1    3    3    0    0  0.49191764761E+02  0.34637338046E+02 -0.46276391668E+02  0.75901774242E+02  0.00000000000E+00 0. -1.
</event>
<event>
 7    1  0.5213103E-005  0.5708473E+03  0.7818608E-02  0.1256011E+00
          2   -1    0    0  502    0  0.00000000000E+00  0.00000000000E+00  0.29578876407E+03  0.29578876407E+03  0.00000000000E+00 0. -1.
          1   -1    0    0  501    0 -0.00000000000E+00 -0.00000000000E+00 -0.18965061013E+04  0.18965061013E+04  0.00000000000E+00 0. -1.
         25    2    1    2    0    0 -0.56643560925E+03  0.16261994350E+02 -0.63190472398E+03  0.85792936245E+03  0.12500183552E+03 0.  0.
          2    1    1    2  501    0 -0.58473839090E+01  0.21385625604E+02 -0.70108114695E+03  0.70143161569E+03  0.00000000000E+00 0. -1.
          1    1    1    2  502    0  0.57228299316E+03 -0.37647619953E+02 -0.26773146628E+03  0.63293388721E+03  0.00000000000E+00 0. -1.
         22    1    3    3    0    0 -0.26112109129E+03  0.69374031931E+02 -0.30593036278E+03  0.40815483274E+03  0.00000000000E+00 0. -1.
         22    1    3    3    0    0 -0.30531451796E+03 -0.53112037581E+02 -0.32597436120E+03  0.44977452971E+03  0.00000000000E+00 0. -1.
</event>
<event>
 7    1  0.5213103E-005  0.7417941E+03  0.7818608E-02  0.1203892E+00
          2   -1    0    0  502    0  0.00000000000E+00  0.00000000000E+00  0.14532849673E+04  0.14532849673E+04  0.00000000000E+00 0. -1.
          1   -1    0    0  501    0 -0.00000000000E+00 -0.00000000000E+00 -0.84806965967E+03  0.84806965967E+03  0.00000000000E+00 0. -1.
         25    2    1    2    0    0 -0.15708685500E+03 -0.72803373047E+03 -0.22789433353E+03  0.78884048671E+03  0.12499637396E+03 0.  0.
          2    1    1    2  501    0  0.12788851972E+03  0.72666543511E+03  0.61544754356E+02  0.74039576231E+03  0.00000000000E+00 0. -1.
          1    1    1    2  502    0  0.29198335280E+02  0.13682953574E+01  0.77156488683E+03  0.77211837797E+03  0.00000000000E+00 0. -1.
         22    1    3    3    0    0 -0.17219590388E+03 -0.71385144490E+03 -0.21897685256E+03  0.76628074272E+03  0.00000000000E+00 0. -1.
         22    1    3    3    0    0  0.15109048886E+02 -0.14182285567E+02 -0.89174809675E+01  0.22559743991E+02  0.00000000000E+00 0. -1.
</event>
<event>
 7    1  0.5213103E-005  0.1318338E+03  0.7818608E-02  0.1356856E+00
          2   -1    0    0  502    0  0.00000000000E+00  0.00000000000E+00  0.36032182467E+04  0.36032182467E+04  0.00000000000E+00 0. -1.
          1   -1    0    0  501    0 -0.00000000000E+00 -0.00000000000E+00 -0.16127395910E+04  0.16127395910E+04  0.00000000000E+00 0. -1.
         25    2    1    2    0    0  0.38485204201E+02  0.12348987909E+03  0.31105416184E+04  0.31157382023E+04  0.12499809863E+03 0.  0.
          2    1    1    2  501    0 -0.31105529564E+02  0.22165625089E+02 -0.15990578988E+04  0.15995139989E+04  0.00000000000E+00 0. -1.
          1    1    1    2  502    0 -0.73796746367E+01 -0.14565550417E+03  0.47899493612E+03  0.50070563640E+03  0.00000000000E+00 0. -1.
         22    1    3    3    0    0  0.92989281903E+01  0.12394816889E+03  0.15674561776E+04  0.15723767002E+04  0.00000000000E+00 0.  1.
         22    1    3    3    0    0  0.29186276011E+02 -0.45828980022E+00  0.15430854408E+04  0.15433615021E+04  0.00000000000E+00 0.  1.
</event>
<event>
 7    1  0.5213103E-005  0.2751328E+03  0.7818608E-02  0.1222833E+00
          2   -1    0    0  502    0  0.00000000000E+00  0.00000000000E+00  0.28981246102E+04  0.28981246102E+04  0.00000000000E+00 0. -1.
          1   -1    0    0  501    0 -0.00000000000E+00 -0.00000000000E+00 -0.67763437279E+02  0.67763437279E+02  0.00000000000E+00 0. -1.
         25    2    1    2    0    0  0.17167466620E+03  0.26742812733E+03  0.10765083655E+04  0.11293736464E+04  0.12499831166E+03 0.  0.
          2    1    1    2  501    0 -0.16036249004E+03 -0.20397570750E+03  0.37418730161E+03  0.45534421502E+03  0.00000000000E+00 0. -1.
          1    1    1    2  502    0 -0.11312176154E+02 -0.63452419835E+02  0.13796655058E+04  0.13811701861E+04  0.00000000000E+00 0. -1.
         22    1    3    3    0    0  0.19168520291E+03  0.24254931209E+03  0.95849913270E+03  0.10071216278E+04  0.00000000000E+00 0.  1.
         22    1    3    3    0    0 -0.20010536710E+02  0.24878815240E+02  0.11800923276E+03  0.12225201857E+03  0.00000000000E+00 0.  1.
</event>
<event>
 7    1  0.5213103E-005  0.2179288E+03  0.7818608E-02  0.1242841E+00
          2   -1    0    0  502    0  0.00000000000E+00  0.00000000000E+00  0.14043643179E+04  0.14043643179E+04  0.00000000000E+00 0. -1.
          1   -1    0    0  501    0 -0.00000000000E+00 -0.00000000000E+00 -0.65410538955E+03  0.65410538955E+03  0.00000000000E+00 0. -1.
         25    2    1    2    0    0 -0.16197697813E+03  0.21218932923E+03  0.31936465001E+03  0.43459696193E+03  0.12497954536E+03 0.  0.
          2    1    1    2  501    0  0.15860143332E+03 -0.14602787967E+03 -0.57588495055E+03  0.61491628094E+03  0.00000000000E+00 0. -1.
          1    1    1    2  502    0  0.33755448067E+01 -0.66161449559E+02  0.10067792289E+04  0.10089564646E+04  0.00000000000E+00 0. -1.
         22    1    3    3    0    0 -0.83881134824E+02  0.24148499677E+02  0.65305113954E+02  0.10901354377E+03  0.00000000000E+00 0. -1.
         22    1    3    3    0    0 -0.78095843306E+02  0.18804082955E+03  0.25405953606E+03  0.32558341816E+03  0.00000000000E+00 0. -1.
</event>
<event>
 7    1  0.5213103E-005  0.2425870E+03  0.7818608E-02  0.1359646E+00
          2   -1    0    0  502    0  0.00000000000E+00  0.00000000000E+00  0.84757361562E+03  0.84757361562E+03  0.00000000000E+00 0. -1.
          1   -1    0    0  501    0 -0.00000000000E+00 -0.00000000000E+00 -0.17974489929E+03  0.17974489929E+03  0.00000000000E+00 0. -1.
         25    2    1    2    0    0  0.82502807272E+02 -0.24393673307E+03  0.67470264492E+03  0.73291234622E+03  0.12500002092E+03 0.  0.
          2    1    1    2  501    0 -0.66822573336E+02  0.23108358371E+03 -0.50952443261E+02  0.24588824787E+03  0.00000000000E+00 0. -1.
          1    1    1    2  502    0 -0.15680233936E+02  0.12853149364E+02  0.44078514670E+02  0.48517920817E+02  0.00000000000E+00 0. -1.
         22    1    3    3    0    0  0.23487495074E+02 -0.44190603933E+02  0.30059734966E+03  0.30473470187E+03  0.00000000000E+00 0.  1.
         22    1    3    3    0    0  0.59015312198E+02 -0.19974612914E+03  0.37410529526E+03  0.42817764435E+03  0.00000000000E+00 0.  1.
</event>
<event>
 7    1  0.5213103E-005  0.1647117E+04  0.7818608E-02  0.9813248E-01
          2   -1    0    0  502    0  0.00000000000E+00  0.00000000000E+00  0.26690716509E+04  0.26690716509E+04  0.00000000000E+00 0. -1.
          1   -1    0    0  501    0 -0.00000000000E+00 -0.00000000000E+00 -0.26647958198E+04  0.26647958198E+04  0.00000000000E+00 0. -1.
         25    2    1    2    0    0 -0.15705008142E+04  0.60319940706E+03 -0.16466686524E+04  0.23574276081E+04  0.12499977862E+03 0.  0.
          2    1    1    2  501    0  0.15245347024E+04 -0.35359234967E+03  0.28951737481E+03  0.15915570737E+04  0.00000000000E+00 0. -1.
          1    1    1    2  502    0  0.45966111775E+02 -0.24960705738E+03  0.13614271087E+04  0.13848827889E+04  0.00000000000E+00 0. -1.
         22    1    3    3    0    0 -0.91227720817E+03  0.37380867505E+03 -0.88352351647E+03  0.13238566517E+04  0.00000000000E+00 0.  1.
         22    1    3    3    0    0 -0.65822360601E+03  0.22939073201E+03 -0.76314513592E+03  0.10335709564E+04  0.00000000000E+00 0.  1.
</event>
<event>
 7    1  0.5213103E-005  0.8394146E+02  0.7818608E-02  0.1410353E+00
          2   -1    0    0  502    0  0.00000000000E+00  0.00000000000E+00  0.31781525525E+03  0.31781525525E+03  0.00000000000E+00 0. -1.
          1   -1    0    0  501    0 -0.00000000000E+00 -0.00000000000E+00 -0.34800378033E+04  0.34800378033E+04  0.00000000000E+00 0. -1.
         25    2    1    2    0    0 -0.62077901057E+02 -0.26994504980E+02 -0.34819849034E+03  0.37609703641E+03  0.12499769208E+03 0.  0.
          2    1    1    2  501    0  0.54490896024E+02  0.65108754681E+02 -0.31160669157E+04  0.31172233527E+04  0.00000000000E+00 0. -1.
          1    1    1    2  502    0  0.75870050334E+01 -0.38114249701E+02  0.30204285798E+03  0.30453266940E+03  0.00000000000E+00 0. -1.
         22    1    3    3    0    0  0.70890037539E+01  0.40785556374E+02 -0.14840813070E+03  0.15407364746E+03  0.00000000000E+00 0. -1.
         22    1    3    3    0    0 -0.69166904811E+02 -0.67780061355E+02 -0.19979035964E+03  0.22202338895E+03  0.00000000000E+00 0. -1.
</event>
<event>
 7    1  0.5213103E-005  0.8115820E+02  0.7818608E-02  0.1463295E+00
          2   -1    0    0  502    0  0.00000000000E+00  0.00000000000E+00  0.18455759389E+04  0.18455759389E+04  0.00000000000E+00 0. -1.
          1   -1    0    0  501    0 -0.00000000000E+00 -0.00000000000E+00 -0.11976136044E+04  0.11976136044E+04  0.00000000000E+00 0. -1.
         25    2    1    2    0    0 -0.59486447496E+02  0.62616451923E+01  0.18034883958E+04  0.18088045984E+04  0.12500334323E+03 0.  0.
          2    1    1    2  501    0  0.80460077347E+02  0.10756083198E+02 -0.11887777333E+04  0.11915460615E+04  0.00000000000E+00 0. -1.
          1    1    1    2  502    0 -0.20973629851E+02 -0.17017728390E+02  0.33251672053E+02  0.42838883307E+02  0.00000000000E+00 0. -1.
         22    1    3    3    0    0 -0.86196505473E+02  0.36442936192E+02  0.14520907776E+04  0.14551032787E+04  0.00000000000E+00 0. -1.
         22    1    3    3    0    0  0.26710057977E+02 -0.30181291000E+02  0.35139761819E+03  0.35370131975E+03  0.00000000000E+00 0. -1.
</event>
<event>
 7    1  0.5213103E-005  0.1879290E+03  0.7818608E-02  0.1285380E+00
          2   -1    0    0  502    0  0.00000000000E+00  0.00000000000E+00  0.43321413225E+02  0.43321413225E+02  0.00000000000E+00 0. -1.
          1   -1    0    0  501    0 -0.00000000000E+00 -0.00000000000E+00 -0.27740547907E+04  0.27740547907E+04  0.00000000000E+00 0. -1.
         25    2    1    2    0    0 -0.56110627785E+01  0.21367604510E+03 -0.16092928112E+04  0.16282313335E+04  0.12499994843E+03 0.  0.
          2    1    1    2  501    0  0.28926836982E+02 -0.16864415355E+03 -0.11253505365E+04  0.11382844295E+04  0.00000000000E+00 0. -1.
          1    1    1    2  502    0 -0.23315774204E+02 -0.45031891547E+02  0.39099701905E+01  0.50860440914E+02  0.00000000000E+00 0. -1.
         22    1    3    3    0    0  0.59562380908E+02  0.98273599939E+02 -0.71755007389E+03  0.72669352977E+03  0.00000000000E+00 0. -1.
         22    1    3    3    0    0 -0.65173443686E+02  0.11540244516E+03 -0.89174273729E+03  0.90153780377E+03  0.00000000000E+00 0. -1.
</event>
<event>
 7    1  0.5213103E-005  0.8579941E+03  0.7818608E-02  0.1106738E+00
          2   -1    0    0  502    0  0.00000000000E+00  0.00000000000E+00  0.12776700358E+04  0.12776700358E+04  0.00000000000E+00 0. -1.
          1   -1    0    0  501    0 -0.00000000000E+00 -0.00000000000E+00 -0.19645417911E+04  0.19645417911E+04  0.00000000000E+00 0. -1.
         25    2    1    2    0    0 -0.89567553646E+03  0.70910256407E+02 -0.29568289982E+03  0.95410459212E+03  0.12499705745E+03 0.  0.
          2    1    1    2  501    0  0.84211858878E+03 -0.12565802216E+02 -0.12051650371E+04  0.14702871773E+04  0.00000000000E+00 0. -1.
          1    1    1    2  502    0  0.53556947688E+02 -0.58344454191E+02  0.81397618174E+03  0.81782005748E+03  0.00000000000E+00 0. -1.
         22    1    3    3    0    0 -0.48206503544E+03  0.99358795490E+02 -0.17360411247E+03  0.52191690575E+03  0.00000000000E+00 0.  1.
         22    1    3    3    0    0 -0.41361050102E+03 -0.28448539083E+02 -0.12207878735E+03  0.43218768637E+03  0.00000000000E+00 0.  1.
</event>
<event>
 7    1  0.5213103E-005  0.2125873E+04  0.7818608E-02  0.9668856E-01
          2   -1    0    0  502    0  0.00000000000E+00  0.00000000000E+00  0.31062260618E+04  0.31062260618E+04  0.00000000000E+00 0. -1.
          1   -1    0    0  501    0 -0.00000000000E+00 -0.00000000000E+00 -0.31396229975E+04  0.31396229975E+04  0.00000000000E+00 0. -1.
         25    2    1    2    0    0 -0.17387815336E+04 -0.11210606609E+04 -0.12956940013E+04  0.24442967721E+04  0.12500215275E+03 0.  0.
          2    1    1    2  501    0  0.19738907192E+04  0.10360710444E+04 -0.27309090298E+03  0.22459444387E+04  0.00000000000E+00 0. -1.
          1    1    1    2  502    0 -0.23510918556E+03  0.84989616464E+02  0.15353879686E+04  0.15556078485E+04  0.00000000000E+00 0. -1.
         22    1    3    3    0    0 -0.11826167382E+04 -0.71783457756E+03 -0.81182600267E+03  0.16040356258E+04  0.00000000000E+00 0.  1.
         22    1    3    3    0    0 -0.55616479544E+03 -0.40322608332E+03 -0.48386799866E+03  0.84026114636E+03  0.00000000000E+00 0.  1.
</event>
<event>
 7    1  0.5213103E-005  0.8412640E+03  0.7818608E-02  0.1004103E+00
          2   -1    0    0  502    0  0.00000000000E+00  0.00000000000E+00  0.23907281015E+04  0.23907281015E+04  0.00000000000E+00 0. -1.
          1   -1    0    0  501    0 -0.00000000000E+00 -0.00000000000E+00 -0.25487644449E+04  0.25487644449E+04  0.00000000000E+00 0. -1.
         25    2    1    2    0    0  0.76411493604E+03 -0.79914534695E+03 -0.40538457039E+03  0.11842580254E+04  0.12500199905E+03 0.  0.
          2    1    1    2  501    0 -0.96187407337E+02  0.33150260350E+03 -0.16523132614E+04  0.16879825554E+04  0.00000000000E+00 0. -1.
          1    1    1    2  502    0 -0.66792752870E+03  0.46764274345E+03  0.18996614884E+04  0.20672519657E+04  0.00000000000E+00 0. -1.
         22    1    3    3    0    0  0.36356205257E+03 -0.31435308623E+03 -0.22046649526E+03  0.52877282875E+03  0.00000000000E+00 0.  1.
         22    1    3    3    0    0  0.40055288346E+03 -0.48479226072E+03 -0.18491807514E+03  0.65548519664E+03  0.00000000000E+00 0.  1.
</event>
<event>
 7    1  0.5213103E-005  0.5545202E+03  0.7818608E-02  0.1097988E+00
          2   -1    0    0  502    0  0.00000000000E+00  0.00000000000E+00  0.24364095387E+04  0.24364095387E+04  0.00000000000E+00 0. -1.
          1   -1    0    0  501    0 -0.00000000000E+00 -0.00000000000E+00 -0.21414515085E+03  0.21414515085E+03  0.00000000000E+00 0. -1.
         25    2    1    2    0    0 -0.55153426205E+03  0.30530788733E+03  0.79748756611E+03  0.10242130554E+04  0.12499206548E+03 0.  0.
          2    1    1    2  501    0  0.41745678036E+03 -0.27618117853E+03  0.56144273219E+03  0.75217295110E+03  0.00000000000E+00 0. -1.
          1    1    1    2  502    0  0.13407748169E+03 -0.29126708803E+02  0.86333408950E+03  0.87416868301E+03  0.00000000000E+00 0. -1.
         22    1    3    3    0    0 -0.54118343061E+03  0.30961235849E+03  0.74948559334E+03  0.97491946987E+03  0.00000000000E+00 0.  1.
         22    1    3    3    0    0 -0.10350831442E+02 -0.43044711605E+01  0.48001972766E+02  0.49293585515E+02  0.00000000000E+00 0.  1.
</event>
<event>
 7    1  0.5213103E-005  0.1799175E+03  0.7818608E-02  0.1276584E+00
          2   -1    0    0  502    0  0.00000000000E+00  0.00000000000E+00  0.21526787243E+04  0.21526787243E+04  0.00000000000E+00 0. -1.
          1   -1    0    0  501    0 -0.00000000000E+00 -0.00000000000E+00 -0.10609691259E+04  0.10609691259E+04  0.00000000000E+00 0. -1.
         25    2    1    2    0    0 -0.18150130758E+03  0.11029683679E+02  0.19754980023E+04  0.19877830780E+04  0.12499931834E+03 0.  0.
          2    1    1    2  501    0  0.13453797155E+02 -0.55990926048E+02 -0.10095608508E+04  0.10112018097E+04  0.00000000000E+00 0. -1.
          1    1    1    2  502    0  0.16804751043E+03  0.44961242369E+02  0.12577244695E+03  0.21466296254E+03  0.00000000000E+00 0. -1.
         22    1    3    3    0    0 -0.11881864859E+03 -0.47596437301E+02  0.14115740962E+04  0.14173654155E+04  0.00000000000E+00 0.  1.
         22    1    3    3    0    0 -0.62682658986E+02  0.58626120980E+02  0.56392390610E+03  0.57041766249E+03  0.00000000000E+00 0.  1.
</event>
<event>
 7    1  0.5213103E-005  0.3312807E+03  0.7818608E-02  0.1264490E+00
          2   -1    0    0  502    0  0.00000000000E+00  0.00000000000E+00  0.46864528651E+03  0.46864528651E+03  0.00000000000E+00 0. -1.
          1   -1    0    0  501    0 -0.00000000000E+00 -0.00000000000E+00 -0.79934942287E+03  0.79934942287E+03  0.00000000000E+00 0. -1.
         25    2    1    2    0    0  0.85809778935E+02  0.34927055766E+03 -0.21779406623E+03  0.43864994656E+03  0.12500511880E+03 0.  0.
          2    1    1    2  501    0 -0.34305689147E+01 -0.34982336823E+02 -0.39651695999E+03  0.39807189332E+03  0.00000000000E+00 0. -1.
          1    1    1    2  502    0 -0.82379210020E+02 -0.31428822083E+03  0.28360688985E+03  0.43127286950E+03  0.00000000000E+00 0. -1.
         22    1    3    3    0    0  0.14524201745E+02  0.45415182111E+02  0.14216996634E+02  0.49755544372E+02  0.00000000000E+00 0.  1.
         22    1    3    3    0    0  0.71285577190E+02  0.30385537555E+03 -0.23201106286E+03  0.38889440219E+03  0.00000000000E+00 0.  1.
</event>
<event>
 7    1  0.5213103E-005  0.2385754E+03  0.7818608E-02  0.1273692E+00
          2   -1    0    0  502    0  0.00000000000E+00  0.00000000000E+00  0.18378564553E+04  0.18378564553E+04  0.00000000000E+00 0. -1.
          1   -1    0    0  501    0 -0.00000000000E+00 -0.00000000000E+00 -0.99215932494E+03  0.99215932494E+03  0.00000000000E+00 0. -1.
         25    2    1    2    0    0  0.21738979649E+03  0.98416819223E+01 -0.44743697372E+03  0.51301492648E+03  0.12501714691E+03 0.  0.
          2    1    1    2  501    0 -0.25986172159E+03  0.39252876751E+01 -0.47864949282E+03  0.54465480738E+03  0.00000000000E+00 0. -1.
          1    1    1    2  502    0  0.42471925097E+02 -0.13766969597E+02  0.17717835969E+04  0.17723460464E+04  0.00000000000E+00 0. -1.
         22    1    3    3    0    0  0.99661028282E+02 -0.32586480325E+02 -0.30946146989E+03  0.32674240711E+03  0.00000000000E+00 0.  1.
         22    1    3    3    0    0  0.11772876821E+03  0.42428162247E+02 -0.13797550382E+03  0.18627251937E+03  0.00000000000E+00 0.  1.
</event>
<event>
 7    1  0.5213103E-005  0.1142449E+04  0.7818608E-02  0.1117911E+00
          2   -1    0    0  502    0  0.00000000000E+00  0.00000000000E+00  0.35960535163E+04  0.35960535163E+04  0.00000000000E+00 0. -1.
          1   -1    0    0  501    0 -0.00000000000E+00 -0.00000000000E+00 -0.52926780093E+03  0.52926780093E+03  0.00000000000E+00 0. -1.
         25    2    1    2    0    0 -0.83197263220E+03 -0.75301705209E+03  0.10405793519E+04  0.15354623160E+04  0.12500397852E+03 0.  0.
          2    1    1    2  501    0  0.88358381940E+03  0.75403712851E+03  0.91825066994E+03  0.14807014047E+04  0.00000000000E+00 0. -1.
          1    1    1    2  502    0 -0.51611187202E+02 -0.10200764203E+01  0.11079556935E+04  0.11091575965E+04  0.00000000000E+00 0. -1.
         22    1    3    3    0    0 -0.43985125588E+03 -0.42529135337E+03  0.64657867846E+03  0.89017180925E+03  0.00000000000E+00 0.  1.
         22    1    3    3    0    0 -0.39212137632E+03 -0.32772569871E+03  0.39400067347E+03  0.64529050672E+03  0.00000000000E+00 0.  1.
</event>
<event>
 7    1  0.5497969E-005  0.2725036E+03  0.7818608E-02  0.1161407E+00
          2   -1    0    0  502    0  0.00000000000E+00  0.00000000000E+00  0.13138668312E+04  0.13138668312E+04  0.00000000000E+00 0. -1.
          1   -1    0    0  501    0 -0.00000000000E+00 -0.00000000000E+00 -0.16915997082E+04  0.16915997082E+04  0.00000000000E+00 0. -1.
         25    2    1    2    0    0  0.23163554985E+03  0.30618488772E+03 -0.28044644797E+03  0.49160853163E+03  0.12499809906E+03 0.  0.
          2    1    1    2  501    0 -0.13723174708E+03 -0.21972980597E+03 -0.12892599910E+04  0.13150304424E+04  0.00000000000E+00 0. -1.
          1    1    1    2  502    0 -0.94403802775E+02 -0.86455081753E+02  0.11919735620E+04  0.11988275654E+04  0.00000000000E+00 0. -1.
         22    1    3    3    0    0  0.10335300160E+03  0.23570730415E+03 -0.18163130047E+03  0.31500746892E+03  0.00000000000E+00 0. -1.
         22    1    3    3    0    0  0.12828254826E+03  0.70477583573E+02 -0.98815147500E+02  0.17660106271E+03  0.00000000000E+00 0. -1.
</event>
<event>
 7    1  0.5213103E-005  0.5698581E+03  0.7818608E-02  0.1088062E+00
          2   -1    0    0  502    0  0.00000000000E+00  0.00000000000E+00  0.14241610643E+04  0.14241610643E+04  0.00000000000E+00 0. -1.
          1   -1    0    0  501    0 -0.00000000000E+00 -0.00000000000E+00 -0.48600349479E+03  0.48600349479E+03  0.00000000000E+00 0. -1.
         25    2    1    2    0    0  0.18087585460E+03 -0.63901911832E+03  0.39551787927E+03  0.78302449120E+03  0.12502580790E+03 0.  0.
          2    1    1    2  501    0 -0.20727882303E+03  0.48921053694E+03 -0.32421796040E+02  0.53229938267E+03  0.00000000000E+00 0. -1.
          1    1    1    2  502    0  0.26402968429E+02  0.14980858138E+03  0.57506148628E+03  0.59484068523E+03  0.00000000000E+00 0. -1.
         22    1    3    3    0    0  0.24080768381E+02 -0.13739423694E+03  0.29509243849E+02  0.14257578765E+03  0.00000000000E+00 0. -1.
         22    1    3    3    0    0  0.15679508622E+03 -0.50162488138E+03  0.36600863542E+03  0.64044870355E+03  0.00000000000E+00 0. -1.
</event>
<event>
 7    1  0.5213103E-005  0.9513655E+02  0.7818608E-02  0.1411753E+00
          2   -1    0    0  502    0  0.00000000000E+00  0.00000000000E+00  0.66045175229E+03  0.66045175229E+03  0.00000000000E+00 0. -1.
          1   -1    0    0  501    0 -0.00000000000E+00 -0.00000000000E+00 -0.50732378766E+03  0.50732378766E+03  0.00000000000E+00 0. -1.
         25    2    1    2    0    0  0.18618616016E+02  0.67103159756E+02  0.47903265788E+03  0.49994620224E+03  0.12499772362E+03 0.  0.
          2    1    1    2  501    0  0.81086166945E-01 -0.95399680809E+02 -0.49054311664E+03  0.49973358398E+03  0.00000000000E+00 0. -1.
          1    1    1    2  502    0 -0.18699702183E+02  0.28296521052E+02  0.16463842339E+03  0.16809575373E+03  0.00000000000E+00 0. -1.
         22    1    3    3    0    0  0.42709402270E+02  0.73570573772E+02  0.17185353971E+03  0.19175599463E+03  0.00000000000E+00 0. -1.
         22    1    3    3    0    0 -0.24090786254E+02 -0.64674140153E+01  0.30717911817E+03  0.30819020761E+03  0.00000000000E+00 0. -1.
</event>
<event>
 7    1  0.5213103E-005  0.1030228E+04  0.7818608E-02  0.1110476E+00
          2   -1    0    0  502    0  0.00000000000E+00  0.00000000000E+00  0.42283902190E+04  0.42283902190E+04  0.00000000000E+00 0. -1.
          1   -1    0    0  501    0 -0.00000000000E+00 -0.00000000000E+00 -0.32181110039E+03  0.32181110039E+03  0.00000000000E+00 0. -1.
         25    2    1    2    0    0  0.67716970839E+03 -0.82594405241E+03  0.16559427719E+04  0.19744652360E+04  0.12499645026E+03 0.  0.
          2    1    1    2  501    0 -0.40909513341E+02  0.47757743426E+02 -0.39810937193E+02  0.74426480900E+02  0.00000000000E+00 0. -1.
          1    1    1    2  502    0 -0.63626019505E+03  0.77818630898E+03  0.22904472838E+04  0.25013096024E+04  0.00000000000E+00 0. -1.
         22    1    3    3    0    0  0.32349912293E+03 -0.47726602070E+03  0.82751910373E+03  0.10085744415E+04  0.00000000000E+00 0. -1.
         22    1    3    3    0    0  0.35367058546E+03 -0.34867803171E+03  0.82842366821E+03  0.96589079448E+03  0.00000000000E+00 0. -1.
</event>
<event>
 7    1  0.5213103E-005  0.6866585E+02  0.7818608E-02  0.1429163E+00
          2   -1    0    0  502    0  0.00000000000E+00  0.00000000000E+00  0.20689165563E+04  0.20689165563E+04  0.00000000000E+00 0. -1.
          1   -1    0    0  501    0 -0.00000000000E+00 -0.00000000000E+00 -0.39536330205E+03  0.39536330205E+03  0.00000000000E+00 0. -1.
         25    2    1    2    0    0 -0.28184822834E+02  0.78110623466E+02  0.30304892158E+03  0.33816964969E+03  0.12499763745E+03 0.  0.
          2    1    1    2  501    0  0.39722399008E+02 -0.10577467713E+02 -0.37601117456E+03  0.37825144441E+03  0.00000000000E+00 0. -1.
          1    1    1    2  502    0 -0.11537576173E+02 -0.67533155753E+02  0.17465155072E+04  0.17478587643E+04  0.00000000000E+00 0. -1.
         22    1    3    3    0    0  0.42657704985E+02  0.62106538894E+02  0.12608768624E+03  0.14688433065E+03  0.00000000000E+00 0.  1.
         22    1    3    3    0    0 -0.70842527819E+02  0.16004084572E+02  0.17696123534E+03  0.19128531905E+03  0.00000000000E+00 0.  1.
</event>
<event>
 7    1  0.5213103E-005  0.3043496E+03  0.7818608E-02  0.1175893E+00
          2   -1    0    0  502    0  0.00000000000E+00  0.00000000000E+00  0.71669298589E+03  0.71669298589E+03  0.00000000000E+00 0. -1.
          1   -1    0    0  501    0 -0.00000000000E+00 -0.00000000000E+00 -0.11112553288E+04  0.11112553288E+04  0.00000000000E+00 0. -1.
         25    2    1    2    0    0  0.26594410647E+03 -0.20538012077E+03 -0.25558209863E+03  0.44029004238E+03  0.12500340198E+03 0.  0.
          2    1    1    2  501    0 -0.17536137492E+03  0.24029159746E+03 -0.73022734590E+03  0.78849454045E+03  0.00000000000E+00 0. -1.
          1    1    1    2  502    0 -0.90582731548E+02 -0.34911476694E+02  0.59124710159E+03  0.59916373188E+03  0.00000000000E+00 0. -1.
         22    1    3    3    0    0  0.26853371016E+03 -0.16374708550E+03 -0.24049896545E+03  0.39593334526E+03  0.00000000000E+00 0. -1.
         22    1    3    3    0    0 -0.25896036980E+01 -0.41633035272E+02 -0.15083133183E+02  0.44356697126E+02  0.00000000000E+00 0. -1.
</event>
<event>
 7    1  0.5213103E-005  0.3260455E+03  0.7818608E-02  0.1086090E+00
          2   -1    0    0  502    0  0.00000000000E+00  0.00000000000E+00  0.82429042149E+03  0.82429042149E+03  0.00000000000E+00 0. -1.
          1   -1    0    0  501    0 -0.00000000000E+00 -0.00000000000E+00 -0.14547894090E+04  0.14547894090E+04  0.00000000000E+00 0. -1.
         25    2    1    2    0    0 -0.14472862217E+03  0.56062173613E+03  0.52717083269E+03  0.79295418849E+03  0.12499661244E+03 0.  0.
          2    1    1    2  501    0  0.20616947877E+02 -0.31754540161E+03 -0.11704129608E+04  0.12129000946E+04  0.00000000000E+00 0. -1.
          1    1    1    2  502    0  0.12411167429E+03 -0.24307633452E+03  0.12743140663E+02  0.27322554736E+03  0.00000000000E+00 0. -1.
         22    1    3    3    0    0  0.17415663746E+02  0.19425821325E+02  0.13466413789E+02  0.29360043906E+02  0.00000000000E+00 0.  1.
         22    1    3    3    0    0 -0.16214428591E+03  0.54119591480E+03  0.51370441890E+03  0.76359414459E+03  0.00000000000E+00 0.  1.
</event>
<event>
 7    1  0.5213103E-005  0.1032546E+03  0.7818608E-02  0.1283462E+00
          2   -1    0    0  502    0  0.00000000000E+00  0.00000000000E+00  0.10872520205E+04  0.10872520205E+04  0.00000000000E+00 0. -1.
          1   -1    0    0  501    0 -0.00000000000E+00 -0.00000000000E+00 -0.98600401129E+03  0.98600401129E+03  0.00000000000E+00 0. -1.
         25    2    1    2    0    0  0.17805766805E+03 -0.34290729992E+02 -0.10595732246E+03  0.24440463947E+03  0.12500514509E+03 0.  0.
          2    1    1    2  501    0 -0.85738337087E+02  0.51893900501E+02 -0.80554211847E+03  0.81175251400E+03  0.00000000000E+00 0. -1.
          1    1    1    2  502    0 -0.92319330959E+02 -0.17603170509E+02  0.10127474502E+04  0.10170988783E+04  0.00000000000E+00 0. -1.
         22    1    3    3    0    0  0.10349114529E+03  0.32553820970E+02 -0.15756323215E+02  0.10962860090E+03  0.00000000000E+00 0. -1.
         22    1    3    3    0    0  0.74566522752E+02 -0.66844550963E+02 -0.90200999245E+02  0.13477603857E+03  0.00000000000E+00 0. -1.
</event>
<event>
 7    1  0.5213103E-005  0.1131565E+04  0.7818608E-02  0.1164645E+00
          2   -1    0    0  502    0  0.00000000000E+00  0.00000000000E+00  0.11476433729E+04  0.11476433729E+04  0.00000000000E+00 0. -1.
          1   -1    0    0  501    0 -0.00000000000E+00 -0.00000000000E+00 -0.16532452077E+04  0.16532452077E+04  0.00000000000E+00 0. -1.
         25    2    1    2    0    0  0.10904861805E+04 -0.30672582623E+03 -0.63820479429E+03  0.13062053780E+04  0.12500515073E+03 0.  0.
          2    1    1    2  501    0 -0.10794736649E+04  0.33430138986E+03 -0.21118332360E+03  0.11496169834E+04  0.00000000000E+00 0. -1.
          1    1    1    2  502    0 -0.11012515601E+02 -0.27575563625E+02  0.34378628308E+03  0.34506621922E+03  0.00000000000E+00 0. -1.
         22    1    3    3    0    0  0.63515336325E+02 -0.39870017974E+02 -0.17834741635E+02  0.77083683688E+02  0.00000000000E+00 0. -1.
         22    1    3    3    0    0  0.10269708441E+04 -0.26685580826E+03 -0.62037005265E+03  0.12291216943E+04  0.00000000000E+00 0. -1.
</event>
<event>
 7    1  0.5213103E-005  0.9831595E+03  0.7818608E-02  0.1047654E+00
          2   -1    0    0  502    0  0.00000000000E+00  0.00000000000E+00  0.23233725820E+04  0.23233725820E+04  0.00000000000E+00 0. -1.
          1   -1    0    0  501    0 -0.00000000000E+00 -0.00000000000E+00 -0.18894534230E+04  0.18894534230E+04  0.00000000000E+00 0. -1.
         25    2    1    2    0    0  0.39884836199E+03  0.93005747477E+03  0.17541541059E+04  0.20289821512E+04  0.12500008119E+03 0.  0.
          2    1    1    2  501    0 -0.13018353762E+03 -0.82115337564E+02 -0.12844482520E+04  0.12936375050E+04  0.00000000000E+00 0. -1.
          1    1    1    2  502    0 -0.26866482437E+03 -0.84794213721E+03 -0.35786694900E+02  0.89020634880E+03  0.00000000000E+00 0. -1.
         22    1    3    3    0    0  0.29231183179E+03  0.55089215437E+03  0.11388129869E+04  0.12983926185E+04  0.00000000000E+00 0.  1.
         22    1    3    3    0    0  0.10653653020E+03  0.37916532040E+03  0.61534111903E+03  0.73058953266E+03  0.00000000000E+00 0.  1.
</event>
<event>
 7    1  0.5213103E-005  0.3381412E+03  0.7818608E-02  0.1263297E+00
          2   -1    0    0  502    0  0.00000000000E+00  0.00000000000E+00  0.20658088699E+04  0.20658088699E+04  0.00000000000E+00 0. -1.
          1   -1    0    0  501    0 -0.00000000000E+00 -0.00000000000E+00 -0.85081484307E+03  0.85081484307E+03  0.00000000000E+00 0. -1.
         25    2    1    2    0    0 -0.15863899514E+01  0.35685530163E+03  0.10031769541E+04  0.10720711703E+04  0.12499747982E+03 0.  0.
          2    1    1    2  501    0  0.12056128002E+02 -0.32688030603E+02 -0.79039682326E+03  0.79116432920E+03  0.00000000000E+00 0. -1.
          1    1    1    2  502    0 -0.10469738050E+02 -0.32416727103E+03  0.10022138960E+04  0.10533882135E+04  0.00000000000E+00 0. -1.
         22    1    3    3    0    0  0.40931437477E+01  0.89368769112E+02  0.43431933219E+03  0.44343749620E+03  0.00000000000E+00 0.  1.
         22    1    3    3    0    0 -0.56795336990E+01  0.26748653252E+03  0.56885762194E+03  0.62863367411E+03  0.00000000000E+00 0.  1.
</event>
<event>
 7    1  0.5213103E-005  0.2406461E+03  0.7818608E-02  0.1216847E+00
          2   -1    0    0  502    0  0.00000000000E+00  0.00000000000E+00  0.14197548658E+04  0.14197548658E+04  0.00000000000E+00 0. -1.
          1   -1    0    0  501    0 -0.00000000000E+00 -0.00000000000E+00 -0.32426657462E+03  0.32426657462E+03  0.00000000000E+00 0. -1.
         25    2    1    2    0    0 -0.29517907460E+03 -0.47381908741E+02  0.54139090186E+03  0.63095475662E+03  0.12499625963E+03 0.  0.
          2    1    1    2  501    0  0.75122708547E+02  0.22675461768E+02 -0.25885895685E+03  0.27049132601E+03  0.00000000000E+00 0. -1.
          1    1    1    2  502    0  0.22005636605E+03  0.24706446973E+02  0.81295634615E+03  0.84257535777E+03  0.00000000000E+00 0. -1.
         22    1    3    3    0    0 -0.19934876974E+03  0.28925016539E+02  0.34424241165E+03  0.39884762323E+03  0.00000000000E+00 0. -1.
         22    1    3    3    0    0 -0.95830304856E+02 -0.76306925280E+02  0.19714849021E+03  0.23210713338E+03  0.00000000000E+00 0. -1.
</event>
<event>
 7    1  0.5213103E-005  0.8898030E+03  0.7818608E-02  0.1164216E+00
          2   -1    0    0  502    0  0.00000000000E+00  0.00000000000E+00  0.97096786123E+03  0.97096786123E+03  0.00000000000E+00 0. -1.
          1   -1    0    0  501    0 -0.00000000000E+00 -0.00000000000E+00 -0.12648030905E+04  0.12648030905E+04  0.00000000000E+00 0. -1.
         25    2    1    2    0    0  0.56342377324E+03 -0.68768279705E+03 -0.66115826563E+03  0.11149482381E+04  0.12500137508E+03 0.  0.
          2    1    1    2  501    0 -0.29099878182E+02 -0.24357200525E+02 -0.10599978679E+03  0.11258788090E+03  0.00000000000E+00 0. -1.
          1    1    1    2  502    0 -0.53432389506E+03  0.71203999758E+03  0.47332282317E+03  0.10082348327E+04  0.00000000000E+00 0. -1.
         22    1    3    3    0    0  0.23485771760E+03 -0.38171177881E+03 -0.30961698646E+03  0.54472443300E+03  0.00000000000E+00 0. -1.
         22    1    3    3    0    0  0.32856605564E+03 -0.30597101824E+03 -0.35154127917E+03  0.57022380508E+03  0.00000000000E+00 0. -1.
</event>
<event>
 7    1  0.5213103E-005  0.2665013E+03  0.7818608E-02  0.1166450E+00
          2   -1    0    0  502    0  0.00000000000E+00  0.00000000000E+00  0.27762814193E+03  0.27762814193E+03  0.00000000000E+00 0. -1.
          1   -1    0    0  501    0 -0.00000000000E+00 -0.00000000000E+00 -0.23016795474E+04  0.23016795474E+04  0.00000000000E+00 0. -1.
         25    2    1    2    0    0  0.27238666170E+02  0.35936353167E+03 -0.12938820670E+04  0.13489404828E+04  0.12500212025E+03 0.  0.
          2    1    1    2  501    0 -0.71056019492E+02 -0.10098763260E+03 -0.90626175366E+03  0.91463535138E+03  0.00000000000E+00 0. -1.
          1    1    1    2  502    0  0.43817353322E+02 -0.25837589907E+03  0.17609241517E+03  0.31573185515E+03  0.00000000000E+00 0. -1.
         22    1    3    3    0    0 -0.33194268621E+02  0.26911452250E+03 -0.97874228497E+03  0.10156086579E+04  0.00000000000E+00 0. -1.
         22    1    3    3    0    0  0.60432934791E+02  0.90249009170E+02 -0.31513978203E+03  0.33333182489E+03  0.00000000000E+00 0. -1.
</event>
<event>
 7    1  0.5213103E-005  0.6567387E+03  0.7818608E-02  0.1075880E+00
          2   -1    0    0  502    0  0.00000000000E+00  0.00000000000E+00  0.28246493467E+04  0.28246493467E+04  0.00000000000E+00 0. -1.
          1   -1    0    0  501    0 -0.00000000000E+00 -0.00000000000E+00 -0.11129205032E+04  0.11129205032E+04  0.00000000000E+00 0. -1.
         25    2    1    2    0    0  0.73182740470E+03  0.19610605687E+03 -0.10930779470E+03  0.77563019935E+03  0.12500030540E+03 0.  0.
          2    1    1    2  501    0 -0.13999470284E+03  0.67537620794E+02 -0.61855231008E+03  0.63778272739E+03  0.00000000000E+00 0. -1.
          1    1    1    2  502    0 -0.59183270186E+03 -0.26364367767E+03  0.24395889484E+04  0.25241569232E+04  0.00000000000E+00 0. -1.
         22    1    3    3    0    0  0.72536663531E+03  0.18205459699E+03 -0.93791085954E+02  0.75372236249E+03  0.00000000000E+00 0. -1.
         22    1    3    3    0    0  0.64607693907E+01  0.14051459881E+02 -0.15516708742E+02  0.21907836865E+02  0.00000000000E+00 0. -1.
</event>
<event>
 7    1  0.5213103E-005  0.5489533E+03  0.7818608E-02  0.1181452E+00
          2   -1    0    0  502    0  0.00000000000E+00  0.00000000000E+00  0.89169524571E+03  0.89169524571E+03  0.00000000000E+00 0. -1.
          1   -1    0    0  501    0 -0.00000000000E+00 -0.00000000000E+00 -0.88159462162E+03  0.88159462162E+03  0.00000000000E+00 0. -1.
         25    2    1    2    0    0  0.55219805945E+03  0.53271911214E+02  0.51325713894E+02  0.57098086379E+03  0.12499689805E+03 0.  0.
          2    1    1    2  501    0 -0.54732818518E+03 -0.29527444453E+01 -0.49965389800E+03  0.74110112588E+03  0.00000000000E+00 0. -1.
          1    1    1    2  502    0 -0.48698742685E+01 -0.50319166768E+02  0.45842880820E+03  0.46120787766E+03  0.00000000000E+00 0. -1.
         22    1    3    3    0    0  0.53758614079E+03  0.41170212192E+02  0.26601654840E+02  0.53981616610E+03  0.00000000000E+00 0.  1.
         22    1    3    3    0    0  0.14611918664E+02  0.12101699022E+02  0.24724059054E+02  0.31164697695E+02  0.00000000000E+00 0.  1.
</event>
<event>
 7    1  0.5213103E-005  0.1070741E+04  0.7818608E-02  0.1122577E+00
          2   -1    0    0  502    0  0.00000000000E+00  0.00000000000E+00  0.25984896041E+04  0.25984896041E+04  0.00000000000E+00 0. -1.
          1   -1    0    0  501    0 -0.00000000000E+00 -0.00000000000E+00 -0.10469894399E+04  0.10469894399E+04  0.00000000000E+00 0. -1.
         25    2    1    2    0    0  0.17708033961E+03  0.10468239745E+04  0.70418561561E+02  0.10713460443E+04  0.12500276996E+03 0.  0.
          2    1    1    2  501    0 -0.22833994622E+03 -0.10553121379E+04 -0.12344516243E+02  0.10798033277E+04  0.00000000000E+00 0. -1.
          1    1    1    2  502    0  0.51259606608E+02  0.84881634182E+01  0.14934261189E+04  0.14943296720E+04  0.00000000000E+00 0. -1.
         22    1    3    3    0    0  0.12047049428E+03  0.37826320151E+03  0.27953981727E+01  0.39699370758E+03  0.00000000000E+00 0.  1.
         22    1    3    3    0    0  0.56609845325E+02  0.66856077302E+03  0.67623163389E+02  0.67435233672E+03  0.00000000000E+00 0.  1.
</event>
<event>
 7    1  0.5213103E-005  0.3180046E+03  0.7818608E-02  0.1300658E+00
          2   -1    0    0  502    0  0.00000000000E+00  0.00000000000E+00  0.14041584319E+04  0.14041584319E+04  0.00000000000E+00 0. -1.
          1   -1    0    0  501    0 -0.00000000000E+00 -0.00000000000E+00 -0.15772439756E+04  0.15772439756E+04  0.00000000000E+00 0. -1.
         25    2    1    2    0    0  0.26182466703E+03  0.21186540002E+03  0.56955872233E+03  0.67339492685E+03  0.12499794129E+03 0.  0.
          2    1    1    2  501    0 -0.23584446507E+03 -0.21258969646E+03 -0.15085792234E+04  0.15416316888E+04  0.00000000000E+00 0. -1.
          1    1    1    2  502    0 -0.25980201964E+02  0.72429643594E+00  0.76593495730E+03  0.76637579183E+03  0.00000000000E+00 0. -1.
         22    1    3    3    0    0  0.26215775576E+03  0.17066987149E+03  0.53445088937E+03  0.61926783146E+03  0.00000000000E+00 0. -1.
         22    1    3    3    0    0 -0.33308872103E+00  0.41195528538E+02  0.35107832958E+02  0.54127095383E+02  0.00000000000E+00 0. -1.
</event>
<event>
 7    1  0.5213103E-005  0.2167118E+03  0.7818608E-02  0.1180662E+00
          2   -1    0    0  502    0  0.00000000000E+00  0.00000000000E+00  0.28729285526E+04  0.28729285526E+04  0.00000000000E+00 0. -1.
          1   -1    0    0  501    0 -0.00000000000E+00 -0.00000000000E+00 -0.35122736382E+03  0.35122736382E+03  0.00000000000E+00 0. -1.
         25    2    1    2    0    0 -0.73502058232E+02  0.25639764290E+03 -0.23668680424E+03  0.37787313096E+03  0.12500062378E+03 0.  0.
          2    1    1    2  501    0  0.34468998079E+02 -0.13323585073E+03  0.69286922559E+02  0.15407978903E+03  0.00000000000E+00 0. -1.
          1    1    1    2  502    0  0.39033060153E+02 -0.12316179217E+03  0.26891010704E+04  0.26922029964E+04  0.00000000000E+00 0. -1.
         22    1    3    3    0    0 -0.60882642541E+02  0.11183827299E+03 -0.40040261701E+02  0.13348302523E+03  0.00000000000E+00 0.  1.
         22    1    3    3    0    0 -0.12619415691E+02  0.14455936992E+03 -0.19664654254E+03  0.24439010573E+03  0.00000000000E+00 0.  1.
</event>
<event>
 7    1  0.5213103E-005  0.4514409E+03  0.7818608E-02  0.1159724E+00
          2   -1    0    0  502    0  0.00000000000E+00  0.00000000000E+00  0.16598720596E+04  0.16598720596E+04  0.00000000000E+00 0. -1.
          1   -1    0    0  501    0 -0.00000000000E+00 -0.00000000000E+00 -0.10724075988E+04  0.10724075988E+04  0.00000000000E+00 0. -1.
         25    2    1    2    0    0  0.44423537802E+03  0.19454372554E+03  0.29980387831E+03  0.58369528826E+03  0.12500196741E+03 0.  0.
          2    1    1    2  501    0 -0.37900018538E+03 -0.23874120067E+03 -0.87514282099E+03  0.98311416353E+03  0.00000000000E+00 0. -1.
          1    1    1    2  502    0 -0.65235192641E+02  0.44197475133E+02  0.11628034035E+04  0.11654702066E+04  0.00000000000E+00 0. -1.
         22    1    3    3    0    0  0.15418699403E+03  0.13013252539E+03  0.96275741344E+02  0.22355563438E+03  0.00000000000E+00 0.  1.
         22    1    3    3    0    0  0.29004838399E+03  0.64411200150E+02  0.20352813697E+03  0.36013965388E+03  0.00000000000E+00 0.  1.
</event>
<event>
 7    1  0.5213103E-005  0.5815821E+03  0.7818608E-02  0.1226321E+00
          2   -1    0    0  502    0  0.00000000000E+00  0.00000000000E+00  0.84079990712E+03  0.84079990712E+03  0.00000000000E+00 0. -1.
          1   -1    0    0  501    0 -0.00000000000E+00 -0.00000000000E+00 -0.46094449048E+03  0.46094449048E+03  0.00000000000E+00 0. -1.
         25    2    1    2    0    0  0.30070644281E+03 -0.48448852592E+03  0.20856324721E+03  0.61990147643E+03  0.12500286353E+03 0.  0.
          2    1    1    2  501    0  0.27834669484E+02 -0.94744415403E+01 -0.42130765329E+02  0.51376407572E+02  0.00000000000E+00 0. -1.
          1    1    1    2  502    0 -0.32854111230E+03  0.49396296746E+03  0.21342293475E+03  0.63046651360E+03  0.00000000000E+00 0. -1.
         22    1    3    3    0    0 -0.11243807336E+02 -0.67674668693E+01  0.31303454668E+01  0.13491511182E+02  0.00000000000E+00 0. -1.
         22    1    3    3    0    0  0.31195025015E+03 -0.47772105905E+03  0.20543290175E+03  0.60640996525E+03  0.00000000000E+00 0. -1.
</event>
<event>
 7    1  0.5213103E-005  0.6227626E+02  0.7818608E-02  0.1405097E+00
          2   -1    0    0  502    0  0.00000000000E+00  0.00000000000E+00  0.45855118108E+02  0.45855118108E+02  0.00000000000E+00 0. -1.
          1   -1    0    0  501    0 -0.00000000000E+00 -0.00000000000E+00 -0.42191031259E+03  0.42191031259E+03  0.00000000000E+00 0. -1.
         25    2    1    2    0    0 -0.30641113897E+02 -0.87449263018E+00 -0.14420739282E+03  0.19328774278E+03  0.12499894707E+03 0.  0.
          2    1    1    2  501    0  0.20975004876E+02 -0.60647037152E+02 -0.18708076211E+03  0.19778075108E+03  0.00000000000E+00 0. -1.
          1    1    1    2  502    0  0.96661090211E+01  0.61521529782E+02 -0.44767039552E+02  0.76696936840E+02  0.00000000000E+00 0. -1.
         22    1    3    3    0    0  0.23589318739E+02 -0.28926971975E+02 -0.12318140698E+03  0.12871241079E+03  0.00000000000E+00 0.  1.
         22    1    3    3    0    0 -0.54230432636E+02  0.28052479345E+02 -0.21025985841E+02  0.64575331992E+02  0.00000000000E+00 0.  1.
</event>
<event>
 7    1  0.5213103E-005  0.2408825E+03  0.7818608E-02  0.1272328E+00
          2   -1    0    0  502    0  0.00000000000E+00  0.00000000000E+00  0.75736252931E+03  0.75736252931E+03  0.00000000000E+00 0. -1.
          1   -1    0    0  501    0 -0.00000000000E+00 -0.00000000000E+00 -0.48142224760E+03  0.48142224760E+03  0.00000000000E+00 0. -1.
         25    2    1    2    0    0 -0.25983433767E+03  0.32302349416E+02  0.40286346813E+03  0.49648080150E+03  0.12504754093E+03 0.  0.
          2    1    1    2  501    0  0.41905177292E+02  0.15854688485E+02 -0.39269881996E+03  0.39524647782E+03  0.00000000000E+00 0. -1.
          1    1    1    2  502    0  0.21792916038E+03 -0.48157037901E+02  0.26577563355E+03  0.34705749758E+03  0.00000000000E+00 0. -1.
         22    1    3    3    0    0 -0.11447864995E+03  0.72277673331E+02  0.14977267758E+03  0.20189422554E+03  0.00000000000E+00 0. -1.
         22    1    3    3    0    0 -0.14535568772E+03 -0.39975323915E+02  0.25309079056E+03  0.29458657597E+03  0.00000000000E+00 0. -1.
</event>
<event>
 7    1  0.5213103E-005  0.1279215E+03  0.7818608E-02  0.1312156E+00
          2   -1    0    0  502    0  0.00000000000E+00  0.00000000000E+00  0.60704720665E+02  0.60704720665E+02  0.00000000000E+00 0. -1.
          1   -1    0    0  501    0 -0.00000000000E+00 -0.00000000000E+00 -0.69080612930E+03  0.69080612930E+03  0.00000000000E+00 0. -1.
         25    2    1    2    0    0  0.12620392479E+03 -0.59188719813E+02 -0.25380183602E+03  0.31538962957E+03  0.12499804514E+03 0.  0.
          2    1    1    2  501    0 -0.82044338442E+02  0.97058908333E+02 -0.34984609724E+03  0.37221498749E+03  0.00000000000E+00 0. -1.
          1    1    1    2  502    0 -0.44159586344E+02 -0.37870188520E+02 -0.26453475376E+02  0.63906232905E+02  0.00000000000E+00 0. -1.
         22    1    3    3    0    0 -0.12552281629E+02  0.41404089315E+01 -0.92326096661E+02  0.93267415987E+02  0.00000000000E+00 0. -1.
         22    1    3    3    0    0  0.13875620641E+03 -0.63329128745E+02 -0.16147573935E+03  0.22212221358E+03  0.00000000000E+00 0. -1.
</event>
<event>
 7    1  0.5213103E-005  0.6245042E+03  0.7818608E-02  0.1169158E+00
          2   -1    0    0  502    0  0.00000000000E+00  0.00000000000E+00  0.32133708968E+04  0.32133708968E+04  0.00000000000E+00 0. -1.
          1   -1    0    0  501    0 -0.00000000000E+00 -0.00000000000E+00 -0.62781651131E+03  0.62781651131E+03  0.00000000000E+00 0. -1.
         25    2    1    2    0    0  0.54123564541E+03  0.26763510548E+03 -0.54372905850E+02  0.61898686497E+03  0.12499501016E+03 0.  0.
          2    1    1    2  501    0 -0.57516781934E+03 -0.30581791235E+03  0.73820404249E+02  0.65558528660E+03  0.00000000000E+00 0. -1.
          1    1    1    2  502    0  0.33932173929E+02  0.38182806874E+02  0.25661068871E+04  0.25666152566E+04  0.00000000000E+00 0. -1.
         22    1    3    3    0    0  0.24855899211E+03  0.54309209552E+02 -0.22043874048E+02  0.25537618366E+03  0.00000000000E+00 0. -1.
         22    1    3    3    0    0  0.29267665331E+03  0.21332589593E+03 -0.32329031802E+02  0.36361068131E+03  0.00000000000E+00 0. -1.
</event>
<event>
 7    1  0.5213103E-005  0.1782671E+04  0.7818608E-02  0.1119922E+00
          2   -1    0    0  502    0  0.00000000000E+00  0.00000000000E+00  0.21290837626E+04  0.21290837626E+04  0.00000000000E+00 0. -1.
          1   -1    0    0  501    0 -0.00000000000E+00 -0.00000000000E+00 -0.26513239497E+04  0.26513239497E+04  0.00000000000E+00 0. -1.
         25    2    1    2    0    0 -0.11730347181E+04 -0.13599808775E+04 -0.11601879490E+03  0.18040631196E+04  0.12499976702E+03 0.  0.
          2    1    1    2  501    0 -0.36268657904E+01  0.32054237278E+02 -0.10785201199E+04  0.10790024454E+04  0.00000000000E+00 0. -1.
          1    1    1    2  502    0  0.11766615838E+04  0.13279266402E+04  0.67229872771E+03  0.18973421473E+04  0.00000000000E+00 0. -1.
         22    1    3    3    0    0 -0.59898180079E+03 -0.74941540246E+03 -0.10824031258E+02  0.95943723233E+03  0.00000000000E+00 0.  1.
         22    1    3    3    0    0 -0.57405291726E+03 -0.61056547502E+03 -0.10519476364E+03  0.84462588725E+03  0.00000000000E+00 0.  1.
</event>
<event>
 7    1  0.5213103E-005  0.5763957E+03  0.7818608E-02  0.1180325E+00
          2   -1    0    0  502    0  0.00000000000E+00  0.00000000000E+00  0.12868585731E+04  0.12868585731E+04  0.00000000000E+00 0. -1.
          1   -1    0    0  501    0 -0.00000000000E+00 -0.00000000000E+00 -0.45392866418E+03  0.45392866418E+03  0.00000000000E+00 0. -1.
         25    2    1    2    0    0 -0.11083837971E+03  0.59376437420E+03  0.40111724386E+03  0.73577259497E+03  0.12499995879E+03 0.  0.
          2    1    1    2  501    0 -0.81067193640E+01 -0.48081449279E+02 -0.17420114562E+03  0.18089661080E+03  0.00000000000E+00 0. -1.
          1    1    1    2  502    0  0.11894509907E+03 -0.54568292492E+03  0.60601381062E+03  0.82411803148E+03  0.00000000000E+00 0. -1.
         22    1    3    3    0    0  0.26358917108E+01  0.10407187339E+03  0.22608868089E+02  0.10653198427E+03  0.00000000000E+00 0.  1.
         22    1    3    3    0    0 -0.11347427142E+03  0.48969250081E+03  0.37850837577E+03  0.62924061070E+03  0.00000000000E+00 0.  1.
</event>
<event>
 7    1  0.5213103E-005  0.6411733E+03  0.7818608E-02  0.1161729E+00
          2   -1    0    0  502    0  0.00000000000E+00  0.00000000000E+00  0.28409569746E+04  0.28409569746E+04  0.00000000000E+00 0. -1.
          1   -1    0    0  501    0 -0.00000000000E+00 -0.00000000000E+00 -0.97643261310E+03  0.97643261310E+03  0.00000000000E+00 0. -1.
         25    2    1    2    0    0  0.34905652934E+03  0.55650367628E+03 -0.50432617903E+03  0.83755961601E+03  0.12499765253E+03 0.  0.
          2    1    1    2  501    0 -0.29957647186E+03 -0.53437624425E+03  0.22660100327E+01  0.61262481807E+03  0.00000000000E+00 0. -1.
          1    1    1    2  502    0 -0.49480057485E+02 -0.22127432022E+02  0.23665845305E+04  0.23672051536E+04  0.00000000000E+00 0. -1.
         22    1    3    3    0    0  0.10876610175E+02  0.99201522668E+02 -0.81519387924E+02  0.12885904453E+03  0.00000000000E+00 0.  1.
         22    1    3    3    0    0  0.33817991917E+03  0.45730215361E+03 -0.42280679110E+03  0.70870057149E+03  0.00000000000E+00 0.  1.
</event>
<event>
 7    1  0.5213103E-005  0.1355458E+04  0.7818608E-02  0.1106229E+00
          2   -1    0    0  502    0  0.00000000000E+00  0.00000000000E+00  0.36348738865E+04  0.36348738865E+04  0.00000000000E+00 0. -1.
          1   -1    0    0  501    0 -0.00000000000E+00 -0.00000000000E+00 -0.10300690166E+04  0.10300690166E+04  0.00000000000E+00 0. -1.
         25    2    1    2    0    0  0.92279993749E+03  0.99613738680E+03  0.74934453234E+03  0.15559536731E+04  0.12500074639E+03 0.  0.
          2    1    1    2  501    0 -0.95658456918E+03 -0.95865639685E+03  0.10558916761E+03  0.13583906646E+04  0.00000000000E+00 0. -1.
          1    1    1    2  502    0  0.33784631692E+02 -0.37480989946E+02  0.17498711700E+04  0.17505985655E+04  0.00000000000E+00 0. -1.
         22    1    3    3    0    0  0.84205441393E+03  0.86671548677E+03  0.63340878690E+03  0.13643526166E+04  0.00000000000E+00 0. -1.
         22    1    3    3    0    0  0.80745523560E+02  0.12942190003E+03  0.11593574544E+03  0.19160105650E+03  0.00000000000E+00 0. -1.
</event>
<event>
 7    1  0.5213103E-005  0.2060024E+03  0.7818608E-02  0.1158565E+00
          2   -1    0    0  502    0  0.00000000000E+00  0.00000000000E+00  0.78874881145E+03  0.78874881145E+03  0.00000000000E+00 0. -1.
          1   -1    0    0  501    0 -0.00000000000E+00 -0.00000000000E+00 -0.12304974218E+04  0.12304974218E+04  0.00000000000E+00 0. -1.
         25    2    1    2    0    0 -0.35528382248E+03 -0.88083265811E+02 -0.48282580085E+02  0.38979651167E+03  0.12499942696E+03 0.  0.
          2    1    1    2  501    0  0.16153182866E+03  0.67398873051E+02 -0.98821476427E+03  0.10035953169E+04  0.00000000000E+00 0. -1.
          1    1    1    2  502    0  0.19375199382E+03  0.20684392760E+02  0.59474873403E+03  0.62585440467E+03  0.00000000000E+00 0. -1.
         22    1    3    3    0    0 -0.66286271228E+02 -0.47635283757E+02  0.31142907105E+02  0.87366301712E+02  0.00000000000E+00 0.  1.
         22    1    3    3    0    0 -0.28899755125E+03 -0.40447982054E+02 -0.79425487190E+02  0.30243020996E+03  0.00000000000E+00 0.  1.
</event>
<event>
 7    1  0.5213103E-005  0.7934182E+03  0.7818608E-02  0.1147793E+00
          2   -1    0    0  502    0  0.00000000000E+00  0.00000000000E+00  0.19517971247E+04  0.19517971247E+04  0.00000000000E+00 0. -1.
          1   -1    0    0  501    0 -0.00000000000E+00 -0.00000000000E+00 -0.61846640436E+03  0.61846640436E+03  0.00000000000E+00 0. -1.
         25    2    1    2    0    0 -0.40031203294E+02  0.76317349287E+03  0.73103970194E+03  0.10649320778E+04  0.12500002788E+03 0.  0.
          2    1    1    2  501    0  0.74153409003E+02 -0.80187138135E+03 -0.90734350082E+02  0.81038827890E+03  0.00000000000E+00 0. -1.
          1    1    1    2  502    0 -0.34122205709E+02  0.38697888481E+02  0.69302536845E+03  0.69494317236E+03  0.00000000000E+00 0. -1.
         22    1    3    3    0    0 -0.22770145318E+02  0.10408434828E+03  0.16262663021E+03  0.19442081146E+03  0.00000000000E+00 0. -1.
         22    1    3    3    0    0 -0.17261057975E+02  0.65908914459E+03  0.56841307172E+03  0.87051126630E+03  0.00000000000E+00 0. -1.
</event>
<event>
 7    1  0.5213103E-005  0.9181846E+02  0.7818608E-02  0.1404743E+00
          2   -1    0    0  502    0  0.00000000000E+00  0.00000000000E+00  0.83807868902E+03  0.83807868902E+03  0.00000000000E+00 0. -1.
          1   -1    0    0  501    0 -0.00000000000E+00 -0.00000000000E+00 -0.35983284297E+03  0.35983284297E+03  0.00000000000E+00 0. -1.
         25    2    1    2    0    0 -0.82518338116E+02 -0.58231239244E+02 -0.28944592625E+03  0.33106500365E+03  0.12499975626E+03 0.  0.
          2    1    1    2  501    0  0.46191793370E+02  0.65883118571E+02 -0.16198952549E+02  0.82077238934E+02  0.00000000000E+00 0. -1.
          1    1    1    2  502    0  0.36326544747E+02 -0.76518793264E+01  0.78389072484E+03  0.78476928941E+03  0.00000000000E+00 0. -1.
         22    1    3    3    0    0 -0.87603330632E+02  0.76202623288E+01 -0.21053630932E+03  0.22816211227E+03  0.00000000000E+00 0. -1.
         22    1    3    3    0    0  0.50849925153E+01 -0.65851501573E+02 -0.78909616933E+02  0.10290289137E+03  0.00000000000E+00 0. -1.
</event>
<event>
 7    1  0.5213103E-005  0.9386401E+02  0.7818608E-02  0.1415180E+00
          2   -1    0    0  502    0  0.00000000000E+00  0.00000000000E+00  0.26053807584E+03  0.26053807584E+03  0.00000000000E+00 0. -1.
          1   -1    0    0  501    0 -0.00000000000E+00 -0.00000000000E+00 -0.25317758275E+03  0.25317758275E+03  0.00000000000E+00 0. -1.
         25    2    1    2    0    0  0.67161107896E+02  0.73923372494E+02  0.17573057809E+03  0.23765938350E+03  0.12500186829E+03 0.  0.
          2    1    1    2  501    0 -0.32392753525E+02  0.84402321928E+01 -0.18250056725E+03  0.18554510246E+03  0.00000000000E+00 0. -1.
          1    1    1    2  502    0 -0.34768354371E+02 -0.82363604686E+02  0.14130482245E+02  0.90511172631E+02  0.00000000000E+00 0. -1.
         22    1    3    3    0    0 -0.28259292489E+02  0.56021215132E+02  0.63649590780E+02  0.89376924110E+02  0.00000000000E+00 0.  1.
         22    1    3    3    0    0  0.95420400385E+02  0.17902157362E+02  0.11208098731E+03  0.14828245939E+03  0.00000000000E+00 0.  1.
</event>
<event>
 7    1  0.5213103E-005  0.5337423E+03  0.7818608E-02  0.1125036E+00
          2   -1    0    0  502    0  0.00000000000E+00  0.00000000000E+00  0.13028619765E+04  0.13028619765E+04  0.00000000000E+00 0. -1.
          1   -1    0    0  501    0 -0.00000000000E+00 -0.00000000000E+00 -0.68681537312E+03  0.68681537312E+03  0.00000000000E+00 0. -1.
         25    2    1    2    0    0  0.34798169485E+02 -0.58237360350E+03  0.54577164582E+02  0.59914636997E+03  0.12501111591E+03 0.  0.
          2    1    1    2  501    0 -0.96150590305E+02  0.50202055613E+03 -0.25263716364E+03  0.57017112453E+03  0.00000000000E+00 0. -1.
          1    1    1    2  502    0  0.61352420820E+02  0.80353047369E+02  0.81410660244E+03  0.82035985512E+03  0.00000000000E+00 0. -1.
         22    1    3    3    0    0  0.81925051089E+01 -0.22244651817E+03 -0.39739729036E+02  0.22611682080E+03  0.00000000000E+00 0. -1.
         22    1    3    3    0    0  0.26605664376E+02 -0.35992708533E+03  0.94316893619E+02  0.37302954917E+03  0.00000000000E+00 0. -1.
</event>
<event>
 7    1  0.5213103E-005  0.1773728E+03  0.7818608E-02  0.1226036E+00
          2   -1    0    0  502    0  0.00000000000E+00  0.00000000000E+00  0.17220513345E+04  0.17220513345E+04  0.00000000000E+00 0. -1.
          1   -1    0    0  501    0 -0.00000000000E+00 -0.00000000000E+00 -0.12115893180E+03  0.12115893180E+03  0.00000000000E+00 0. -1.
         25    2    1    2    0    0  0.20209751845E+03  0.88461322646E+02  0.19811634713E+03  0.32178145669E+03  0.12499762518E+03 0.  0.
          2    1    1    2  501    0 -0.16333018132E+03  0.12072720169E+00  0.58214084572E+02  0.17339447035E+03  0.00000000000E+00 0. -1.
          1    1    1    2  502    0 -0.38767337124E+02 -0.88582049847E+02  0.13445619710E+04  0.13480343393E+04  0.00000000000E+00 0. -1.
         22    1    3    3    0    0  0.11164564028E+02  0.57409867863E+02  0.62114683037E+02  0.85315732821E+02  0.00000000000E+00 0. -1.
         22    1    3    3    0    0  0.19093295442E+03  0.31051454782E+02  0.13600166410E+03  0.23646572387E+03  0.00000000000E+00 0. -1.
</event>
<event>
 7    1  0.5213103E-005  0.2501334E+03  0.7818608E-02  0.1157036E+00
          2   -1    0    0  502    0  0.00000000000E+00  0.00000000000E+00  0.40031185153E+03  0.40031185153E+03  0.00000000000E+00 0. -1.
          1   -1    0    0  501    0 -0.00000000000E+00 -0.00000000000E+00 -0.95265621670E+03  0.95265621670E+03  0.00000000000E+00 0. -1.
         25    2    1    2    0    0 -0.21890022187E+03  0.95869458758E+02 -0.14901560787E+03  0.30812011829E+03  0.12499638255E+03 0.  0.
          2    1    1    2  501    0 -0.37797178450E+02 -0.14179552798E+03 -0.66168598905E+03  0.67776319357E+03  0.00000000000E+00 0. -1.
          1    1    1    2  502    0  0.25669740032E+03  0.45926069220E+02  0.25835723175E+03  0.36708475637E+03  0.00000000000E+00 0. -1.
         22    1    3    3    0    0 -0.14170390628E+03  0.12318080232E+03 -0.10116387721E+03  0.21327830918E+03  0.00000000000E+00 0. -1.
         22    1    3    3    0    0 -0.77196315589E+02 -0.27311343563E+02 -0.47851730660E+02  0.94841809108E+02  0.00000000000E+00 0. -1.
</event>
<event>
 7    1  0.5213103E-005  0.2288644E+03  0.7818608E-02  0.1266800E+00
          2   -1    0    0  502    0  0.00000000000E+00  0.00000000000E+00  0.11243831885E+03  0.11243831885E+03  0.00000000000E+00 0. -1.
          1   -1    0    0  501    0 -0.00000000000E+00 -0.00000000000E+00 -0.17206585556E+04  0.17206585556E+04  0.00000000000E+00 0. -1.
         25    2    1    2    0    0  0.50888450145E+02 -0.25767939771E+03 -0.75142927325E+03  0.80576657016E+03  0.12500202606E+03 0.  0.
          2    1    1    2  501    0 -0.33521200372E+02  0.21106129714E+03 -0.92135985845E+03  0.94581950223E+03  0.00000000000E+00 0. -1.
          1    1    1    2  502    0 -0.17367249773E+02  0.46618100569E+02  0.64568894927E+02  0.81510802091E+02  0.00000000000E+00 0. -1.
         22    1    3    3    0    0 -0.13562709017E+02 -0.17902865468E+03 -0.37374177751E+03  0.41463010326E+03  0.00000000000E+00 0. -1.
         22    1    3    3    0    0  0.64451159162E+02 -0.78650743028E+02 -0.37768749575E+03  0.39113646690E+03  0.00000000000E+00 0. -1.
</event>
<event>
 7    1  0.5213103E-005  0.2826125E+03  0.7818608E-02  0.1222575E+00
          2   -1    0    0  502    0  0.00000000000E+00  0.00000000000E+00  0.62879180082E+03  0.62879180082E+03  0.00000000000E+00 0. -1.
          1   -1    0    0  501    0 -0.00000000000E+00 -0.00000000000E+00 -0.29083058411E+03  0.29083058411E+03  0.00000000000E+00 0. -1.
         25    2    1    2    0    0  0.29411779989E+03  0.11101388807E+03  0.22837949207E+03  0.40818076129E+03  0.12499991173E+03 0.  0.
          2    1    1    2  501    0 -0.61619076943E+02  0.12709417937E+02 -0.13693757659E+03  0.15069950176E+03  0.00000000000E+00 0. -1.
          1    1    1    2  502    0 -0.23249872294E+03 -0.12372330601E+03  0.24651930123E+03  0.36074212188E+03  0.00000000000E+00 0. -1.
         22    1    3    3    0    0  0.27812572405E+03  0.13453882093E+03  0.20026388278E+03  0.36818505600E+03  0.00000000000E+00 0. -1.
         22    1    3    3    0    0  0.15992075834E+02 -0.23524932860E+02  0.28115609295E+02  0.39995705289E+02  0.00000000000E+00 0. -1.
</event>
<event>
 7    1  0.5213103E-005  0.5747545E+02  0.7818608E-02  0.1465200E+00
          2   -1    0    0  502    0  0.00000000000E+00  0.00000000000E+00  0.57361511597E+03  0.57361511597E+03  0.00000000000E+00 0. -1.
          1   -1    0    0  501    0 -0.00000000000E+00 -0.00000000000E+00 -0.56746950030E+03  0.56746950030E+03  0.00000000000E+00 0. -1.
         25    2    1    2    0    0  0.23259105514E+02  0.56150486540E+02  0.13376743780E+02  0.13963704778E+03  0.12500281881E+03 0.  0.
          2    1    1    2  501    0  0.14357029936E+02 -0.55845882883E+02 -0.50197485214E+03  0.50527580500E+03  0.00000000000E+00 0. -1.
          1    1    1    2  502    0 -0.37616135450E+02 -0.30460365743E+00  0.49474372402E+03  0.49617176349E+03  0.00000000000E+00 0. -1.
         22    1    3    3    0    0  0.62246292003E+01  0.20782737707E+02 -0.55926979149E+02  0.59987458623E+02  0.00000000000E+00 0. -1.
         22    1    3    3    0    0  0.17034476314E+02  0.35367748834E+02  0.69303722929E+02  0.79649589156E+02  0.00000000000E+00 0. -1.
</event>
<event>
 7    1  0.5213103E-005  0.3406572E+03  0.7818608E-02  0.1119288E+00
          2   -1    0    0  502    0  0.00000000000E+00  0.00000000000E+00  0.18615791457E+04  0.18615791457E+04  0.00000000000E+00 0. -1.
          1   -1    0    0  501    0 -0.00000000000E+00 -0.00000000000E+00 -0.94636882196E+03  0.94636882196E+03  0.00000000000E+00 0. -1.
         25    2    1    2    0    0  0.36806555229E+03 -0.29893404821E+03  0.69338309797E+03  0.84925805890E+03  0.12500125635E+03 0.  0.
          2    1    1    2  501    0 -0.13412684732E+03  0.10470439096E+03 -0.83851909673E+03  0.85560931285E+03  0.00000000000E+00 0. -1.
          1    1    1    2  502    0 -0.23393870497E+03  0.19422965725E+03  0.10603463226E+04  0.11030805960E+04  0.00000000000E+00 0. -1.
         22    1    3    3    0    0  0.39912593287E+02 -0.20484013522E+02  0.14724023659E+03  0.15392302357E+03  0.00000000000E+00 0.  1.
         22    1    3    3    0    0  0.32815295901E+03 -0.27845003469E+03  0.54614286138E+03  0.69533503533E+03  0.00000000000E+00 0.  1.
</event>
<event>
 7    1  0.5213103E-005  0.1373091E+03  0.7818608E-02  0.1283638E+00
          2   -1    0    0  502    0  0.00000000000E+00  0.00000000000E+00  0.81097249800E+02  0.81097249800E+02  0.00000000000E+00 0. -1.
          1   -1    0    0  501    0 -0.00000000000E+00 -0.00000000000E+00 -0.99332724268E+03  0.99332724268E+03  0.00000000000E+00 0. -1.
         25    2    1    2    0    0 -0.10648044170E+03  0.12642640668E+03 -0.86236079415E+02  0.22447999188E+03  0.12503153438E+03 0.  0.
          2    1    1    2  501    0  0.37540197513E+02 -0.59740033102E+02 -0.60411651006E+03  0.60822273528E+03  0.00000000000E+00 0. -1.
          1    1    1    2  502    0  0.68940244187E+02 -0.66686373573E+02 -0.22187740341E+03  0.24172176533E+03  0.00000000000E+00 0. -1.
         22    1    3    3    0    0 -0.12634071975E+03  0.93624891609E+02 -0.36064212116E+02  0.16133265382E+03  0.00000000000E+00 0. -1.
         22    1    3    3    0    0  0.19860278046E+02  0.32801515067E+02 -0.50171867299E+02  0.63147338052E+02  0.00000000000E+00 0. -1.
</event>
<event>
 7    1  0.5213103E-005  0.4288977E+03  0.7818608E-02  0.1289711E+00
          2   -1    0    0  502    0  0.00000000000E+00  0.00000000000E+00  0.16519980972E+04  0.16519980972E+04  0.00000000000E+00 0. -1.
          1   -1    0    0  501    0 -0.00000000000E+00 -0.00000000000E+00 -0.95601129273E+03  0.95601129273E+03  0.00000000000E+00 0. -1.
         25    2    1    2    0    0 -0.34496427204E+03  0.26608563702E+03 -0.61393663130E+03  0.76311433402E+03  0.12499353712E+03 0.  0.
          2    1    1    2  501    0  0.32766656547E+03 -0.25360045389E+03 -0.10690156010E+03  0.42790946693E+03  0.00000000000E+00 0. -1.
          1    1    1    2  502    0  0.17297706576E+02 -0.12485183129E+02  0.14168249958E+04  0.14169855889E+04  0.00000000000E+00 0. -1.
         22    1    3    3    0    0 -0.16030471479E+03  0.89829239588E+02 -0.16645752809E+03  0.24794153046E+03  0.00000000000E+00 0.  1.
         22    1    3    3    0    0 -0.18465955726E+03  0.17625639743E+03 -0.44747910321E+03  0.51517280357E+03  0.00000000000E+00 0.  1.
</event>
<event>
 7    1  0.5213103E-005  0.4302303E+03  0.7818608E-02  0.1175604E+00
          2   -1    0    0  502    0  0.00000000000E+00  0.00000000000E+00  0.33183932049E+04  0.33183932049E+04  0.00000000000E+00 0. -1.
          1   -1    0    0  501    0 -0.00000000000E+00 -0.00000000000E+00 -0.18201166776E+03  0.18201166776E+03  0.00000000000E+00 0. -1.
         25    2    1    2    0    0  0.39192473110E+03 -0.10556867247E+03  0.10252925849E+04  0.11097710525E+04  0.12496865490E+03 0.  0.
          2    1    1    2  501    0 -0.40344076726E+03  0.17349853855E+03  0.20736035330E+03  0.48565884290E+03  0.00000000000E+00 0. -1.
          1    1    1    2  502    0  0.11516036169E+02 -0.67929866079E+02  0.19037285989E+04  0.19049749773E+04  0.00000000000E+00 0. -1.
         22    1    3    3    0    0  0.30488221849E+03 -0.72786765643E+02  0.62982654750E+03  0.70351443506E+03  0.00000000000E+00 0. -1.
         22    1    3    3    0    0  0.87042512603E+02 -0.32781906827E+02  0.39546603744E+03  0.40625661740E+03  0.00000000000E+00 0. -1.
</event>
<event>
 7    1  0.5213103E-005  0.3724712E+03  0.7818608E-02  0.1260968E+00
          2   -1    0    0  502    0  0.00000000000E+00  0.00000000000E+00  0.10665338076E+04  0.10665338076E+04  0.00000000000E+00 0. -1.
          1   -1    0    0  501    0 -0.00000000000E+00 -0.00000000000E+00 -0.10655422147E+04  0.10655422147E+04  0.00000000000E+00 0. -1.
         25    2    1    2    0    0  0.26745982517E+03 -0.28575351223E+03 -0.38019427026E+03  0.55978730322E+03  0.12499725552E+03 0.  0.
          2    1    1    2  501    0 -0.25436488608E+03  0.25616257830E+03 -0.54053549316E+03  0.64999952396E+03  0.00000000000E+00 0. -1.
          1    1    1    2  502    0 -0.13094939084E+02  0.29590933928E+02  0.92172135634E+03  0.92228919517E+03  0.00000000000E+00 0. -1.
         22    1    3    3    0    0  0.26068970392E+03 -0.21990612003E+03 -0.28858423505E+03  0.44676468534E+03  0.00000000000E+00 0.  1.
         22    1    3    3    0    0  0.67701212497E+01 -0.65847392199E+02 -0.91610035209E+02  0.11302261788E+03  0.00000000000E+00 0.  1.
</event>
<event>
 7    1  0.5213103E-005  0.1523905E+03  0.7818608E-02  0.1403945E+00
          2   -1    0    0  502    0  0.00000000000E+00  0.00000000000E+00  0.38611921097E+04  0.38611921097E+04  0.00000000000E+00 0. -1.
          1   -1    0    0  501    0 -0.00000000000E+00 -0.00000000000E+00 -0.16861484980E+02  0.16861484980E+02  0.00000000000E+00 0. -1.
         25    2    1    2    0    0 -0.15792050174E+03 -0.12319266008E+02  0.73283876915E+03  0.76011089717E+03  0.12500106100E+03 0.  0.
          2    1    1    2  501    0  0.14018741687E+03 -0.15437508721E+01  0.15598474307E+04  0.15661350204E+04  0.00000000000E+00 0. -1.
          1    1    1    2  502    0  0.17733084863E+02  0.13863016880E+02  0.15516444249E+04  0.15518076771E+04  0.00000000000E+00 0. -1.
         22    1    3    3    0    0 -0.10155377585E+03 -0.34716598178E+02  0.23210349122E+03  0.25571554942E+03  0.00000000000E+00 0. -1.
         22    1    3    3    0    0 -0.56366725891E+02  0.22397332171E+02  0.50073527793E+03  0.50439534776E+03  0.00000000000E+00 0. -1.
</event>
<event>
 7    1  0.5213103E-005  0.2852122E+03  0.7818608E-02  0.1191926E+00
          2   -1    0    0  502    0  0.00000000000E+00  0.00000000000E+00  0.16609817320E+04  0.16609817320E+04  0.00000000000E+00 0. -1.
          1   -1    0    0  501    0 -0.00000000000E+00 -0.00000000000E+00 -0.97326216446E+03  0.97326216446E+03  0.00000000000E+00 0. -1.
         25    2    1    2    0    0  0.28135557939E+03  0.59739945092E+02 -0.35528343295E+03  0.47389969733E+03  0.12499912923E+03 0.  0.
          2    1    1    2  501    0 -0.32514307541E+02  0.80279138317E+02 -0.54248245075E+03  0.54935337409E+03  0.00000000000E+00 0. -1.
          1    1    1    2  502    0 -0.24884127185E+03 -0.14001908341E+03  0.15854854512E+04  0.16109908250E+04  0.00000000000E+00 0. -1.
         22    1    3    3    0    0 -0.15510248446E+01  0.28725214989E+02 -0.27407569139E+02  0.39733090747E+02  0.00000000000E+00 0. -1.
         22    1    3    3    0    0  0.28290660423E+03  0.31014730103E+02 -0.32787586381E+03  0.43416660658E+03  0.00000000000E+00 0. -1.
</event>
<event>
 7    1  0.5213103E-005  0.2788017E+03  0.7818608E-02  0.1233584E+00
          2   -1    0    0  502    0  0.00000000000E+00  0.00000000000E+00  0.20559513033E+03  0.20559513033E+03  0.00000000000E+00 0. -1.
          1   -1    0    0  501    0 -0.00000000000E+00 -0.00000000000E+00 -0.23608532421E+04  0.23608532421E+04  0.00000000000E+00 0. -1.
         25    2    1    2    0    0  0.76889692877E+02 -0.31125080617E+03 -0.11695011745E+04  0.12190760981E+04  0.12499778679E+03 0.  0.
          2    1    1    2  501    0  0.19595320654E+02  0.53422845960E+02 -0.10605717638E+04  0.10620971910E+04  0.00000000000E+00 0. -1.
          1    1    1    2  502    0 -0.96485013531E+02  0.25782796021E+03  0.74814826446E+02  0.28527508331E+03  0.00000000000E+00 0. -1.
         22    1    3    3    0    0 -0.32715279744E+02 -0.43486000783E+02 -0.16546137590E+03  0.17418033387E+03  0.00000000000E+00 0. -1.
         22    1    3    3    0    0  0.10960497262E+03 -0.26776480539E+03 -0.10040397986E+04  0.10448957643E+04  0.00000000000E+00 0. -1.
</event>
<event>
 7    1  0.5213103E-005  0.9543421E+02  0.7818608E-02  0.1296255E+00
          2   -1    0    0  502    0  0.00000000000E+00  0.00000000000E+00  0.43065593969E+03  0.43065593969E+03  0.00000000000E+00 0. -1.
          1   -1    0    0  501    0 -0.00000000000E+00 -0.00000000000E+00 -0.10428081838E+04  0.10428081838E+04  0.00000000000E+00 0. -1.
         25    2    1    2    0    0 -0.26047478850E+02  0.38021737197E+02 -0.43507752533E+02  0.14014935612E+03  0.12499917534E+03 0.  0.
          2    1    1    2  501    0 -0.50480218629E+02 -0.85767714417E+02 -0.94300442077E+03  0.94824136743E+03  0.00000000000E+00 0. -1.
          1    1    1    2  502    0  0.76527697479E+02  0.47745977219E+02  0.37435992915E+03  0.38507339999E+03  0.00000000000E+00 0. -1.
         22    1    3    3    0    0  0.36912021376E+01  0.27138656150E+02 -0.84225507139E+02  0.88566741408E+02  0.00000000000E+00 0.  1.
         22    1    3    3    0    0 -0.29738680987E+02  0.10883081047E+02  0.40717754605E+02  0.51582614707E+02  0.00000000000E+00 0.  1.
</event>
<event>
 7    1  0.5213103E-005  0.8471629E+03  0.7818608E-02  0.1167668E+00
          2   -1    0    0  502    0  0.00000000000E+00  0.00000000000E+00  0.25104979699E+04  0.25104979699E+04  0.00000000000E+00 0. -1.
          1   -1    0    0  501    0 -0.00000000000E+00 -0.00000000000E+00 -0.68047313453E+03  0.68047313453E+03  0.00000000000E+00 0. -1.
         25    2    1    2    0    0  0.58767772570E+03 -0.61821366423E+03  0.12824045640E+04  0.15452316947E+04  0.12500512310E+03 0.  0.
          2    1    1    2  501    0 -0.35183990732E+02 -0.15143372316E+02 -0.38694562200E+03  0.38883691866E+03  0.00000000000E+00 0. -1.
          1    1    1    2  502    0 -0.55249373497E+03  0.63335703654E+03  0.93456589345E+03  0.12569024911E+04  0.00000000000E+00 0. -1.
         22    1    3    3    0    0  0.56968838195E+03 -0.58652791074E+03  0.12612468425E+04  0.15030979477E+04  0.00000000000E+00 0.  1.
         22    1    3    3    0    0  0.17989343747E+02 -0.31685753486E+02  0.21157721454E+02  0.42133747039E+02  0.00000000000E+00 0.  1.
</event>
<event>
 7    1  0.5213103E-005  0.6446163E+03  0.7818608E-02  0.1042054E+00
          2   -1    0    0  502    0  0.00000000000E+00  0.00000000000E+00  0.80103590354E+03  0.80103590354E+03  0.00000000000E+00 0. -1.
          1   -1    0    0  501    0 -0.00000000000E+00 -0.00000000000E+00 -0.18783970246E+04  0.18783970246E+04  0.00000000000E+00 0. -1.
         25    2    1    2    0    0 -0.60756981932E+03  0.48168708904E+03  0.21745841371E+03  0.81490867374E+03  0.12499779097E+03 0.  0.
          2    1    1    2  501    0  0.15343857229E+03 -0.20302183685E+03 -0.13070277771E+04  0.13315715797E+04  0.00000000000E+00 0. -1.
          1    1    1    2  502    0  0.45413124703E+03 -0.27866525219E+03  0.12208242331E+02  0.53295267471E+03  0.00000000000E+00 0. -1.
         22    1    3    3    0    0 -0.44465374583E+03  0.33090066579E+03  0.98146620803E+02  0.56288983245E+03  0.00000000000E+00 0.  1.
         22    1    3    3    0    0 -0.16291607348E+03  0.15078642326E+03  0.11931179291E+03  0.25201884129E+03  0.00000000000E+00 0.  1.
</event>
<event>
 7    1  0.5213103E-005  0.1356620E+03  0.7818608E-02  0.1270503E+00
          2   -1    0    0  502    0  0.00000000000E+00  0.00000000000E+00  0.22939606616E+04  0.22939606616E+04  0.00000000000E+00 0. -1.
          1   -1    0    0  501    0 -0.00000000000E+00 -0.00000000000E+00 -0.77886428375E+03  0.77886428375E+03  0.00000000000E+00 0. -1.
         25    2    1    2    0    0  0.18028476182E+03 -0.96909012211E+02 -0.66538013275E+02  0.24889040275E+03  0.12500069350E+03 0.  0.
          2    1    1    2  501    0 -0.12522198806E+03  0.37547007168E+02 -0.61351693626E+03  0.62729048703E+03  0.00000000000E+00 0. -1.
          1    1    1    2  502    0 -0.55062773769E+02  0.59362005043E+02  0.21951513274E+04  0.21966440555E+04  0.00000000000E+00 0. -1.
         22    1    3    3    0    0  0.53931665139E+02 -0.46520639675E+01  0.33059343235E+02  0.63428592756E+02  0.00000000000E+00 0.  1.
         22    1    3    3    0    0  0.12635309669E+03 -0.92256948244E+02 -0.99597356509E+02  0.18546180999E+03  0.00000000000E+00 0.  1.
</event>
<event>
 7    1  0.5213103E-005  0.1383261E+04  0.7818608E-02  0.1112442E+00
          2   -1    0    0  502    0  0.00000000000E+00  0.00000000000E+00  0.32651693916E+04  0.32651693916E+04  0.00000000000E+00 0. -1.
          1   -1    0    0  501    0 -0.00000000000E+00 -0.00000000000E+00 -0.11511666303E+04  0.11511666303E+04  0.00000000000E+00 0. -1.
         25    2    1    2    0    0  0.50072625643E+03  0.12630487905E+04  0.77894452128E+03  0.15711139202E+04  0.12500140839E+03 0.  0.
          2    1    1    2  501    0 -0.49107049389E+03 -0.13076963110E+04 -0.10838215702E+03  0.14010590865E+04  0.00000000000E+00 0. -1.
          1    1    1    2  502    0 -0.96557625382E+01  0.44647520570E+02  0.14434403970E+04  0.14441630152E+04  0.00000000000E+00 0. -1.
         22    1    3    3    0    0  0.22155245328E+03  0.58485481337E+03  0.28788282386E+03  0.68848904316E+03  0.00000000000E+00 0.  1.
         22    1    3    3    0    0  0.27917380315E+03  0.67819397711E+03  0.49106169742E+03  0.88262487707E+03  0.00000000000E+00 0.  1.
</event>
<event>
 7    1  0.7645936E-005  0.2273684E+03  0.7818608E-02  0.1216137E+00
          2   -1    0    0  502    0  0.00000000000E+00  0.00000000000E+00  0.22489925534E+04  0.22489925534E+04  0.00000000000E+00 0. -1.
          1   -1    0    0  501    0 -0.00000000000E+00 -0.00000000000E+00 -0.72814737071E+03  0.72814737071E+03  0.00000000000E+00 0. -1.
         25    2    1    2    0    0  0.25820917157E+03 -0.83620012763E+02 -0.29976708641E+03  0.42326012093E+03  0.12499816421E+03 0.  0.
          2    1    1    2  501    0 -0.20767040726E+03  0.16928251262E+02 -0.33615397894E+03  0.39549091178E+03  0.00000000000E+00 0. -1.
          1    1    1    2  502    0 -0.50538764316E+02  0.66691761501E+02  0.21567662481E+04  0.21583888914E+04  0.00000000000E+00 0. -1.
         22    1    3    3    0    0 -0.51282795269E+01  0.97714581856E+01  0.28316579904E+01  0.11392933466E+02  0.00000000000E+00 0.  1.
         22    1    3    3    0    0  0.26333745110E+03 -0.93391470949E+02 -0.30259874440E+03  0.41186718747E+03  0.00000000000E+00 0.  1.
</event>
<event>
 7    1  0.5213103E-005  0.4836157E+03  0.7818608E-02  0.1254515E+00
          2   -1    0    0  502    0  0.00000000000E+00  0.00000000000E+00  0.33410860278E+04  0.33410860278E+04  0.00000000000E+00 0. -1.
          1   -1    0    0  501    0 -0.00000000000E+00 -0.00000000000E+00 -0.27368740912E+03  0.27368740912E+03  0.00000000000E+00 0. -1.
         25    2    1    2    0    0 -0.45816050031E+03  0.18452764143E+03  0.29248165213E+03  0.58747939231E+03  0.12500010027E+03 0.  0.
          2    1    1    2  501    0  0.20143133600E+02  0.17311817523E+02 -0.10447140965E+03  0.10779480642E+03  0.00000000000E+00 0. -1.
          1    1    1    2  502    0  0.43801736671E+03 -0.20183945895E+03  0.28793883762E+04  0.29194992382E+04  0.00000000000E+00 0. -1.
         22    1    3    3    0    0 -0.78452140731E+02  0.51788910924E+02  0.11306257094E+03  0.14703732393E+03  0.00000000000E+00 0.  1.
         22    1    3    3    0    0 -0.37970835958E+03  0.13273873050E+03  0.17941908119E+03  0.44044206838E+03  0.00000000000E+00 0.  1.
</event>
<event>
 7    1  0.5213103E-005  0.5486035E+03  0.7818608E-02  0.1188507E+00
          2   -1    0    0  502    0  0.00000000000E+00  0.00000000000E+00  0.19743199766E+04  0.19743199766E+04  0.00000000000E+00 0. -1.
          1   -1    0    0  501    0 -0.00000000000E+00 -0.00000000000E+00 -0.27691629255E+03  0.27691629255E+03  0.00000000000E+00 0. -1.
         25    2    1    2    0    0 -0.17448379226E+03  0.51631985289E+03  0.40652922428E+03  0.69131854705E+03  0.12499815618E+03 0.  0.
          2    1    1    2  501    0  0.43053983414E+02  0.18249253866E+02 -0.74380295083E+02  0.87858460327E+02  0.00000000000E+00 0. -1.
          1    1    1    2  502    0  0.13142980885E+03 -0.53456910676E+03  0.13652547548E+04  0.14720592617E+04  0.00000000000E+00 0. -1.
         22    1    3    3    0    0 -0.45539346016E+02  0.14319837168E+03  0.18603547960E+03  0.23914181014E+03  0.00000000000E+00 0.  1.
         22    1    3    3    0    0 -0.12894444625E+03  0.37312148121E+03  0.22049374469E+03  0.45217673691E+03  0.00000000000E+00 0.  1.
</event>
<event>
 7    1  0.5213103E-005  0.2400706E+03  0.7818608E-02  0.1186390E+00
          2   -1    0    0  502    0  0.00000000000E+00  0.00000000000E+00  0.11503936269E+04  0.11503936269E+04  0.00000000000E+00 0. -1.
          1   -1    0    0  501    0 -0.00000000000E+00 -0.00000000000E+00 -0.60261415959E+03  0.60261415959E+03  0.00000000000E+00 0. -1.
         25    2    1    2    0    0  0.72786819004E+02  0.33085791273E+03  0.30564168528E+02  0.36238746020E+03  0.12500249388E+03 0.  0.
          2    1    1    2  501    0 -0.41362597953E+02 -0.10127853416E+03 -0.41544390204E+03  0.42960661276E+03  0.00000000000E+00 0. -1.
          1    1    1    2  502    0 -0.31424221051E+02 -0.22957937856E+03  0.93265920086E+03  0.96101371357E+03  0.00000000000E+00 0. -1.
         22    1    3    3    0    0 -0.83183950965E+01  0.23361050550E+03  0.30636355742E+02  0.23575760914E+03  0.00000000000E+00 0.  1.
         22    1    3    3    0    0  0.81105214101E+02  0.97247407231E+02 -0.72187213989E-01  0.12662985106E+03  0.00000000000E+00 0.  1.
</event>
<event>
 7    1  0.5213103E-005  0.1792073E+04  0.7818608E-02  0.1044592E+00
          2   -1    0    0  502    0  0.00000000000E+00  0.00000000000E+00  0.35098227118E+04  0.35098227118E+04  0.00000000000E+00 0. -1.
          1   -1    0    0  501    0 -0.00000000000E+00 -0.00000000000E+00 -0.11631958092E+04  0.11631958092E+04  0.00000000000E+00 0. -1.
         25    2    1    2    0    0  0.17252436181E+04  0.65018573209E+03  0.11963592811E+04  0.22013877096E+04  0.12500116285E+03 0.  0.
          2    1    1    2  501    0 -0.16481356934E+04 -0.60727911211E+03  0.51519199873E+03  0.18304540364E+04  0.00000000000E+00 0. -1.
          1    1    1    2  502    0 -0.77107924689E+02 -0.42906619979E+02  0.63507562286E+03  0.64117677503E+03  0.00000000000E+00 0. -1.
         22    1    3    3    0    0  0.91864458105E+03  0.31509680798E+03  0.69553253727E+03  0.11945540486E+04  0.00000000000E+00 0. -1.
         22    1    3    3    0    0  0.80659903700E+03  0.33508892411E+03  0.50082674381E+03  0.10068336610E+04  0.00000000000E+00 0. -1.
</event>
<event>
 7    1  0.5213103E-005  0.5675206E+03  0.7818608E-02  0.1190749E+00
          2   -1    0    0  502    0  0.00000000000E+00  0.00000000000E+00  0.38493903173E+04  0.38493903173E+04  0.00000000000E+00 0. -1.
          1   -1    0    0  501    0 -0.00000000000E+00 -0.00000000000E+00 -0.84602192809E+03  0.84602192809E+03  0.00000000000E+00 0. -1.
         25    2    1    2    0    0  0.41513365265E+03  0.32483025639E+03  0.15807773301E+04  0.16710277678E+04  0.12500475359E+03 0.  0.
          2    1    1    2  501    0 -0.44241628982E+03 -0.35947420291E+03 -0.69920420568E+03  0.90213103111E+03  0.00000000000E+00 0. -1.
          1    1    1    2  502    0  0.27282637169E+02  0.34643946527E+02  0.21217952648E+04  0.21222534465E+04  0.00000000000E+00 0. -1.
         22    1    3    3    0    0  0.44897939317E+02 -0.63970338620E+00  0.19744592687E+03  0.20248735322E+03  0.00000000000E+00 0.  1.
         22    1    3    3    0    0  0.37023571333E+03  0.32546995977E+03  0.13833314032E+04  0.14685404146E+04  0.00000000000E+00 0.  1.
</event>
<event>
 7    1  0.5213103E-005  0.3550170E+03  0.7818608E-02  0.1109350E+00
          2   -1    0    0  502    0  0.00000000000E+00  0.00000000000E+00  0.26500715306E+04  0.26500715306E+04  0.00000000000E+00 0. -1.
          1   -1    0    0  501    0 -0.00000000000E+00 -0.00000000000E+00 -0.15325923844E+04  0.15325923844E+04  0.00000000000E+00 0. -1.
         25    2    1    2    0    0  0.36121653158E+03  0.19442905482E+03 -0.34258621254E+03  0.54888024188E+03  0.12499666737E+03 0.  0.
          2    1    1    2  501    0 -0.15809189367E+03  0.96311582494E+02 -0.10664997276E+04  0.10824465976E+04  0.00000000000E+00 0. -1.
          1    1    1    2  502    0 -0.20312463791E+03 -0.29074063731E+03  0.25265650864E+04  0.25513370755E+04  0.00000000000E+00 0. -1.
         22    1    3    3    0    0  0.24135305092E+03  0.16388302818E+03 -0.17366238037E+03  0.33951077224E+03  0.00000000000E+00 0. -1.
         22    1    3    3    0    0  0.11986348067E+03  0.30546026642E+02 -0.16892383217E+03  0.20936946963E+03  0.00000000000E+00 0. -1.
</event>
<event>
 7    1  0.5213103E-005  0.5432571E+02  0.7818608E-02  0.1481822E+00
          2   -1    0    0  502    0  0.00000000000E+00  0.00000000000E+00  0.44212490875E+03  0.44212490875E+03  0.00000000000E+00 0. -1.
          1   -1    0    0  501    0 -0.00000000000E+00 -0.00000000000E+00 -0.45999271184E+03  0.45999271184E+03  0.00000000000E+00 0. -1.
         25    2    1    2    0    0 -0.28297244200E+02 -0.32937146618E+02  0.23975593020E+03  0.27384910113E+03  0.12499933786E+03 0.  0.
          2    1    1    2  501    0 -0.29507704293E+02  0.19469144221E+02 -0.43746247009E+03  0.43888855639E+03  0.00000000000E+00 0. -1.
          1    1    1    2  502    0  0.57804948493E+02  0.13468002397E+02  0.17983873680E+03  0.18937996307E+03  0.00000000000E+00 0. -1.
         22    1    3    3    0    0 -0.28930580974E+02  0.45416503785E+02  0.91908549113E+02  0.10652144728E+03  0.00000000000E+00 0.  1.
         22    1    3    3    0    0  0.63333677394E+00 -0.78353650403E+02  0.14784738109E+03  0.16732765385E+03  0.00000000000E+00 0.  1.
</event>
<event>
 7    1  0.5213103E-005  0.3993546E+03  0.7818608E-02  0.1178754E+00
          2   -1    0    0  502    0  0.00000000000E+00  0.00000000000E+00  0.23240715089E+04  0.23240715089E+04  0.00000000000E+00 0. -1.
          1   -1    0    0  501    0 -0.00000000000E+00 -0.00000000000E+00 -0.18943649555E+04  0.18943649555E+04  0.00000000000E+00 0. -1.
         25    2    1    2    0    0 -0.19013671247E+03 -0.38801428380E+03  0.16640197901E+03  0.47960608047E+03  0.12500127977E+03 0.  0.
          2    1    1    2  501    0  0.22665820827E+03  0.32639264484E+03 -0.17143891581E+04  0.17598398470E+04  0.00000000000E+00 0. -1.
          1    1    1    2  502    0 -0.36521495800E+02  0.61621638965E+02  0.19776937324E+04  0.19789905369E+04  0.00000000000E+00 0. -1.
         22    1    3    3    0    0  0.13696407712E+02 -0.32611072423E+01  0.85068843494E+01  0.16449726015E+02  0.00000000000E+00 0.  1.
         22    1    3    3    0    0 -0.20383312018E+03 -0.38475317656E+03  0.15789509466E+03  0.46315635446E+03  0.00000000000E+00 0.  1.
</event>
<event>
 7    1  0.5252695E-005  0.5628522E+03  0.7818608E-02  0.1228590E+00
          2   -1    0    0  502    0  0.00000000000E+00  0.00000000000E+00  0.12320753797E+04  0.12320753797E+04  0.00000000000E+00 0. -1.
          1   -1    0    0  501    0 -0.00000000000E+00 -0.00000000000E+00 -0.13576321353E+04  0.13576321353E+04  0.00000000000E+00 0. -1.
         25    2    1    2    0    0 -0.13375548423E+03  0.53527260322E+03 -0.75502826515E+03  0.94345070422E+03  0.12499704319E+03 0.  0.
          2    1    1    2  501    0 -0.29340836183E+02  0.44393987849E+01 -0.43801634010E+03  0.43902039489E+03  0.00000000000E+00 0. -1.
          1    1    1    2  502    0  0.16309632041E+03 -0.53971200201E+03  0.10674878496E+04  0.12072364159E+04  0.00000000000E+00 0. -1.
         22    1    3    3    0    0  0.87781871167E+01  0.73469818200E+02 -0.16442085129E+03  0.18030276507E+03  0.00000000000E+00 0.  1.
         22    1    3    3    0    0 -0.14253367134E+03  0.46180278502E+03 -0.59060741386E+03  0.76314793915E+03  0.00000000000E+00 0.  1.
</event>
<event>
 7    1  0.5213103E-005  0.8649126E+03  0.7818608E-02  0.1074132E+00
          2   -1    0    0  502    0  0.00000000000E+00  0.00000000000E+00  0.29573601218E+04  0.29573601218E+04  0.00000000000E+00 0. -1.
          1   -1    0    0  501    0 -0.00000000000E+00 -0.00000000000E+00 -0.11929650955E+04  0.11929650955E+04  0.00000000000E+00 0. -1.
         25    2    1    2    0    0  0.94903340067E+03 -0.62511368208E+02  0.40544839003E+02  0.96012571729E+03  0.12500176911E+03 0.  0.
          2    1    1    2  501    0 -0.10614564930E+03 -0.57799187750E+02 -0.65370705599E+03  0.66478610095E+03  0.00000000000E+00 0. -1.
          1    1    1    2  502    0 -0.84288775137E+03  0.12031055596E+03  0.23775572432E+04  0.25254133991E+04  0.00000000000E+00 0. -1.
         22    1    3    3    0    0  0.42837659661E+02  0.23672751925E+02  0.40233568331E+01  0.49108570221E+02  0.00000000000E+00 0.  1.
         22    1    3    3    0    0  0.90619574101E+03 -0.86184120133E+02  0.36521482170E+02  0.91101714707E+03  0.00000000000E+00 0.  1.
</event>
<event>
 7    1  0.5213103E-005  0.2055539E+03  0.7818608E-02  0.1310936E+00
          2   -1    0    0  502    0  0.00000000000E+00  0.00000000000E+00  0.23810039771E+04  0.23810039771E+04  0.00000000000E+00 0. -1.
          1   -1    0    0  501    0 -0.00000000000E+00 -0.00000000000E+00 -0.95931350142E+02  0.95931350142E+02  0.00000000000E+00 0. -1.
         25    2    1    2    0    0  0.64266413846E+02 -0.19696334239E+03  0.15487068553E+03  0.28728870670E+03  0.12500056627E+03 0.  0.
          2    1    1    2  501    0 -0.96978185942E+02  0.18053473456E+03  0.32593267216E+03  0.38500605932E+03  0.00000000000E+00 0. -1.
          1    1    1    2  502    0  0.32711772096E+02  0.16428607827E+02  0.18042692692E+04  0.18046405612E+04  0.00000000000E+00 0. -1.
         22    1    3    3    0    0 -0.29494668913E+02 -0.84700286231E+02  0.90725167209E+02  0.12757401752E+03  0.00000000000E+00 0. -1.
         22    1    3    3    0    0  0.93761082759E+02 -0.11226305616E+03  0.64145518324E+02  0.15971468918E+03  0.00000000000E+00 0. -1.
</event>
<event>
 7    1  0.5213103E-005  0.2083196E+03  0.7818608E-02  0.1253574E+00
          2   -1    0    0  502    0  0.00000000000E+00  0.00000000000E+00  0.33551120083E+03  0.33551120083E+03  0.00000000000E+00 0. -1.
          1   -1    0    0  501    0 -0.00000000000E+00 -0.00000000000E+00 -0.43562872430E+03  0.43562872430E+03  0.00000000000E+00 0. -1.
         25    2    1    2    0    0  0.22568671548E+03 -0.41007769782E+02  0.93664087752E+01  0.26139736630E+03  0.12499889108E+03 0.  0.
          2    1    1    2  501    0 -0.18471337198E+03  0.87856188541E+02 -0.26933664710E+03  0.33820107795E+03  0.00000000000E+00 0. -1.
          1    1    1    2  502    0 -0.40973343501E+02 -0.46848418758E+02  0.15985271485E+03  0.17154148088E+03  0.00000000000E+00 0. -1.
         22    1    3    3    0    0  0.61782027638E+02  0.33309170839E+02 -0.31366981522E+02  0.76879173583E+02  0.00000000000E+00 0.  1.
         22    1    3    3    0    0  0.16390468784E+03 -0.74316940621E+02  0.40733390298E+02  0.18451819272E+03  0.00000000000E+00 0.  1.
</event>
<event>
 7    1  0.5213103E-005  0.3088645E+03  0.7818608E-02  0.1116457E+00
          2   -1    0    0  502    0  0.00000000000E+00  0.00000000000E+00  0.28224025379E+03  0.28224025379E+03  0.00000000000E+00 0. -1.
          1   -1    0    0  501    0 -0.00000000000E+00 -0.00000000000E+00 -0.82737116506E+03  0.82737116506E+03  0.00000000000E+00 0. -1.
         25    2    1    2    0    0  0.33715340670E+03 -0.30328310014E+03 -0.20236965150E+03  0.51208254455E+03  0.12498799182E+03 0.  0.
          2    1    1    2  501    0 -0.21446840626E+03  0.15240595059E+03 -0.29886001971E+03  0.39817280475E+03  0.00000000000E+00 0. -1.
          1    1    1    2  502    0 -0.12268500044E+03  0.15087714955E+03 -0.43901240059E+02  0.19935606956E+03  0.00000000000E+00 0. -1.
         22    1    3    3    0    0  0.31825493070E+03 -0.31528631096E+03 -0.19161626434E+03  0.48724578146E+03  0.00000000000E+00 0.  1.
         22    1    3    3    0    0  0.18898476001E+02  0.12003210817E+02 -0.10753387161E+02  0.24836763085E+02  0.00000000000E+00 0.  1.
</event>
<event>
 7    1  0.5213103E-005  0.2066225E+03  0.7818608E-02  0.1243651E+00
          2   -1    0    0  502    0  0.00000000000E+00  0.00000000000E+00  0.19974238657E+04  0.19974238657E+04  0.00000000000E+00 0. -1.
          1   -1    0    0  501    0 -0.00000000000E+00 -0.00000000000E+00 -0.58243230988E+02  0.58243230988E+02  0.00000000000E+00 0. -1.
         25    2    1    2    0    0  0.21421022339E+03  0.11614977251E+03  0.94315871053E+03  0.98211497957E+03  0.12499876160E+03 0.  0.
          2    1    1    2  501    0 -0.31351779550E+02 -0.61806811881E+02  0.10930915944E+02  0.70160537335E+02  0.00000000000E+00 0. -1.
          1    1    1    2  502    0 -0.18285844384E+03 -0.54342960632E+02  0.98509100826E+03  0.10033915798E+04  0.00000000000E+00 0. -1.
         22    1    3    3    0    0  0.64932355701E+02 -0.23419937904E+02  0.21379296150E+03  0.22466004250E+03  0.00000000000E+00 0.  1.
         22    1    3    3    0    0  0.14927786769E+03  0.13956971042E+03  0.72936574902E+03  0.75745493707E+03  0.00000000000E+00 0.  1.
</event>
<event>
 7    1  0.5213103E-005  0.7684966E+03  0.7818608E-02  0.1125181E+00
          2   -1    0    0  502    0  0.00000000000E+00  0.00000000000E+00  0.62304757222E+03  0.62304757222E+03  0.00000000000E+00 0. -1.
          1   -1    0    0  501    0 -0.00000000000E+00 -0.00000000000E+00 -0.21950778717E+04  0.21950778717E+04  0.00000000000E+00 0. -1.
         25    2    1    2    0    0 -0.50220955719E+03  0.56872940327E+03 -0.53732355934E+03  0.93808853984E+03  0.12500371070E+03 0.  0.
          2    1    1    2  501    0 -0.59908302660E+02 -0.36379160759E+02 -0.11007997714E+04  0.11030288232E+04  0.00000000000E+00 0. -1.
          1    1    1    2  502    0  0.56211785985E+03 -0.53235024251E+03  0.66093031216E+02  0.77700808093E+03  0.00000000000E+00 0. -1.
         22    1    3    3    0    0 -0.18825829942E+03  0.30258684541E+03 -0.22546853295E+03  0.42170611291E+03  0.00000000000E+00 0. -1.
         22    1    3    3    0    0 -0.31395125777E+03  0.26614255785E+03 -0.31185502639E+03  0.51638242693E+03  0.00000000000E+00 0. -1.
</event>
<event>
 7    1  0.5213103E-005  0.5342403E+03  0.7818608E-02  0.1257766E+00
          2   -1    0    0  502    0  0.00000000000E+00  0.00000000000E+00  0.90833003291E+03  0.90833003291E+03  0.00000000000E+00 0. -1.
          1   -1    0    0  501    0 -0.00000000000E+00 -0.00000000000E+00 -0.16449178375E+04  0.16449178375E+04  0.00000000000E+00 0. -1.
         25    2    1    2    0    0 -0.12110678542E+02  0.51765298645E+03  0.50146058949E+03  0.73157276346E+03  0.12499881002E+03 0.  0.
          2    1    1    2  501    0 -0.28432760501E+01 -0.53549834449E+03 -0.14824299935E+04  0.15761869327E+04  0.00000000000E+00 0. -1.
          1    1    1    2  502    0  0.14953954592E+02  0.17845358036E+02  0.24438159943E+03  0.24548817426E+03  0.00000000000E+00 0. -1.
         22    1    3    3    0    0  0.54100694128E+02  0.26862881979E+03  0.28046656056E+03  0.39210944839E+03  0.00000000000E+00 0. -1.
         22    1    3    3    0    0 -0.66211372670E+02  0.24902416667E+03  0.22099402893E+03  0.33946331507E+03  0.00000000000E+00 0. -1.
</event>
<event>
 7    1  0.5213103E-005  0.2539481E+03  0.7818608E-02  0.1121172E+00
          2   -1    0    0  502    0  0.00000000000E+00  0.00000000000E+00  0.60794445205E+03  0.60794445205E+03  0.00000000000E+00 0. -1.
          1   -1    0    0  501    0 -0.00000000000E+00 -0.00000000000E+00 -0.51249452244E+03  0.51249452244E+03  0.00000000000E+00 0. -1.
         25    2    1    2    0    0 -0.28863653616E+03  0.31978291616E+03  0.82465017306E+02  0.45606737259E+03  0.12499922314E+03 0.  0.
          2    1    1    2  501    0  0.19309108700E+03 -0.11835115332E+03 -0.23809021899E+03  0.32860023699E+03  0.00000000000E+00 0. -1.
          1    1    1    2  502    0  0.95545449164E+02 -0.20143176284E+03  0.25107513129E+03  0.33577136491E+03  0.00000000000E+00 0. -1.
         22    1    3    3    0    0 -0.24520231728E+03  0.29504388531E+03  0.10987694503E+03  0.39905891008E+03  0.00000000000E+00 0.  1.
         22    1    3    3    0    0 -0.43434218878E+02  0.24739030847E+02 -0.27411927722E+02  0.57008462514E+02  0.00000000000E+00 0.  1.
</event>
<event>
 7    1  0.5213103E-005  0.2300118E+04  0.7818608E-02  0.9058977E-01
          2   -1    0    0  502    0  0.00000000000E+00  0.00000000000E+00  0.25152644834E+04  0.25152644834E+04  0.00000000000E+00 0. -1.
          1   -1    0    0  501    0 -0.00000000000E+00 -0.00000000000E+00 -0.32799459047E+04  0.32799459047E+04  0.00000000000E+00 0. -1.
         25    2    1    2    0    0  0.18627740005E+04  0.17664820773E+04  0.57472267304E+03  0.26336890380E+04  0.12500356630E+03 0.  0.
          2    1    1    2  501    0 -0.67345537389E+03 -0.16812833979E+03 -0.87308566045E+03  0.11153868610E+04  0.00000000000E+00 0. -1.
          1    1    1    2  502    0 -0.11893186266E+04 -0.15983537375E+04 -0.46631843392E+03  0.20461344891E+04  0.00000000000E+00 0. -1.
         22    1    3    3    0    0  0.10446445263E+04  0.90684150259E+03  0.32331546808E+03  0.14206254218E+04  0.00000000000E+00 0.  1.
         22    1    3    3    0    0  0.81812947417E+03  0.85964057468E+03  0.25140720496E+03  0.12130636162E+04  0.00000000000E+00 0.  1.
</event>
<event>
 7    1  0.5213103E-005  0.8022287E+03  0.7818608E-02  0.1176912E+00
          2   -1    0    0  502    0  0.00000000000E+00  0.00000000000E+00  0.17740537015E+04  0.17740537015E+04  0.00000000000E+00 0. -1.
          1   -1    0    0  501    0 -0.00000000000E+00 -0.00000000000E+00 -0.96107230642E+03  0.96107230642E+03  0.00000000000E+00 0. -1.
         25    2    1    2    0    0 -0.35077419650E+03  0.73928989625E+03  0.19666516264E+03  0.85082304784E+03  0.12502233770E+03 0.  0.
          2    1    1    2  501    0  0.36520322718E+03 -0.70586411541E+03 -0.38446910881E+03  0.88285561798E+03  0.00000000000E+00 0. -1.
          1    1    1    2  502    0 -0.14429030681E+02 -0.33425780839E+02  0.10007853412E+04  0.10014473421E+04  0.00000000000E+00 0. -1.
         22    1    3    3    0    0 -0.42119473289E+02  0.39901307497E+02  0.39988088143E+02  0.70464257347E+02  0.00000000000E+00 0.  1.
         22    1    3    3    0    0 -0.30865472321E+03  0.69938858875E+03  0.15667707450E+03  0.78035879050E+03  0.00000000000E+00 0.  1.
</event>
<event>
 7    1  0.5213103E-005  0.5232899E+03  0.7818608E-02  0.1230815E+00
          2   -1    0    0  502    0  0.00000000000E+00  0.00000000000E+00  0.16883292163E+04  0.16883292163E+04  0.00000000000E+00 0. -1.
          1   -1    0    0  501    0 -0.00000000000E+00 -0.00000000000E+00 -0.49647988548E+03  0.49647988548E+03  0.00000000000E+00 0. -1.
         25    2    1    2    0    0 -0.54139754050E+03  0.95499447123E+02  0.85020276903E+03  0.10201480470E+04  0.12500339265E+03 0.  0.
          2    1    1    2  501    0  0.51035207336E+03 -0.92466518921E+02 -0.24750135536E+03  0.57468792994E+03  0.00000000000E+00 0. -1.
          1    1    1    2  502    0  0.31045467140E+02 -0.30329282018E+01  0.58914791717E+03  0.58997312480E+03  0.00000000000E+00 0. -1.
         22    1    3    3    0    0 -0.38745444841E+03  0.50150790978E+02  0.69274958521E+03  0.79532260073E+03  0.00000000000E+00 0.  1.
         22    1    3    3    0    0 -0.15394309209E+03  0.45348656144E+02  0.15745318382E+03  0.22482544632E+03  0.00000000000E+00 0.  1.
</event>
<event>
 7    1  0.5213103E-005  0.3024558E+03  0.7818608E-02  0.1261472E+00
          2   -1    0    0  502    0  0.00000000000E+00  0.00000000000E+00  0.12605196249E+04  0.12605196249E+04  0.00000000000E+00 0. -1.
          1   -1    0    0  501    0 -0.00000000000E+00 -0.00000000000E+00 -0.98735048696E+03  0.98735048696E+03  0.00000000000E+00 0. -1.
         25    2    1    2    0    0 -0.36281215467E+02 -0.31431394562E+03 -0.58941314838E+03  0.68054593086E+03  0.12500128604E+03 0.  0.
          2    1    1    2  501    0  0.55821082946E+02  0.27980920373E+03 -0.29421734118E+03  0.40984512641E+03  0.00000000000E+00 0. -1.
          1    1    1    2  502    0 -0.19539867479E+02  0.34504741896E+02  0.11567996275E+04  0.11574790546E+04  0.00000000000E+00 0. -1.
         22    1    3    3    0    0  0.34937358110E+02 -0.19267884347E+03 -0.38930353639E+03  0.43577861255E+03  0.00000000000E+00 0. -1.
         22    1    3    3    0    0 -0.71218573577E+02 -0.12163510216E+03 -0.20010961199E+03  0.24476731830E+03  0.00000000000E+00 0. -1.
</event>
<event>
 7    1  0.5213103E-005  0.3410856E+03  0.7818608E-02  0.1193235E+00
          2   -1    0    0  502    0  0.00000000000E+00  0.00000000000E+00  0.52567369850E+03  0.52567369850E+03  0.00000000000E+00 0. -1.
          1   -1    0    0  501    0 -0.00000000000E+00 -0.00000000000E+00 -0.31565878465E+03  0.31565878465E+03  0.00000000000E+00 0. -1.
         25    2    1    2    0    0 -0.12999743053E+03  0.36446691657E+03  0.15329494399E+03  0.43458263561E+03  0.12500904809E+03 0.  0.
          2    1    1    2  501    0  0.97199623441E+02 -0.30105629933E+03  0.12804924310E+01  0.31636103083E+03  0.00000000000E+00 0. -1.
          1    1    1    2  502    0  0.32797807088E+02 -0.63410617233E+02  0.55439477428E+02  0.90388816704E+02  0.00000000000E+00 0. -1.
         22    1    3    3    0    0 -0.42684953872E+02  0.30875526982E+02 -0.90441757878E+01  0.53451852813E+02  0.00000000000E+00 0.  1.
         22    1    3    3    0    0 -0.87312476658E+02  0.33359138958E+03  0.16233911978E+03  0.38113078280E+03  0.00000000000E+00 0.  1.
</event>
<event>
 7    1  0.5213103E-005  0.3923749E+03  0.7818608E-02  0.1290951E+00
          2   -1    0    0  502    0  0.00000000000E+00  0.00000000000E+00  0.79413971985E+03  0.79413971985E+03  0.00000000000E+00 0. -1.
          1   -1    0    0  501    0 -0.00000000000E+00 -0.00000000000E+00 -0.35594771033E+03  0.35594771033E+03  0.00000000000E+00 0. -1.
         25    2    1    2    0    0 -0.31525337525E+03 -0.22935616253E+03  0.46605840371E+03  0.62034063147E+03  0.12499249370E+03 0.  0.
          2    1    1    2  501    0  0.30390858729E+03  0.24942040848E+03 -0.13842408557E+03  0.41681194448E+03  0.00000000000E+00 0. -1.
          1    1    1    2  502    0  0.11344787957E+02 -0.20064245947E+02  0.11055769138E+03  0.11293485424E+03  0.00000000000E+00 0. -1.
         22    1    3    3    0    0 -0.16261856652E+03 -0.45646797767E+02  0.22084720339E+03  0.27803222038E+03  0.00000000000E+00 0. -1.
         22    1    3    3    0    0 -0.15263480873E+03 -0.18370936477E+03  0.24521120032E+03  0.34230841109E+03  0.00000000000E+00 0. -1.
</event>
<event>
 7    1  0.5213103E-005  0.1072330E+03  0.7818608E-02  0.1308927E+00
          2   -1    0    0  502    0  0.00000000000E+00  0.00000000000E+00  0.56083385494E+03  0.56083385494E+03  0.00000000000E+00 0. -1.
          1   -1    0    0  501    0 -0.00000000000E+00 -0.00000000000E+00 -0.26954887260E+03  0.26954887260E+03  0.00000000000E+00 0. -1.
         25    2    1    2    0    0  0.33127748941E+02 -0.48992549485E+01 -0.93093602883E+02  0.15941519421E+03  0.12500133919E+03 0.  0.
          2    1    1    2  501    0 -0.15918756755E+02  0.11074236985E+03 -0.11485920817E+03  0.16034312270E+03  0.00000000000E+00 0. -1.
          1    1    1    2  502    0 -0.17208992185E+02 -0.10584311490E+03  0.49923779339E+03  0.51062441063E+03  0.00000000000E+00 0. -1.
         22    1    3    3    0    0  0.77632242738E+02  0.17508197135E+02 -0.57118194753E+02  0.97958104572E+02  0.00000000000E+00 0. -1.
         22    1    3    3    0    0 -0.44504493797E+02 -0.22407452083E+02 -0.35975408129E+02  0.61457089641E+02  0.00000000000E+00 0. -1.
</event>
<event>
 7    1  0.5213103E-005  0.3395173E+03  0.7818608E-02  0.1263102E+00
          2   -1    0    0  502    0  0.00000000000E+00  0.00000000000E+00  0.17081206928E+03  0.17081206928E+03  0.00000000000E+00 0. -1.
          1   -1    0    0  501    0 -0.00000000000E+00 -0.00000000000E+00 -0.14733785825E+04  0.14733785825E+04  0.00000000000E+00 0. -1.
         25    2    1    2    0    0 -0.31334453722E+03 -0.19087833156E+03 -0.77766654524E+03  0.86891320649E+03  0.12500227342E+03 0.  0.
          2    1    1    2  501    0  0.29329334960E+02  0.18666294392E+02 -0.42782510864E+03  0.42923532476E+03  0.00000000000E+00 0. -1.
          1    1    1    2  502    0  0.28401520226E+03  0.17221203716E+03 -0.97074859311E+02  0.34604212051E+03  0.00000000000E+00 0. -1.
         22    1    3    3    0    0 -0.78886665918E+02 -0.20161452944E+02 -0.83652278909E+02  0.11673600135E+03  0.00000000000E+00 0.  1.
         22    1    3    3    0    0 -0.23445787130E+03 -0.17071687861E+03 -0.69401426633E+03  0.75217720514E+03  0.00000000000E+00 0.  1.
</event>
<event>
 7    1  0.5213103E-005  0.7786886E+03  0.7818608E-02  0.1189885E+00
          2   -1    0    0  502    0  0.00000000000E+00  0.00000000000E+00  0.17467252087E+04  0.17467252087E+04  0.00000000000E+00 0. -1.
          1   -1    0    0  501    0 -0.00000000000E+00 -0.00000000000E+00 -0.11918629613E+04  0.11918629613E+04  0.00000000000E+00 0. -1.
         25    2    1    2    0    0  0.19692169220E+03 -0.73636817936E+03 -0.23719695580E+03  0.80802716694E+03  0.12501703179E+03 0.  0.
          2    1    1    2  501    0 -0.21681603901E+03  0.76200016685E+03 -0.43449998107E+03  0.90357273233E+03  0.00000000000E+00 0. -1.
          1    1    1    2  502    0  0.19894346811E+02 -0.25631987487E+02  0.12265591844E+04  0.12269882707E+04  0.00000000000E+00 0. -1.
         22    1    3    3    0    0  0.14397397543E+03 -0.66223617072E+03 -0.23367320364E+03  0.71686011014E+03  0.00000000000E+00 0.  1.
         22    1    3    3    0    0  0.52947716773E+02 -0.74132008646E+02 -0.35237521636E+01  0.91167056806E+02  0.00000000000E+00 0.  1.
</event>
<event>
 7    1  0.5213103E-005  0.2064259E+03  0.7818608E-02  0.1242621E+00
          2   -1    0    0  502    0  0.00000000000E+00  0.00000000000E+00  0.20224768279E+03  0.20224768279E+03  0.00000000000E+00 0. -1.
          1   -1    0    0  501    0 -0.00000000000E+00 -0.00000000000E+00 -0.15610857086E+04  0.15610857086E+04  0.00000000000E+00 0. -1.
         25    2    1    2    0    0 -0.19083136268E+03 -0.11508416557E+03 -0.56157431996E+03  0.61696945687E+03  0.12499847888E+03 0.  0.
          2    1    1    2  501    0  0.56810743924E+02 -0.41059094910E+02 -0.90934795630E+03  0.91204551176E+03  0.00000000000E+00 0. -1.
          1    1    1    2  502    0  0.13402061875E+03  0.15614326048E+03  0.11208425044E+03  0.23431842276E+03  0.00000000000E+00 0. -1.
         22    1    3    3    0    0 -0.12662453826E+03 -0.47559234785E+02 -0.45843714875E+03  0.47797518122E+03  0.00000000000E+00 0.  1.
         22    1    3    3    0    0 -0.64206824416E+02 -0.67524930787E+02 -0.10313717121E+03  0.13899427566E+03  0.00000000000E+00 0.  1.
</event>
<event>
 7    1  0.5213103E-005  0.2320084E+03  0.7818608E-02  0.1245317E+00
          2   -1    0    0  502    0  0.00000000000E+00  0.00000000000E+00  0.13742860263E+04  0.13742860263E+04  0.00000000000E+00 0. -1.
          1   -1    0    0  501    0 -0.00000000000E+00 -0.00000000000E+00 -0.10858146943E+03  0.10858146943E+03  0.00000000000E+00 0. -1.
         25    2    1    2    0    0  0.25908302436E+03  0.45337823222E+02  0.23427540007E+03  0.37374610471E+03  0.12498662320E+03 0.  0.
          2    1    1    2  501    0 -0.31921941770E+02 -0.51619769517E+02  0.85369010448E+01  0.61290208442E+02  0.00000000000E+00 0. -1.
          1    1    1    2  502    0 -0.22716108259E+03  0.62819462953E+01  0.10228922557E+04  0.10478311825E+04  0.00000000000E+00 0. -1.
         22    1    3    3    0    0  0.19813096700E+03 -0.12884977495E+02  0.20268150440E+03  0.28372820613E+03  0.00000000000E+00 0. -1.
         22    1    3    3    0    0  0.60952057366E+02  0.58222800717E+02  0.31593895670E+02  0.90017898576E+02  0.00000000000E+00 0. -1.
</event>
<event>
 7    1  0.5213103E-005  0.8178529E+03  0.7818608E-02  0.1082959E+00
          2   -1    0    0  502    0  0.00000000000E+00  0.00000000000E+00  0.11576687170E+04  0.11576687170E+04  0.00000000000E+00 0. -1.
          1   -1    0    0  501    0 -0.00000000000E+00 -0.00000000000E+00 -0.18668418691E+04  0.18668418691E+04  0.00000000000E+00 0. -1.
         25    2    1    2    0    0 -0.29198383206E+03  0.81346938314E+03  0.32525046674E+03  0.93188023709E+03  0.12500365866E+03 0.  0.
          2    1    1    2  501    0  0.93980625247E+02 -0.63551494213E+02 -0.12754037904E+04  0.12804397599E+04  0.00000000000E+00 0. -1.
          1    1    1    2  502    0  0.19800320681E+03 -0.74991788893E+03  0.24098017147E+03  0.81219058914E+03  0.00000000000E+00 0. -1.
         22    1    3    3    0    0 -0.23447770751E+03  0.58122516966E+03  0.28798538342E+03  0.68973768509E+03  0.00000000000E+00 0. -1.
         22    1    3    3    0    0 -0.57506124545E+02  0.23224421349E+03  0.37265083315E+02  0.24214255201E+03  0.00000000000E+00 0. -1.
</event>
<event>
 7    1  0.5213103E-005  0.5386207E+03  0.7818608E-02  0.1169879E+00
          2   -1    0    0  502    0  0.00000000000E+00  0.00000000000E+00  0.17015814066E+04  0.17015814066E+04  0.00000000000E+00 0. -1.
          1   -1    0    0  501    0 -0.00000000000E+00 -0.00000000000E+00 -0.13940696184E+04  0.13940696184E+04  0.00000000000E+00 0. -1.
         25    2    1    2    0    0  0.45200717705E+02  0.57249927510E+03  0.38117570407E+03  0.70051393535E+03  0.12500532540E+03 0.  0.
          2    1    1    2  501    0 -0.35235220361E+02 -0.46997607609E+02 -0.11741295140E+04  0.11755978953E+04  0.00000000000E+00 0. -1.
          1    1    1    2  502    0 -0.99654973438E+01 -0.52550166749E+03  0.11004655981E+04  0.12195391943E+04  0.00000000000E+00 0. -1.
         22    1    3    3    0    0 -0.34184400680E+02  0.33982062789E+03  0.20976605212E+03  0.40080971672E+03  0.00000000000E+00 0. -1.
         22    1    3    3    0    0  0.79385118385E+02  0.23267864721E+03  0.17140965194E+03  0.29970421863E+03  0.00000000000E+00 0. -1.
</event>
<event>
 7    1  0.5213103E-005  0.3279188E+03  0.7818608E-02  0.1206908E+00
          2   -1    0    0  502    0  0.00000000000E+00  0.00000000000E+00  0.51492576903E+03  0.51492576903E+03  0.00000000000E+00 0. -1.
          1   -1    0    0  501    0 -0.00000000000E+00 -0.00000000000E+00 -0.89034026469E+03  0.89034026469E+03  0.00000000000E+00 0. -1.
         25    2    1    2    0    0 -0.11812946798E+03 -0.29276795071E+03 -0.35751914158E+03  0.49305959830E+03  0.12498074539E+03 0.  0.
          2    1    1    2  501    0  0.18204712931E+03  0.28930243178E+03 -0.39921203458E+03  0.52555428157E+03  0.00000000000E+00 0. -1.
          1    1    1    2  502    0 -0.63917661333E+02  0.34655189325E+01  0.38131668050E+03  0.38665215385E+03  0.00000000000E+00 0. -1.
         22    1    3    3    0    0 -0.58823105271E+00 -0.12218420413E+03 -0.77313211424E+02  0.14459134972E+03  0.00000000000E+00 0. -1.
         22    1    3    3    0    0 -0.11754123693E+03 -0.17058374658E+03 -0.28020593015E+03  0.34846824858E+03  0.00000000000E+00 0. -1.
</event>
<event>
 7    1  0.5213103E-005  0.6078984E+02  0.7818608E-02  0.1493076E+00
          2   -1    0    0  502    0  0.00000000000E+00  0.00000000000E+00  0.64166344715E+03  0.64166344715E+03  0.00000000000E+00 0. -1.
          1   -1    0    0  501    0 -0.00000000000E+00 -0.00000000000E+00 -0.37207828596E+03  0.37207828596E+03  0.00000000000E+00 0. -1.
         25    2    1    2    0    0  0.26854450839E+02 -0.35980628510E+02  0.17838830589E+03  0.22242398152E+03  0.12503708536E+03 0.  0.
          2    1    1    2  501    0 -0.54692675085E+02  0.27159998822E+02 -0.34690758066E+03  0.35224114433E+03  0.00000000000E+00 0. -1.
          1    1    1    2  502    0  0.27838224245E+02  0.88206296884E+01  0.43810443596E+03  0.43907660726E+03  0.00000000000E+00 0. -1.
         22    1    3    3    0    0  0.20539978579E+02 -0.70429986970E+02  0.17176955943E+03  0.18678076809E+03  0.00000000000E+00 0.  1.
         22    1    3    3    0    0  0.63144722601E+01  0.34449358460E+02  0.66187464655E+01  0.35643213421E+02  0.00000000000E+00 0.  1.
</event>
<event>
 7    1  0.5213103E-005  0.4743405E+03  0.7818608E-02  0.1192884E+00
          2   -1    0    0  502    0  0.00000000000E+00  0.00000000000E+00  0.79523038187E+03  0.79523038187E+03  0.00000000000E+00 0. -1.
          1   -1    0    0  501    0 -0.00000000000E+00 -0.00000000000E+00 -0.79359197689E+03  0.79359197689E+03  0.00000000000E+00 0. -1.
         25    2    1    2    0    0  0.36957156889E+03  0.31997103214E+03 -0.41138209455E+03  0.65101835761E+03  0.12500027317E+03 0.  0.
          2    1    1    2  501    0 -0.31804127321E+03 -0.32051965099E+03 -0.65725337804E+02  0.45629257956E+03  0.00000000000E+00 0. -1.
          1    1    1    2  502    0 -0.51530295684E+02  0.54861885496E+00  0.47874583733E+03  0.48151142159E+03  0.00000000000E+00 0. -1.
         22    1    3    3    0    0  0.16605492812E+01 -0.97454872528E+01 -0.13217117916E+02  0.16505276481E+02  0.00000000000E+00 0.  1.
         22    1    3    3    0    0  0.36791101961E+03  0.32971651939E+03 -0.39816497664E+03  0.63451308113E+03  0.00000000000E+00 0.  1.
</event>
<event>
 7    1  0.5213103E-005  0.7416213E+02  0.7818608E-02  0.1485094E+00
          2   -1    0    0  502    0  0.00000000000E+00  0.00000000000E+00  0.14180425815E+04  0.14180425815E+04  0.00000000000E+00 0. -1.
          1   -1    0    0  501    0 -0.00000000000E+00 -0.00000000000E+00 -0.31306188564E+02  0.31306188564E+02  0.00000000000E+00 0. -1.
         25    2    1    2    0    0 -0.47616297757E+02  0.78009742144E+02  0.63890232648E+03  0.65739957155E+03  0.12500072881E+03 0.  0.
          2    1    1    2  501    0  0.24122483186E+02 -0.68602595994E+02  0.38724318107E+02  0.82388003891E+02  0.00000000000E+00 0. -1.
          1    1    1    2  502    0  0.23493814571E+02 -0.94071461495E+01  0.70910974832E+03  0.70956119460E+03  0.00000000000E+00 0. -1.
         22    1    3    3    0    0  0.38663513369E+02  0.61791095114E+01  0.23258374923E+03  0.23585641621E+03  0.00000000000E+00 0.  1.
         22    1    3    3    0    0 -0.86279811126E+02  0.71830632633E+02  0.40631857726E+03  0.42154315534E+03  0.00000000000E+00 0.  1.
</event>
<event>
 7    1  0.5213103E-005  0.6326636E+02  0.7818608E-02  0.1506077E+00
          2   -1    0    0  502    0  0.00000000000E+00  0.00000000000E+00  0.48614742592E+03  0.48614742592E+03  0.00000000000E+00 0. -1.
          1   -1    0    0  501    0 -0.00000000000E+00 -0.00000000000E+00 -0.13252353811E+04  0.13252353811E+04  0.00000000000E+00 0. -1.
         25    2    1    2    0    0  0.29895127948E+02  0.28761044082E+02 -0.53416551465E+03  0.55016100999E+03  0.12499369402E+03 0.  0.
          2    1    1    2  501    0  0.25595711172E+02  0.18130632138E+01 -0.78076170145E+03  0.78118324488E+03  0.00000000000E+00 0. -1.
          1    1    1    2  502    0 -0.55490839120E+02 -0.30574107296E+02  0.47583926095E+03  0.48003855212E+03  0.00000000000E+00 0. -1.
         22    1    3    3    0    0  0.36210347983E+02  0.29608269276E+02 -0.53969884576E+03  0.54172196100E+03  0.00000000000E+00 0. -1.
         22    1    3    3    0    0 -0.63152200350E+01 -0.84722519442E+00  0.55333311178E+01  0.84390489914E+01  0.00000000000E+00 0. -1.
</event>
<event>
 7    1  0.5213103E-005  0.3676730E+03  0.7818608E-02  0.1205438E+00
          2   -1    0    0  502    0  0.00000000000E+00  0.00000000000E+00  0.13667687093E+04  0.13667687093E+04  0.00000000000E+00 0. -1.
          1   -1    0    0  501    0 -0.00000000000E+00 -0.00000000000E+00 -0.79243864411E+03  0.79243864411E+03  0.00000000000E+00 0. -1.
         25    2    1    2    0    0 -0.56985262308E+02 -0.41320979974E+03  0.16445759548E+02  0.43575275884E+03  0.12498137907E+03 0.  0.
          2    1    1    2  501    0  0.21065078149E+02  0.54038390207E+02 -0.55267307187E+03  0.55570802540E+03  0.00000000000E+00 0. -1.
          1    1    1    2  502    0  0.35920184159E+02  0.35917140953E+03  0.11105573775E+04  0.11677465691E+04  0.00000000000E+00 0. -1.
         22    1    3    3    0    0 -0.22363787079E+02 -0.28697265956E+02  0.33294411770E+02  0.49317237362E+02  0.00000000000E+00 0. -1.
         22    1    3    3    0    0 -0.34621475229E+02 -0.38451253378E+03 -0.16848652222E+02  0.38643552148E+03  0.00000000000E+00 0. -1.
</event>
<event>
 7    1  0.5213103E-005  0.6201950E+02  0.7818608E-02  0.1402716E+00
          2   -1    0    0  502    0  0.00000000000E+00  0.00000000000E+00  0.11174151360E+04  0.11174151360E+04  0.00000000000E+00 0. -1.
          1   -1    0    0  501    0 -0.00000000000E+00 -0.00000000000E+00 -0.13963702405E+04  0.13963702405E+04  0.00000000000E+00 0. -1.
         25    2    1    2    0    0 -0.27487302458E+02  0.93367067484E+01  0.53117733404E+03  0.54645797277E+03  0.12499691966E+03 0.  0.
          2    1    1    2  501    0 -0.16372455599E+02 -0.59819400917E+02 -0.13861018653E+04  0.13874886663E+04  0.00000000000E+00 0. -1.
          1    1    1    2  502    0  0.43859758057E+02  0.50482694169E+02  0.57596942678E+03  0.57983873739E+03  0.00000000000E+00 0. -1.
         22    1    3    3    0    0  0.23579067734E+02 -0.20928978312E+02  0.41307559733E+03  0.41427701321E+03  0.00000000000E+00 0.  1.
         22    1    3    3    0    0 -0.51066370192E+02  0.30265685060E+02  0.11810173671E+03  0.13218095956E+03  0.00000000000E+00 0.  1.
</event>
<event>
 7    1  0.5213103E-005  0.1062102E+03  0.7818608E-02  0.1291446E+00
          2   -1    0    0  502    0  0.00000000000E+00  0.00000000000E+00  0.16379852872E+03  0.16379852872E+03  0.00000000000E+00 0. -1.
          1   -1    0    0  501    0 -0.00000000000E+00 -0.00000000000E+00 -0.73438245232E+03  0.73438245232E+03  0.00000000000E+00 0. -1.
         25    2    1    2    0    0 -0.65550772342E+00  0.18467733947E+03 -0.43777718386E+03  0.49130491277E+03  0.12500202076E+03 0.  0.
          2    1    1    2  501    0  0.16773845807E+02 -0.83082349650E+02 -0.24226745839E+03  0.25666624266E+03  0.00000000000E+00 0. -1.
          1    1    1    2  502    0 -0.16118338084E+02 -0.10159498982E+03  0.10946071866E+03  0.15020982561E+03  0.00000000000E+00 0. -1.
         22    1    3    3    0    0 -0.36926974998E+02  0.11917630849E+03 -0.36942287600E+03  0.38992288379E+03  0.00000000000E+00 0. -1.
         22    1    3    3    0    0  0.36271467275E+02  0.65501030972E+02 -0.68354307865E+02  0.10138202898E+03  0.00000000000E+00 0. -1.
</event>
<event>
 7    1  0.5213103E-005  0.3377967E+03  0.7818608E-02  0.1172291E+00
          2   -1    0    0  502    0  0.00000000000E+00  0.00000000000E+00  0.10272121798E+04  0.10272121798E+04  0.00000000000E+00 0. -1.
          1   -1    0    0  501    0 -0.00000000000E+00 -0.00000000000E+00 -0.16952202854E+04  0.16952202854E+04  0.00000000000E+00 0. -1.
         25    2    1    2    0    0  0.16881768076E+03  0.38883764960E+03 -0.45001988450E+03  0.63074334495E+03  0.12500057467E+03 0.  0.
          2    1    1    2  501    0 -0.42082069174E+02 -0.80817333425E+02 -0.11233314960E+04  0.11270208480E+04  0.00000000000E+00 0. -1.
          1    1    1    2  502    0 -0.12673561159E+03 -0.30802031617E+03  0.90534327485E+03  0.96466827238E+03  0.00000000000E+00 0. -1.
         22    1    3    3    0    0  0.63413549756E+01  0.14688477426E+03 -0.11471025839E+03  0.18647732589E+03  0.00000000000E+00 0. -1.
         22    1    3    3    0    0  0.16247632579E+03  0.24195287534E+03 -0.33530962611E+03  0.44426601906E+03  0.00000000000E+00 0. -1.
</event>
<event>
 7    1  0.5213103E-005  0.9851983E+03  0.7818608E-02  0.1111653E+00
          2   -1    0    0  502    0  0.00000000000E+00  0.00000000000E+00  0.39198841727E+04  0.39198841727E+04  0.00000000000E+00 0. -1.
          1   -1    0    0  501    0 -0.00000000000E+00 -0.00000000000E+00 -0.14224450777E+04  0.14224450777E+04  0.00000000000E+00 0. -1.
         25    2    1    2    0    0 -0.10291048871E+04 -0.11891727061E+03  0.86915991048E+03  0.13580378862E+04  0.12501905613E+03 0.  0.
          2    1    1    2  501    0  0.97202770154E+03  0.88277140449E+02 -0.97536386943E+03  0.13798425214E+04  0.00000000000E+00 0. -1.
          1    1    1    2  502    0  0.57077185561E+02  0.30640130156E+02  0.26036430539E+04  0.26044488429E+04  0.00000000000E+00 0. -1.
         22    1    3    3    0    0 -0.36223801165E+02 -0.21753718570E+02  0.15424187053E+02  0.44981035878E+02  0.00000000000E+00 0.  1.
         22    1    3    3    0    0 -0.99288108594E+03 -0.97163552036E+02  0.85373572342E+03  0.13130568503E+04  0.00000000000E+00 0.  1.
</event>
<event>
 7    1  0.5213103E-005  0.3979437E+03  0.7818608E-02  0.1206205E+00
          2   -1    0    0  502    0  0.00000000000E+00  0.00000000000E+00  0.39287671293E+04  0.39287671293E+04  0.00000000000E+00 0. -1.
          1   -1    0    0  501    0 -0.00000000000E+00 -0.00000000000E+00 -0.38758868936E+03  0.38758868936E+03  0.00000000000E+00 0. -1.
         25    2    1    2    0    0 -0.16085458594E+03  0.40765222717E+03  0.12789055278E+04  0.13576742461E+04  0.12500189347E+03 0.  0.
          2    1    1    2  501    0  0.11768075534E+03 -0.37665822604E+03 -0.23602859144E+03  0.45981482729E+03  0.00000000000E+00 0. -1.
          1    1    1    2  502    0  0.43173830606E+02 -0.30994001131E+02  0.24983015036E+04  0.24988667453E+04  0.00000000000E+00 0. -1.
         22    1    3    3    0    0 -0.50953579608E+02  0.26230719180E+03  0.64663261323E+03  0.69966782592E+03  0.00000000000E+00 0. -1.
         22    1    3    3    0    0 -0.10990100633E+03  0.14534503537E+03  0.63227291455E+03  0.65800642017E+03  0.00000000000E+00 0. -1.
</event>
<event>
 7    1  0.5406914E-005  0.8221848E+03  0.7818608E-02  0.1158530E+00
          2   -1    0    0  502    0  0.00000000000E+00  0.00000000000E+00  0.21295463361E+04  0.21295463361E+04  0.00000000000E+00 0. -1.
          1   -1    0    0  501    0 -0.00000000000E+00 -0.00000000000E+00 -0.17055429346E+04  0.17055429346E+04  0.00000000000E+00 0. -1.
         25    2    1    2    0    0  0.56340913557E+03 -0.54864433906E+03 -0.15659009501E+03  0.81153350386E+03  0.12500282080E+03 0.  0.
          2    1    1    2  501    0  0.23857082096E+02 -0.36818811765E+02 -0.11256343678E+04  0.11264890214E+04  0.00000000000E+00 0. -1.
          1    1    1    2  502    0 -0.58726621766E+03  0.58546315082E+03  0.17062278644E+04  0.18970667454E+04  0.00000000000E+00 0. -1.
         22    1    3    3    0    0  0.45251462877E+03 -0.48516680927E+03 -0.16443176648E+03  0.68351600413E+03  0.00000000000E+00 0.  1.
         22    1    3    3    0    0  0.11089450679E+03 -0.63477529785E+02  0.78416714757E+01  0.12801749973E+03  0.00000000000E+00 0.  1.
</event>
<event>
 7    1  0.5213103E-005  0.1444257E+04  0.7818608E-02  0.1099898E+00
          2   -1    0    0  502    0  0.00000000000E+00  0.00000000000E+00  0.92663827368E+03  0.92663827368E+03  0.00000000000E+00 0. -1.
          1   -1    0    0  501    0 -0.00000000000E+00 -0.00000000000E+00 -0.34511994162E+04  0.34511994162E+04  0.00000000000E+00 0. -1.
         25    2    1    2    0    0  0.38427296006E+03 -0.13640492452E+04 -0.89798734748E+03  0.16823503865E+04  0.12500198246E+03 0.  0.
          2    1    1    2  501    0  0.30253564514E+02 -0.41537693314E+02 -0.11548562539E+04  0.11559989729E+04  0.00000000000E+00 0. -1.
          1    1    1    2  502    0 -0.41452652457E+03  0.14055869385E+04 -0.47171754115E+03  0.15394883305E+04  0.00000000000E+00 0. -1.
         22    1    3    3    0    0  0.33874504074E+01 -0.11998662136E+03 -0.98534783282E+02  0.15529767430E+03  0.00000000000E+00 0.  1.
         22    1    3    3    0    0  0.38088550965E+03 -0.12440626238E+04 -0.79945256419E+03  0.15270527122E+04  0.00000000000E+00 0.  1.
</event>
<event>
 7    1  0.5213103E-005  0.8451830E+03  0.7818608E-02  0.1220669E+00
          2   -1    0    0  502    0  0.00000000000E+00  0.00000000000E+00  0.72452032561E+03  0.72452032561E+03  0.00000000000E+00 0. -1.
          1   -1    0    0  501    0 -0.00000000000E+00 -0.00000000000E+00 -0.21338571938E+04  0.21338571938E+04  0.00000000000E+00 0. -1.
         25    2    1    2    0    0 -0.57993666716E+03 -0.60667207590E+03 -0.32209292164E+03  0.90760464508E+03  0.12499918404E+03 0.  0.
          2    1    1    2  501    0  0.57119962832E+03  0.62627513758E+03 -0.14003627071E+04  0.16369194466E+04  0.00000000000E+00 0. -1.
          1    1    1    2  502    0  0.87370388401E+01 -0.19603061674E+02  0.31311876054E+03  0.31385342770E+03  0.00000000000E+00 0. -1.
         22    1    3    3    0    0 -0.39316622297E+03 -0.45955202525E+03 -0.18169754396E+03  0.63149167871E+03  0.00000000000E+00 0.  1.
         22    1    3    3    0    0 -0.18677044419E+03 -0.14712005065E+03 -0.14039537768E+03  0.27611296638E+03  0.00000000000E+00 0.  1.
</event>
<event>
 7    1  0.5213103E-005  0.2575927E+03  0.7818608E-02  0.1304362E+00
          2   -1    0    0  502    0  0.00000000000E+00  0.00000000000E+00  0.14935173418E+04  0.14935173418E+04  0.00000000000E+00 0. -1.
          1   -1    0    0  501    0 -0.00000000000E+00 -0.00000000000E+00 -0.50946748151E+03  0.50946748151E+03  0.00000000000E+00 0. -1.
         25    2    1    2    0    0 -0.28723661643E+02 -0.26459729858E+03 -0.22094001908E+03  0.36779939921E+03  0.12500050750E+03 0.  0.
          2    1    1    2  501    0  0.14702829578E+01  0.24979717846E+03 -0.14233303811E+03  0.28750562749E+03  0.00000000000E+00 0. -1.
          1    1    1    2  502    0  0.27253378685E+02  0.14800120119E+02  0.13473229175E+04  0.13476797966E+04  0.00000000000E+00 0. -1.
         22    1    3    3    0    0  0.29380269193E+02 -0.15559273751E+03 -0.17501746350E+03  0.23601570438E+03  0.00000000000E+00 0. -1.
         22    1    3    3    0    0 -0.58103930836E+02 -0.10900456106E+03 -0.45922555580E+02  0.13178369483E+03  0.00000000000E+00 0. -1.
</event>
<event>
 7    1  0.5213103E-005  0.4022959E+03  0.7818608E-02  0.1197972E+00
          2   -1    0    0  502    0  0.00000000000E+00  0.00000000000E+00  0.21703305871E+04  0.21703305871E+04  0.00000000000E+00 0. -1.
          1   -1    0    0  501    0 -0.00000000000E+00 -0.00000000000E+00 -0.68452840523E+03  0.68452840523E+03  0.00000000000E+00 0. -1.
         25    2    1    2    0    0 -0.42826819310E+03 -0.48930904386E+02  0.18400197222E+03  0.48507059826E+03  0.12501552259E+03 0.  0.
          2    1    1    2  501    0  0.29757198675E+02  0.49167279312E+02 -0.51073641070E+03  0.51395971967E+03  0.00000000000E+00 0. -1.
          1    1    1    2  502    0  0.39851099443E+03 -0.23637492550E+00  0.18125366203E+04  0.18558286744E+04  0.00000000000E+00 0. -1.
         22    1    3    3    0    0 -0.20064951430E+02 -0.71681558328E+01 -0.17831829947E+02  0.27784148236E+02  0.00000000000E+00 0. -1.
         22    1    3    3    0    0 -0.40820324167E+03 -0.41762748554E+02  0.20183380217E+03  0.45728645002E+03  0.00000000000E+00 0. -1.
</event>
<event>
 7    1  0.5213103E-005  0.3935625E+03  0.7818608E-02  0.1133184E+00
          2   -1    0    0  502    0  0.00000000000E+00  0.00000000000E+00  0.74262548216E+03  0.74262548216E+03  0.00000000000E+00 0. -1.
          1   -1    0    0  501    0 -0.00000000000E+00 -0.00000000000E+00 -0.48497167028E+03  0.48497167028E+03  0.00000000000E+00 0. -1.
         25    2    1    2    0    0 -0.14584022595E+03 -0.43358658714E+03  0.18597138693E+02  0.47459155929E+03  0.12499837809E+03 0.  0.
          2    1    1    2  501    0  0.10856790042E+03  0.59977262291E+02 -0.16173381845E+03  0.20381876514E+03  0.00000000000E+00 0. -1.
          1    1    1    2  502    0  0.37272325527E+02  0.37360932485E+03  0.40079049164E+03  0.54918682801E+03  0.00000000000E+00 0. -1.
         22    1    3    3    0    0 -0.16412978369E+03 -0.36961162907E+03  0.35410656806E+02  0.40596213721E+03  0.00000000000E+00 0. -1.
         22    1    3    3    0    0  0.18289557740E+02 -0.63974958077E+02 -0.16813518112E+02  0.68629422077E+02  0.00000000000E+00 0. -1.
</event>
<event>
 7    1  0.5213103E-005  0.4834708E+03  0.7818608E-02  0.1183155E+00
          2   -1    0    0  502    0  0.00000000000E+00  0.00000000000E+00  0.16453834626E+04  0.16453834626E+04  0.00000000000E+00 0. -1.
          1   -1    0    0  501    0 -0.00000000000E+00 -0.00000000000E+00 -0.67978602604E+03  0.67978602604E+03  0.00000000000E+00 0. -1.
         25    2    1    2    0    0 -0.33872900015E+03 -0.36244774133E+03  0.15742480798E+03  0.53526956723E+03  0.12500095482E+03 0.  0.
          2    1    1    2  501    0  0.36442118047E+03  0.31233222809E+03 -0.37271107860E+03  0.60767406197E+03  0.00000000000E+00 0. -1.
          1    1    1    2  502    0 -0.25692180321E+02  0.50115513234E+02  0.11808837072E+04  0.11822258594E+04  0.00000000000E+00 0. -1.
         22    1    3    3    0    0 -0.19473098682E+02  0.43798983996E+00  0.29403363876E+02  0.35269692579E+02  0.00000000000E+00 0. -1.
         22    1    3    3    0    0 -0.31925590147E+03 -0.36288573117E+03  0.12802144410E+03  0.49999987466E+03  0.00000000000E+00 0. -1.
</event>
<event>
 7    1  0.5213103E-005  0.6285078E+03  0.7818608E-02  0.1074122E+00
          2   -1    0    0  502    0  0.00000000000E+00  0.00000000000E+00  0.13765165852E+04  0.13765165852E+04  0.00000000000E+00 0. -1.
          1   -1    0    0  501    0 -0.00000000000E+00 -0.00000000000E+00 -0.16148150865E+04  0.16148150865E+04  0.00000000000E+00 0. -1.
         25    2    1    2    0    0 -0.50658321328E+03  0.56764420242E+03 -0.17866295887E+03  0.79144850165E+03  0.12499514142E+03 0.  0.
          2    1    1    2  501    0  0.39850294936E+03 -0.44119653618E+03 -0.10440803049E+04  0.12014835276E+04  0.00000000000E+00 0. -1.
          1    1    1    2  502    0  0.10808026391E+03 -0.12644766624E+03  0.98444476240E+03  0.99839964240E+03  0.00000000000E+00 0. -1.
         22    1    3    3    0    0 -0.41214063295E+03  0.38400844960E+03 -0.11098634407E+03  0.57414315223E+03  0.00000000000E+00 0. -1.
         22    1    3    3    0    0 -0.94442580330E+02  0.18363575282E+03 -0.67676614803E+02  0.21730534942E+03  0.00000000000E+00 0. -1.
</event>
<event>
 7    1  0.5213103E-005  0.5206301E+03  0.7818608E-02  0.1193153E+00
          2   -1    0    0  502    0  0.00000000000E+00  0.00000000000E+00  0.57615773603E+03  0.57615773603E+03  0.00000000000E+00 0. -1.
          1   -1    0    0  501    0 -0.00000000000E+00 -0.00000000000E+00 -0.12929522207E+04  0.12929522207E+04  0.00000000000E+00 0. -1.
         25    2    1    2    0    0 -0.14822743963E+03  0.50860853780E+03  0.17751974334E+03  0.57253144460E+03  0.12499990880E+03 0.  0.
          2    1    1    2  501    0  0.45138129705E+02 -0.12408411606E+02 -0.77436833643E+03  0.77578201829E+03  0.00000000000E+00 0. -1.
          1    1    1    2  502    0  0.10308930993E+03 -0.49620012619E+03 -0.11994589154E+03  0.52079649380E+03  0.00000000000E+00 0. -1.
         22    1    3    3    0    0 -0.15224697761E+03  0.31815740980E+03  0.97690878589E+02  0.36598741421E+03  0.00000000000E+00 0. -1.
         22    1    3    3    0    0  0.40195379810E+01  0.19045112800E+03  0.79828864750E+02  0.20654403039E+03  0.00000000000E+00 0. -1.
</event>
<event>
 7    1  0.5213103E-005  0.3079808E+03  0.7818608E-02  0.1084650E+00
          2   -1    0    0  502    0  0.00000000000E+00  0.00000000000E+00  0.35756170953E+04  0.35756170953E+04  0.00000000000E+00 0. -1.
          1   -1    0    0  501    0 -0.00000000000E+00 -0.00000000000E+00 -0.37009387897E+03  0.37009387897E+03  0.00000000000E+00 0. -1.
         25    2    1    2    0    0 -0.22043261082E+03 -0.21709667867E+03 -0.20673357614E+03  0.39254001112E+03  0.12500953973E+03 0.  0.
          2    1    1    2  501    0  0.40566339729E+03 -0.11907929228E+02  0.59304394369E+03  0.71861374174E+03  0.00000000000E+00 0. -1.
          1    1    1    2  502    0 -0.18523078647E+03  0.22900460789E+03  0.28192128488E+04  0.28345572214E+04  0.00000000000E+00 0. -1.
         22    1    3    3    0    0 -0.15076644453E+03 -0.12701806108E+03 -0.58541000278E+02  0.20564813968E+03  0.00000000000E+00 0.  1.
         22    1    3    3    0    0 -0.69666166285E+02 -0.90078617584E+02 -0.14819257586E+03  0.18689187144E+03  0.00000000000E+00 0.  1.
</event>
<event>
 7    1  0.5213103E-005  0.3155953E+03  0.7818608E-02  0.1159977E+00
          2   -1    0    0  502    0  0.00000000000E+00  0.00000000000E+00  0.81412330363E+03  0.81412330363E+03  0.00000000000E+00 0. -1.
          1   -1    0    0  501    0 -0.00000000000E+00 -0.00000000000E+00 -0.35817871640E+03  0.35817871640E+03  0.00000000000E+00 0. -1.
         25    2    1    2    0    0 -0.12975198710E+03  0.18008530770E+03 -0.23799386183E+03  0.34861521103E+03  0.12500076355E+03 0.  0.
          2    1    1    2  501    0 -0.34590387160E+02  0.10692786122E+03  0.15742407582E+03  0.19342285810E+03  0.00000000000E+00 0. -1.
          1    1    1    2  502    0  0.16434237426E+03 -0.28701316891E+03  0.53651437324E+03  0.63026395090E+03  0.00000000000E+00 0. -1.
         22    1    3    3    0    0 -0.22069533857E+02  0.79532576047E+02 -0.19036255817E+02  0.84704628048E+02  0.00000000000E+00 0. -1.
         22    1    3    3    0    0 -0.10768245324E+03  0.10055273165E+03 -0.21895760602E+03  0.26391058298E+03  0.00000000000E+00 0. -1.
</event>
<event>
 7    1  0.5213103E-005  0.6135123E+03  0.7818608E-02  0.1011419E+00
          2   -1    0    0  502    0  0.00000000000E+00  0.00000000000E+00  0.43869327622E+03  0.43869327622E+03  0.00000000000E+00 0. -1.
          1   -1    0    0  501    0 -0.00000000000E+00 -0.00000000000E+00 -0.19448241900E+04  0.19448241900E+04  0.00000000000E+00 0. -1.
         25    2    1    2    0    0 -0.41573326309E+03 -0.75225121047E+03 -0.42392339244E+03  0.96646495488E+03  0.12500974625E+03 0.  0.
          2    1    1    2  501    0  0.12628853189E+03  0.40321755543E+03 -0.72773816888E+03  0.84150818935E+03  0.00000000000E+00 0. -1.
          1    1    1    2  502    0  0.28944473119E+03  0.34903365504E+03 -0.35446935251E+03  0.57554432204E+03  0.00000000000E+00 0. -1.
         22    1    3    3    0    0 -0.25946817276E+03 -0.46554757710E+03 -0.19429440773E+03  0.56728176077E+03  0.00000000000E+00 0. -1.
         22    1    3    3    0    0 -0.15626509033E+03 -0.28670363336E+03 -0.22962898472E+03  0.39918319411E+03  0.00000000000E+00 0. -1.
</event>
<event>
 7    1  0.5213103E-005  0.1866965E+03  0.7818608E-02  0.1266377E+00
          2   -1    0    0  502    0  0.00000000000E+00  0.00000000000E+00  0.17088356393E+03  0.17088356393E+03  0.00000000000E+00 0. -1.
          1   -1    0    0  501    0 -0.00000000000E+00 -0.00000000000E+00 -0.90593242734E+03  0.90593242734E+03  0.00000000000E+00 0. -1.
         25    2    1    2    0    0 -0.67713631424E+02  0.23036485687E+03 -0.39812661939E+03  0.48143336717E+03  0.12498071370E+03 0.  0.
          2    1    1    2  501    0  0.20882683874E+02 -0.57564586251E+02 -0.40068203318E+03  0.40533425687E+03  0.00000000000E+00 0. -1.
          1    1    1    2  502    0  0.46830947551E+02 -0.17280027062E+03  0.63759789157E+02  0.19004836723E+03  0.00000000000E+00 0. -1.
         22    1    3    3    0    0 -0.10361691690E+03  0.14773265393E+03 -0.25798189924E+03  0.31482703639E+03  0.00000000000E+00 0. -1.
         22    1    3    3    0    0  0.35903285478E+02  0.82632202937E+02 -0.14014472016E+03  0.16660633079E+03  0.00000000000E+00 0. -1.
</event>
<event>
 7    1  0.5213103E-005  0.3154389E+03  0.7818608E-02  0.1209455E+00
          2   -1    0    0  502    0  0.00000000000E+00  0.00000000000E+00  0.91347758123E+03  0.91347758123E+03  0.00000000000E+00 0. -1.
          1   -1    0    0  501    0 -0.00000000000E+00 -0.00000000000E+00 -0.61388874036E+03  0.61388874036E+03  0.00000000000E+00 0. -1.
         25    2    1    2    0    0 -0.71382741174E+02  0.35675902891E+03 -0.43781039315E+02  0.38718758087E+03  0.12499977172E+03 0.  0.
          2    1    1    2  501    0  0.51921483496E+02 -0.29499946303E+03 -0.34035781344E+03  0.45339162410E+03  0.00000000000E+00 0. -1.
          1    1    1    2  502    0  0.19461257678E+02 -0.61759565879E+02  0.68372769362E+03  0.68678711662E+03  0.00000000000E+00 0. -1.
         22    1    3    3    0    0 -0.28504594063E+02  0.31804553478E+03 -0.83718337740E+01  0.31943005757E+03  0.00000000000E+00 0.  1.
         22    1    3    3    0    0 -0.42878147111E+02  0.38713494134E+02 -0.35409205541E+02  0.67757523308E+02  0.00000000000E+00 0.  1.
</event>
<event>
 7    1  0.5213103E-005  0.1785923E+03  0.7818608E-02  0.1322273E+00
          2   -1    0    0  502    0  0.00000000000E+00  0.00000000000E+00  0.90476856299E+03  0.90476856299E+03  0.00000000000E+00 0. -1.
          1   -1    0    0  501    0 -0.00000000000E+00 -0.00000000000E+00 -0.25564236330E+03  0.25564236330E+03  0.00000000000E+00 0. -1.
         25    2    1    2    0    0  0.13235252831E+03  0.12703234360E+03 -0.18814131180E+03  0.29099413400E+03  0.12500409892E+03 0.  0.
          2    1    1    2  501    0 -0.10915493908E+03 -0.96867909134E+02  0.33128560075E+03  0.36200599692E+03  0.00000000000E+00 0. -1.
          1    1    1    2  502    0 -0.23197589230E+02 -0.30164434465E+02  0.50598191074E+03  0.50741079537E+03  0.00000000000E+00 0. -1.
         22    1    3    3    0    0  0.36438805151E+02  0.36810269002E+02 -0.14251276992E+03  0.15163334730E+03  0.00000000000E+00 0. -1.
         22    1    3    3    0    0  0.95913723157E+02  0.90222074597E+02 -0.45628541886E+02  0.13936078670E+03  0.00000000000E+00 0. -1.
</event>
<event>
 7    1  0.5213103E-005  0.1787625E+03  0.7818608E-02  0.1336541E+00
          2   -1    0    0  502    0  0.00000000000E+00  0.00000000000E+00  0.61831673657E+03  0.61831673657E+03  0.00000000000E+00 0. -1.
          1   -1    0    0  501    0 -0.00000000000E+00 -0.00000000000E+00 -0.32038195216E+03  0.32038195216E+03  0.00000000000E+00 0. -1.
         25    2    1    2    0    0  0.68879174953E+02  0.15154096387E+03 -0.15180917405E+03  0.25764366818E+03  0.12500091982E+03 0.  0.
          2    1    1    2  501    0 -0.73636560130E+02 -0.18473012361E+03 -0.29148287617E+02  0.20099050781E+03  0.00000000000E+00 0. -1.
          1    1    1    2  502    0  0.47573851768E+01  0.33189159741E+02  0.47889224608E+03  0.48006451274E+03  0.00000000000E+00 0. -1.
         22    1    3    3    0    0 -0.37350283008E+01  0.11073755230E+03 -0.13141262956E+03  0.17188960159E+03  0.00000000000E+00 0. -1.
         22    1    3    3    0    0  0.72614203254E+02  0.40803411569E+02 -0.20396544487E+02  0.85754066591E+02  0.00000000000E+00 0. -1.
</event>
<event>
 7    1  0.5213103E-005  0.5179358E+03  0.7818608E-02  0.1070985E+00
          2   -1    0    0  502    0  0.00000000000E+00  0.00000000000E+00  0.16465192075E+04  0.16465192075E+04  0.00000000000E+00 0. -1.
          1   -1    0    0  501    0 -0.00000000000E+00 -0.00000000000E+00 -0.25406772270E+04  0.25406772270E+04  0.00000000000E+00 0. -1.
         25    2    1    2    0    0 -0.71428965074E+03  0.80809210307E+01  0.53478159705E+03  0.90104990107E+03  0.12499824489E+03 0.  0.
          2    1    1    2  501    0  0.50894072096E+03  0.39080277860E+02 -0.23174488927E+04  0.23729975339E+04  0.00000000000E+00 0. -1.
          1    1    1    2  502    0  0.20534892978E+03 -0.47161198891E+02  0.88850927608E+03  0.91314899952E+03  0.00000000000E+00 0. -1.
         22    1    3    3    0    0 -0.13490281317E+02  0.23648311737E+01 -0.68562868167E+01  0.15316291503E+02  0.00000000000E+00 0.  1.
         22    1    3    3    0    0 -0.70079936942E+03  0.57160898571E+01  0.54163788387E+03  0.88573360956E+03  0.00000000000E+00 0.  1.
</event>
<event>
 7    1  0.5213103E-005  0.3502735E+03  0.7818608E-02  0.1073934E+00
          2   -1    0    0  502    0  0.00000000000E+00  0.00000000000E+00  0.13761187279E+04  0.13761187279E+04  0.00000000000E+00 0. -1.
          1   -1    0    0  501    0 -0.00000000000E+00 -0.00000000000E+00 -0.35395397161E+03  0.35395397161E+03  0.00000000000E+00 0. -1.
         25    2    1    2    0    0 -0.36771763304E+03  0.27005490347E+03 -0.52056224271E+02  0.47589986632E+03  0.12499969499E+03 0.  0.
          2    1    1    2  501    0  0.21395605268E+02 -0.29847672957E+03  0.52340342873E+03  0.60290735543E+03  0.00000000000E+00 0. -1.
          1    1    1    2  502    0  0.34632202777E+03  0.28421826103E+02  0.55081755180E+03  0.65126547774E+03  0.00000000000E+00 0. -1.
         22    1    3    3    0    0 -0.87084171952E+02  0.11998166444E+03 -0.53627878969E+02  0.15765532725E+03  0.00000000000E+00 0. -1.
         22    1    3    3    0    0 -0.28063346109E+03  0.15007323903E+03  0.15716546982E+01  0.31824453907E+03  0.00000000000E+00 0. -1.
</event>
<event>
 7    1  0.5213103E-005  0.1456474E+03  0.7818608E-02  0.1269760E+00
          2   -1    0    0  502    0  0.00000000000E+00  0.00000000000E+00  0.21275300711E+04  0.21275300711E+04  0.00000000000E+00 0. -1.
          1   -1    0    0  501    0 -0.00000000000E+00 -0.00000000000E+00 -0.27925324932E+03  0.27925324932E+03  0.00000000000E+00 0. -1.
         25    2    1    2    0    0 -0.20567168551E+03 -0.70988139041E+00  0.99617976347E+03  0.10248413267E+04  0.12499711012E+03 0.  0.
          2    1    1    2  501    0  0.75904229121E+02  0.29141372142E+01 -0.25560984201E+03  0.26665771229E+03  0.00000000000E+00 0. -1.
          1    1    1    2  502    0  0.12976745639E+03 -0.22042558237E+01  0.11077069003E+04  0.11152842815E+04  0.00000000000E+00 0. -1.
         22    1    3    3    0    0  0.15730417669E+02  0.55344197465E+01  0.39865625260E+02  0.43212774955E+02  0.00000000000E+00 0. -1.
         22    1    3    3    0    0 -0.22140210318E+03 -0.62443011369E+01  0.95631413821E+03  0.98162855171E+03  0.00000000000E+00 0. -1.
</event>
<event>
 7    1  0.5213103E-005  0.6703034E+03  0.7818608E-02  0.1161477E+00
          2   -1    0    0  502    0  0.00000000000E+00  0.00000000000E+00  0.15445209405E+04  0.15445209405E+04  0.00000000000E+00 0. -1.
          1   -1    0    0  501    0 -0.00000000000E+00 -0.00000000000E+00 -0.10044791044E+04  0.10044791044E+04  0.00000000000E+00 0. -1.
         25    2    1    2    0    0  0.68244202743E+03 -0.47909550925E+02 -0.62163949335E+02  0.69822060472E+03  0.12500084153E+03 0.  0.
          2    1    1    2  501    0 -0.15095453359E+02  0.49758984826E+02 -0.53214757137E+03  0.53468202419E+03  0.00000000000E+00 0. -1.
          1    1    1    2  502    0 -0.66734657407E+03 -0.18494339010E+01  0.11343533568E+04  0.13160974160E+04  0.00000000000E+00 0. -1.
         22    1    3    3    0    0  0.17466044248E+03 -0.50172887302E+02  0.23573843498E+02  0.18324659584E+03  0.00000000000E+00 0.  1.
         22    1    3    3    0    0  0.50778158495E+03  0.22633363771E+01 -0.85737792833E+02  0.51497400888E+03  0.00000000000E+00 0.  1.
</event>
<event>
 7    1  0.5213103E-005  0.3904789E+03  0.7818608E-02  0.1122387E+00
          2   -1    0    0  502    0  0.00000000000E+00  0.00000000000E+00  0.11625202680E+04  0.11625202680E+04  0.00000000000E+00 0. -1.
          1   -1    0    0  501    0 -0.00000000000E+00 -0.00000000000E+00 -0.19905052648E+04  0.19905052648E+04  0.00000000000E+00 0. -1.
         25    2    1    2    0    0 -0.23820854364E+03  0.40511157774E+03  0.94054679313E+02  0.49530906895E+03  0.12500436154E+03 0.  0.
          2    1    1    2  501    0  0.13638179426E+03 -0.42368469982E+02 -0.17459325377E+04  0.17517635421E+04  0.00000000000E+00 0. -1.
          1    1    1    2  502    0  0.10182674938E+03 -0.36274310776E+03  0.82389286163E+03  0.90595292182E+03  0.00000000000E+00 0. -1.
         22    1    3    3    0    0 -0.12066821434E+03  0.30115823273E+03  0.29975921278E+02  0.32581536941E+03  0.00000000000E+00 0. -1.
         22    1    3    3    0    0 -0.11754032930E+03  0.10395334502E+03  0.64078758035E+02  0.16949369954E+03  0.00000000000E+00 0. -1.
</event>
<event>
 7    1  0.5213103E-005  0.3896747E+03  0.7818608E-02  0.1240538E+00
          2   -1    0    0  502    0  0.00000000000E+00  0.00000000000E+00  0.31508800114E+04  0.31508800114E+04  0.00000000000E+00 0. -1.
          1   -1    0    0  501    0 -0.00000000000E+00 -0.00000000000E+00 -0.56566395423E+03  0.56566395423E+03  0.00000000000E+00 0. -1.
         25    2    1    2    0    0  0.37323985052E+03  0.50637239467E+02 -0.29277398666E+03  0.49317184639E+03  0.12501898562E+03 0.  0.
          2    1    1    2  501    0  0.16548253210E+02 -0.34122963720E+02 -0.15796432197E+03  0.16245291118E+03  0.00000000000E+00 0. -1.
          1    1    1    2  502    0 -0.38978810373E+03 -0.16514275748E+02  0.30359543658E+04  0.30609192081E+04  0.00000000000E+00 0. -1.
         22    1    3    3    0    0  0.14639506076E+03 -0.38467536214E+02 -0.13518107947E+03  0.20294134473E+03  0.00000000000E+00 0. -1.
         22    1    3    3    0    0  0.22684478976E+03  0.89104775682E+02 -0.15759290719E+03  0.29023050165E+03  0.00000000000E+00 0. -1.
</event>
<event>
 7    1  0.5213103E-005  0.2933281E+03  0.7818608E-02  0.1237180E+00
          2   -1    0    0  502    0  0.00000000000E+00  0.00000000000E+00  0.62069057887E+03  0.62069057887E+03  0.00000000000E+00 0. -1.
          1   -1    0    0  501    0 -0.00000000000E+00 -0.00000000000E+00 -0.74899577736E+03  0.74899577736E+03  0.00000000000E+00 0. -1.
         25    2    1    2    0    0 -0.30561734077E+03 -0.11915429205E+03  0.19255529935E+03  0.40037805092E+03  0.12500134422E+03 0.  0.
          2    1    1    2  501    0  0.25610145045E+03  0.13545838805E+03 -0.61010690692E+03  0.67540163287E+03  0.00000000000E+00 0. -1.
          1    1    1    2  502    0  0.49515890324E+02 -0.16304095999E+02  0.28924640908E+03  0.29390667245E+03  0.00000000000E+00 0. -1.
         22    1    3    3    0    0 -0.23978774038E+03 -0.90765936291E+02  0.83075757187E+02  0.26951474368E+03  0.00000000000E+00 0. -1.
         22    1    3    3    0    0 -0.65829600386E+02 -0.28388355757E+02  0.10947954216E+03  0.13086330724E+03  0.00000000000E+00 0. -1.
</event>
<event>
 7    1  0.5213103E-005  0.5372340E+03  0.7818608E-02  0.1144662E+00
          2   -1    0    0  502    0  0.00000000000E+00  0.00000000000E+00  0.10689817562E+04  0.10689817562E+04  0.00000000000E+00 0. -1.
          1   -1    0    0  501    0 -0.00000000000E+00 -0.00000000000E+00 -0.19951426725E+04  0.19951426725E+04  0.00000000000E+00 0. -1.
         25    2    1    2    0    0 -0.27560812397E+03 -0.39215357738E+03 -0.16939301839E+03  0.52350897377E+03  0.12499353857E+03 0.  0.
          2    1    1    2  501    0  0.34339325796E+03  0.43291129577E+03 -0.16004910350E+04  0.16931930406E+04  0.00000000000E+00 0. -1.
          1    1    1    2  502    0 -0.67785133998E+02 -0.40757718391E+02  0.84372313718E+03  0.84742241427E+03  0.00000000000E+00 0. -1.
         22    1    3    3    0    0 -0.20573254873E+03 -0.30985264193E+03 -0.73538081564E+02  0.37913373729E+03  0.00000000000E+00 0.  1.
         22    1    3    3    0    0 -0.69875575238E+02 -0.82300935454E+02 -0.95854936830E+02  0.14437523647E+03  0.00000000000E+00 0.  1.
</event>
