<event>
 7    1  0.6146596E-006  0.1177750E+03  0.7818608E-02  0.1310324E+00
          2   -1    0    0  502    0  0.00000000000E+00  0.00000000000E+00  0.25529987586E+03  0.25529987586E+03  0.00000000000E+00 0. -1.
          1   -1    0    0  501    0 -0.00000000000E+00 -0.00000000000E+00 -0.65187025297E+03  0.65187025297E+03  0.00000000000E+00 0. -1.
         25    2    1    2    0    0 -0.30944939981E+02  0.92839413090E+02 -0.25571413813E+03  0.30098477363E+03  0.12500147033E+03 0.  0.
          2    1    1    2  501    0 -0.61883237962E+02 -0.17252787683E+02 -0.35504679305E+03  0.36081216592E+03  0.00000000000E+00 0. -1.
          1    1    1    2  502    0  0.92828177944E+02 -0.75586625407E+02  0.21419055407E+03  0.24537318927E+03  0.00000000000E+00 0. -1.
         22    1    3    3    0    0 -0.26206465890E+02 -0.14368121960E+02 -0.78696871578E+01  0.30905561944E+02  0.00000000000E+00 0. -1.
         22    1    3    3    0    0 -0.47384740909E+01  0.10720753505E+03 -0.24784445097E+03  0.27007921169E+03  0.00000000000E+00 0. -1.
</event>
<event>
 7    1  0.6146596E-006  0.1143994E+03  0.7818608E-02  0.1314144E+00
          2   -1    0    0  502    0  0.00000000000E+00  0.00000000000E+00  0.68705346582E+02  0.68705346582E+02  0.00000000000E+00 0. -1.
          1   -1    0    0  501    0 -0.00000000000E+00 -0.00000000000E+00 -0.28895687250E+04  0.28895687250E+04  0.00000000000E+00 0. -1.
         25    2    1    2    0    0  0.79897672587E+02 -0.58409218295E+02 -0.15991632862E+04  0.16070914793E+04  0.12499812730E+03 0.  0.
          2    1    1    2  501    0 -0.13219072056E+03  0.21697134098E+02 -0.12662341640E+04  0.12733004792E+04  0.00000000000E+00 0. -1.
          1    1    1    2  502    0  0.52293047970E+02  0.36712084196E+02  0.44534071815E+02  0.77882113123E+02  0.00000000000E+00 0. -1.
         22    1    3    3    0    0  0.24537404295E+02  0.33356833824E+02 -0.75770868485E+03  0.75883938595E+03  0.00000000000E+00 0.  1.
         22    1    3    3    0    0  0.55360268292E+02 -0.91766052118E+02 -0.84145460137E+03  0.84825209331E+03  0.00000000000E+00 0.  1.
</event>
<event>
 7    1  0.6146596E-006  0.1388421E+03  0.7818608E-02  0.1278152E+00
          2   -1    0    0  502    0  0.00000000000E+00  0.00000000000E+00  0.14490184937E+04  0.14490184937E+04  0.00000000000E+00 0. -1.
          1   -1    0    0  501    0 -0.00000000000E+00 -0.00000000000E+00 -0.32435479331E+03  0.32435479331E+03  0.00000000000E+00 0. -1.
         25    2    1    2    0    0  0.85619472453E+02  0.10433157968E+03 -0.19718394451E+03  0.26966924797E+03  0.12499689095E+03 0.  0.
          2    1    1    2  501    0 -0.31780010151E+02 -0.15438267031E+03 -0.20852513431E+02  0.15899309813E+03  0.00000000000E+00 0. -1.
          1    1    1    2  502    0 -0.53839462302E+02  0.50051090635E+02  0.13427001583E+04  0.13447109409E+04  0.00000000000E+00 0. -1.
         22    1    3    3    0    0  0.32025365604E+02 -0.25007146448E+02 -0.67759912565E+02  0.79008779046E+02  0.00000000000E+00 0. -1.
         22    1    3    3    0    0  0.53594106849E+02  0.12933872613E+03 -0.12942403195E+03  0.19066046893E+03  0.00000000000E+00 0. -1.
</event>
<event>
 7    1  0.6146596E-006  0.6218624E+02  0.7818608E-02  0.1391694E+00
          2   -1    0    0  502    0  0.00000000000E+00  0.00000000000E+00  0.28974901473E+03  0.28974901473E+03  0.00000000000E+00 0. -1.
          1   -1    0    0  501    0 -0.00000000000E+00 -0.00000000000E+00 -0.24960571542E+03  0.24960571542E+03  0.00000000000E+00 0. -1.
         25    2    1    2    0    0  0.61665031404E+02 -0.34588076153E+01  0.85071772809E+02  0.16333051437E+03  0.12500044378E+03 0.  0.
          2    1    1    2  501    0 -0.21805720453E+02  0.56751311603E+02 -0.19906107200E+03  0.20813820216E+03  0.00000000000E+00 0. -1.
          1    1    1    2  502    0 -0.39859310952E+02 -0.53292503988E+02  0.15413259850E+03  0.16788601362E+03  0.00000000000E+00 0. -1.
         22    1    3    3    0    0  0.17812003499E+02 -0.11568511511E+02 -0.31799181130E+02  0.38239846336E+02  0.00000000000E+00 0.  1.
         22    1    3    3    0    0  0.43853027905E+02  0.81097038960E+01  0.11687095394E+03  0.12509066803E+03  0.00000000000E+00 0.  1.
</event>
<event>
 7    1  0.6146596E-006  0.5128614E+02  0.7818608E-02  0.1443909E+00
          2   -1    0    0  502    0  0.00000000000E+00  0.00000000000E+00  0.46564349719E+03  0.46564349719E+03  0.00000000000E+00 0. -1.
          1   -1    0    0  501    0 -0.00000000000E+00 -0.00000000000E+00 -0.89194628206E+02  0.89194628206E+02  0.00000000000E+00 0. -1.
         25    2    1    2    0    0  0.95044242248E+02  0.23530949594E+02  0.86558899306E+02  0.18085421676E+03  0.12501476352E+03 0.  0.
          2    1    1    2  501    0 -0.45981023846E+02 -0.17691723093E+02 -0.24995762509E+02  0.55245269149E+02  0.00000000000E+00 0. -1.
          1    1    1    2  502    0 -0.49063218402E+02 -0.58392265016E+01  0.31488573219E+03  0.31873863949E+03  0.00000000000E+00 0. -1.
         22    1    3    3    0    0  0.69617180692E+02 -0.15981283069E+02  0.10777807997E+03  0.12929836727E+03  0.00000000000E+00 0.  1.
         22    1    3    3    0    0  0.25427061556E+02  0.39512232664E+02 -0.21219180661E+02  0.51555849497E+02  0.00000000000E+00 0.  1.
</event>
<event>
 7    1  0.6146596E-006  0.4389259E+02  0.7818608E-02  0.1568995E+00
          2   -1    0    0  502    0  0.00000000000E+00  0.00000000000E+00  0.27146187527E+04  0.27146187527E+04  0.00000000000E+00 0. -1.
          1   -1    0    0  501    0 -0.00000000000E+00 -0.00000000000E+00 -0.15226917410E+02  0.15226917410E+02  0.00000000000E+00 0. -1.
         25    2    1    2    0    0 -0.97027735907E+01  0.17799722153E+02  0.58258654567E+03  0.59618988015E+03  0.12499726428E+03 0.  0.
          2    1    1    2  501    0 -0.14138248019E+02  0.20032856490E+02  0.10168400819E+02  0.26544335957E+02  0.00000000000E+00 0. -1.
          1    1    1    2  502    0  0.23841021609E+02 -0.37832578643E+02  0.21066368888E+04  0.21071114540E+04  0.00000000000E+00 0. -1.
         22    1    3    3    0    0  0.15725386285E+02 -0.19976741142E+02  0.50912424173E+03  0.50975862079E+03  0.00000000000E+00 0.  1.
         22    1    3    3    0    0 -0.25428159875E+02  0.37776463294E+02  0.73462303943E+02  0.86431259358E+02  0.00000000000E+00 0.  1.
</event>
<event>
 7    1  0.6146596E-006  0.1313594E+03  0.7818608E-02  0.1435558E+00
          2   -1    0    0  502    0  0.00000000000E+00  0.00000000000E+00  0.23945015330E+04  0.23945015330E+04  0.00000000000E+00 0. -1.
          1   -1    0    0  501    0 -0.00000000000E+00 -0.00000000000E+00 -0.21082494000E+03  0.21082494000E+03  0.00000000000E+00 0. -1.
         25    2    1    2    0    0 -0.11039780644E+03  0.21513740006E+02  0.89601117877E+03  0.91165288189E+03  0.12499771157E+03 0.  0.
          2    1    1    2  501    0  0.12778584433E+03 -0.32323589632E+02 -0.18152907475E+03  0.22433644696E+03  0.00000000000E+00 0. -1.
          1    1    1    2  502    0 -0.17388037882E+02  0.10809849626E+02  0.14691944890E+04  0.14693371441E+04  0.00000000000E+00 0. -1.
         22    1    3    3    0    0 -0.74085001273E+02 -0.32404583153E+02  0.71040232718E+03  0.71498958795E+03  0.00000000000E+00 0. -1.
         22    1    3    3    0    0 -0.36312805171E+02  0.53918323159E+02  0.18560885160E+03  0.19666329394E+03  0.00000000000E+00 0. -1.
</event>
<event>
 7    1  0.6146596E-006  0.2987786E+02  0.7818608E-02  0.1662784E+00
          2   -1    0    0  502    0  0.00000000000E+00  0.00000000000E+00  0.15059645869E+04  0.15059645869E+04  0.00000000000E+00 0. -1.
          1   -1    0    0  501    0 -0.00000000000E+00 -0.00000000000E+00 -0.67518960711E+02  0.67518960711E+02  0.00000000000E+00 0. -1.
         25    2    1    2    0    0 -0.10673775946E+02 -0.28519987005E+02  0.93195461423E+03  0.94079336834E+03  0.12500175907E+03 0.  0.
          2    1    1    2  501    0 -0.15754773852E+02  0.13445385497E+02 -0.60981345491E+02  0.64402762271E+02  0.00000000000E+00 0. -1.
          1    1    1    2  502    0  0.26428549798E+02  0.15074601507E+02  0.56747235744E+03  0.56828741700E+03  0.00000000000E+00 0. -1.
         22    1    3    3    0    0  0.49760465495E+02 -0.34374151718E+02  0.30729886280E+03  0.31319367380E+03  0.00000000000E+00 0.  1.
         22    1    3    3    0    0 -0.60434241441E+02  0.58541647134E+01  0.62465575144E+03  0.62759969454E+03  0.00000000000E+00 0.  1.
</event>
<event>
 7    1  0.6146596E-006  0.6992366E+02  0.7818608E-02  0.1462801E+00
          2   -1    0    0  502    0  0.00000000000E+00  0.00000000000E+00  0.34492012214E+03  0.34492012214E+03  0.00000000000E+00 0. -1.
          1   -1    0    0  501    0 -0.00000000000E+00 -0.00000000000E+00 -0.28310230350E+03  0.28310230350E+03  0.00000000000E+00 0. -1.
         25    2    1    2    0    0  0.85021838537E+02  0.32334021824E+02 -0.85556075101E+02  0.17669242142E+03  0.12500467113E+03 0.  0.
          2    1    1    2  501    0 -0.15825771197E+02 -0.27190773022E+02 -0.14626196589E+03  0.14960733885E+03  0.00000000000E+00 0. -1.
          1    1    1    2  502    0 -0.69196067339E+02 -0.51432488025E+01  0.29363585963E+03  0.30172266538E+03  0.00000000000E+00 0. -1.
         22    1    3    3    0    0  0.25537629621E+02  0.65110037257E+02 -0.32938524290E+01  0.70016690454E+02  0.00000000000E+00 0. -1.
         22    1    3    3    0    0  0.59484208916E+02 -0.32776015432E+02 -0.82262222672E+02  0.10667573096E+03  0.00000000000E+00 0. -1.
</event>
<event>
 7    1  0.6146596E-006  0.7687901E+02  0.7818608E-02  0.1420438E+00
          2   -1    0    0  502    0  0.00000000000E+00  0.00000000000E+00  0.22481067915E+04  0.22481067915E+04  0.00000000000E+00 0. -1.
          1   -1    0    0  501    0 -0.00000000000E+00 -0.00000000000E+00 -0.14847239231E+03  0.14847239231E+03  0.00000000000E+00 0. -1.
         25    2    1    2    0    0 -0.86281287263E+02 -0.77500974125E+01  0.10817082900E+04  0.10923468159E+04  0.12499686839E+03 0.  0.
          2    1    1    2  501    0  0.21584934452E+02 -0.32775860881E+02 -0.13918176804E+03  0.14460888979E+03  0.00000000000E+00 0. -1.
          1    1    1    2  502    0  0.64696352811E+02  0.40525958294E+02  0.11571078773E+04  0.11596234781E+04  0.00000000000E+00 0. -1.
         22    1    3    3    0    0 -0.69919595920E+01 -0.42794038752E+02  0.68049761188E+03  0.68187771413E+03  0.00000000000E+00 0. -1.
         22    1    3    3    0    0 -0.79289327671E+02  0.35043941339E+02  0.40121067812E+03  0.41046910181E+03  0.00000000000E+00 0. -1.
</event>
<event>
 7    1  0.6146596E-006  0.4392755E+02  0.7818608E-02  0.1592312E+00
          2   -1    0    0  502    0  0.00000000000E+00  0.00000000000E+00  0.26900014523E+04  0.26900014523E+04  0.00000000000E+00 0. -1.
          1   -1    0    0  501    0 -0.00000000000E+00 -0.00000000000E+00 -0.15228450266E+02  0.15228450266E+02  0.00000000000E+00 0. -1.
         25    2    1    2    0    0 -0.52402621075E+02  0.32607003099E+02  0.14308362963E+04  0.14376111103E+04  0.12499578524E+03 0.  0.
          2    1    1    2  501    0  0.31330637194E+02 -0.30126550337E+02  0.28452945552E+02  0.51949860180E+02  0.00000000000E+00 0. -1.
          1    1    1    2  502    0  0.21071983882E+02 -0.24804527617E+01  0.12154837601E+04  0.12156689320E+04  0.00000000000E+00 0. -1.
         22    1    3    3    0    0 -0.41978860345E+02 -0.37694854989E+02  0.35751045403E+03  0.36193487197E+03  0.00000000000E+00 0. -1.
         22    1    3    3    0    0 -0.10423760730E+02  0.70301858088E+02  0.10733258423E+04  0.10756762384E+04  0.00000000000E+00 0. -1.
</event>
<event>
 7    1  0.6146596E-006  0.9912975E+02  0.7818608E-02  0.1327506E+00
          2   -1    0    0  502    0  0.00000000000E+00  0.00000000000E+00  0.83038558750E+03  0.83038558750E+03  0.00000000000E+00 0. -1.
          1   -1    0    0  501    0 -0.00000000000E+00 -0.00000000000E+00 -0.49095359335E+02  0.49095359335E+02  0.00000000000E+00 0. -1.
         25    2    1    2    0    0  0.48885375725E+02  0.90798573242E+02  0.17117719175E+03  0.23571503636E+03  0.12500314608E+03 0.  0.
          2    1    1    2  501    0  0.43376623420E+02 -0.49008883600E+02  0.76727345194E+02  0.10084883555E+03  0.00000000000E+00 0. -1.
          1    1    1    2  502    0 -0.92261999145E+02 -0.41789689642E+02  0.53338569122E+03  0.54291707492E+03  0.00000000000E+00 0. -1.
         22    1    3    3    0    0  0.28957951730E+02  0.11251076505E+03  0.83100991262E+02  0.14283910518E+03  0.00000000000E+00 0.  1.
         22    1    3    3    0    0  0.19927423995E+02 -0.21712191806E+02  0.88076200489E+02  0.92875931181E+02  0.00000000000E+00 0.  1.
</event>
<event>
 7    1  0.6146596E-006  0.1353963E+03  0.7818608E-02  0.1339686E+00
          2   -1    0    0  502    0  0.00000000000E+00  0.00000000000E+00  0.10311874722E+04  0.10311874722E+04  0.00000000000E+00 0. -1.
          1   -1    0    0  501    0 -0.00000000000E+00 -0.00000000000E+00 -0.36134879146E+03  0.36134879146E+03  0.00000000000E+00 0. -1.
         25    2    1    2    0    0 -0.90536347651E+02  0.36733977408E+02  0.58281155219E+02  0.16902116175E+03  0.12500097889E+03 0.  0.
          2    1    1    2  501    0  0.13020734840E+03 -0.53514415601E+02 -0.28924478922E+03  0.32168353135E+03  0.00000000000E+00 0. -1.
          1    1    1    2  502    0 -0.39671000745E+02  0.16780438192E+02  0.90080231470E+03  0.90183157051E+03  0.00000000000E+00 0. -1.
         22    1    3    3    0    0 -0.10609357120E+03 -0.20446297528E+01  0.68118558072E+02  0.12609585368E+03  0.00000000000E+00 0.  1.
         22    1    3    3    0    0  0.15557223551E+02  0.38778607161E+02 -0.98374028531E+01  0.42925308070E+02  0.00000000000E+00 0.  1.
</event>
<event>
 7    1  0.6146596E-006  0.6129898E+02  0.7818608E-02  0.1469375E+00
          2   -1    0    0  502    0  0.00000000000E+00  0.00000000000E+00  0.23767302560E+04  0.23767302560E+04  0.00000000000E+00 0. -1.
          1   -1    0    0  501    0 -0.00000000000E+00 -0.00000000000E+00 -0.35192122953E+02  0.35192122953E+02  0.00000000000E+00 0. -1.
         25    2    1    2    0    0  0.89747283816E+02 -0.46162557952E+01  0.14021413009E+04  0.14105678101E+04  0.12500173806E+03 0.  0.
          2    1    1    2  501    0 -0.33929647193E+02  0.45094364632E+01 -0.20459497398E+02  0.39876647423E+02  0.00000000000E+00 0. -1.
          1    1    1    2  502    0 -0.55817636622E+02  0.10681933203E+00  0.95985632957E+03  0.96147792142E+03  0.00000000000E+00 0. -1.
         22    1    3    3    0    0  0.10525522865E+03 -0.31610950560E+02  0.12726639425E+04  0.12774002606E+04  0.00000000000E+00 0.  1.
         22    1    3    3    0    0 -0.15507944832E+02  0.26994694764E+02  0.12947735841E+03  0.13316754950E+03  0.00000000000E+00 0.  1.
</event>
<event>
 7    1  0.6146596E-006  0.7340039E+02  0.7818608E-02  0.1434639E+00
          2   -1    0    0  502    0  0.00000000000E+00  0.00000000000E+00  0.17291468496E+03  0.17291468496E+03  0.00000000000E+00 0. -1.
          1   -1    0    0  501    0 -0.00000000000E+00 -0.00000000000E+00 -0.12062101333E+03  0.12062101333E+03  0.00000000000E+00 0. -1.
         25    2    1    2    0    0 -0.59869390054E+02 -0.63268630339E+02 -0.16055297908E+02  0.15320069413E+03  0.12500166655E+03 0.  0.
          2    1    1    2  501    0  0.62915719610E+02  0.26498962160E+02  0.68418732789E+01  0.68610451096E+02  0.00000000000E+00 0. -1.
          1    1    1    2  502    0 -0.30463295562E+01  0.36769668179E+02  0.61507096265E+02  0.71724553067E+02  0.00000000000E+00 0. -1.
         22    1    3    3    0    0 -0.16158151541E+02 -0.19903003380E+02 -0.67981826160E+02  0.72654966057E+02  0.00000000000E+00 0.  1.
         22    1    3    3    0    0 -0.43711238512E+02 -0.43365626959E+02  0.51926528252E+02  0.80545728069E+02  0.00000000000E+00 0.  1.
</event>
<event>
 7    1  0.6146596E-006  0.1047601E+03  0.7818608E-02  0.1344754E+00
          2   -1    0    0  502    0  0.00000000000E+00  0.00000000000E+00  0.87082063527E+03  0.87082063527E+03  0.00000000000E+00 0. -1.
          1   -1    0    0  501    0 -0.00000000000E+00 -0.00000000000E+00 -0.43164053324E+03  0.43164053324E+03  0.00000000000E+00 0. -1.
         25    2    1    2    0    0  0.90361776560E+02 -0.10199891956E+02  0.38854582329E+03  0.41816554954E+03  0.12500112625E+03 0.  0.
          2    1    1    2  501    0 -0.96101924868E+02 -0.42777542623E+02 -0.40862881771E+03  0.42195142941E+03  0.00000000000E+00 0. -1.
          1    1    1    2  502    0  0.57401483082E+01  0.52977434579E+02  0.45926309644E+03  0.46234418957E+03  0.00000000000E+00 0. -1.
         22    1    3    3    0    0  0.37671271308E+02  0.57371725039E+02  0.18487547810E+03  0.19720441658E+03  0.00000000000E+00 0. -1.
         22    1    3    3    0    0  0.52690505252E+02 -0.67571616995E+02  0.20367034519E+03  0.22096113296E+03  0.00000000000E+00 0. -1.
</event>
<event>
 7    1  0.6146596E-006  0.8194907E+02  0.7818608E-02  0.1347829E+00
          2   -1    0    0  502    0  0.00000000000E+00  0.00000000000E+00  0.12767010919E+03  0.12767010919E+03  0.00000000000E+00 0. -1.
          1   -1    0    0  501    0 -0.00000000000E+00 -0.00000000000E+00 -0.17721667992E+04  0.17721667992E+04  0.00000000000E+00 0. -1.
         25    2    1    2    0    0  0.40051060030E+02 -0.27707429545E+02  0.56566014311E+01  0.13427152593E+03  0.12500022590E+03 0.  0.
          2    1    1    2  501    0 -0.56572755904E+02 -0.59288892901E+02 -0.16722838614E+04  0.16742905849E+04  0.00000000000E+00 0. -1.
          1    1    1    2  502    0  0.16521695874E+02  0.86996322446E+02  0.22130569920E+02  0.91274797609E+02  0.00000000000E+00 0. -1.
         22    1    3    3    0    0 -0.35328680525E+02 -0.44581453305E+02  0.11312627245E+01  0.56893772961E+02  0.00000000000E+00 0.  1.
         22    1    3    3    0    0  0.75379740555E+02  0.16874023760E+02  0.45253387066E+01  0.77377752968E+02  0.00000000000E+00 0.  1.
</event>
<event>
 7    1  0.6146596E-006  0.1128933E+03  0.7818608E-02  0.1403092E+00
          2   -1    0    0  502    0  0.00000000000E+00  0.00000000000E+00  0.10443743507E+03  0.10443743507E+03  0.00000000000E+00 0. -1.
          1   -1    0    0  501    0 -0.00000000000E+00 -0.00000000000E+00 -0.68323063556E+03  0.68323063556E+03  0.00000000000E+00 0. -1.
         25    2    1    2    0    0 -0.82478535172E+02  0.26650281010E+02 -0.75189766119E+02  0.16967893521E+03  0.12499797552E+03 0.  0.
          2    1    1    2  501    0  0.11306131005E+03 -0.27237532941E+02 -0.55014112443E+03  0.56229885277E+03  0.00000000000E+00 0. -1.
          1    1    1    2  502    0 -0.30582774881E+02  0.58725193068E+00  0.46537690066E+02  0.55690282643E+02  0.00000000000E+00 0. -1.
         22    1    3    3    0    0 -0.84031621919E+02  0.23489796070E+02 -0.10677884337E+03  0.13789418187E+03  0.00000000000E+00 0. -1.
         22    1    3    3    0    0  0.15530867470E+01  0.31604849405E+01  0.31589077252E+02  0.31784753344E+02  0.00000000000E+00 0. -1.
</event>
<event>
 7    1  0.9987050E-006  0.6697599E+02  0.7818608E-02  0.1468679E+00
          2   -1    0    0  502    0  0.00000000000E+00  0.00000000000E+00  0.17081543380E+04  0.17081543380E+04  0.00000000000E+00 0. -1.
          1   -1    0    0  501    0 -0.00000000000E+00 -0.00000000000E+00 -0.22716426228E+04  0.22716426228E+04  0.00000000000E+00 0. -1.
         25    2    1    2    0    0  0.47763933524E+01 -0.97430650034E+02 -0.13959123606E+04  0.14048885358E+04  0.12499973617E+03 0.  0.
          2    1    1    2  501    0  0.46592081228E+01  0.31136952063E+02 -0.87029944719E+03  0.87086873051E+03  0.00000000000E+00 0. -1.
          1    1    1    2  502    0 -0.94356014753E+01  0.66293697971E+02  0.17027235229E+04  0.17040396945E+04  0.00000000000E+00 0. -1.
         22    1    3    3    0    0  0.66576047756E+00 -0.10297986797E+03 -0.58822301348E+03  0.59716966603E+03  0.00000000000E+00 0.  1.
         22    1    3    3    0    0  0.41106328749E+01  0.55492179356E+01 -0.80768934709E+03  0.80771886973E+03  0.00000000000E+00 0.  1.
</event>
<event>
 7    1  0.6146596E-006  0.5468915E+02  0.7818608E-02  0.1442369E+00
          2   -1    0    0  502    0  0.00000000000E+00  0.00000000000E+00  0.23189160339E+04  0.23189160339E+04  0.00000000000E+00 0. -1.
          1   -1    0    0  501    0 -0.00000000000E+00 -0.00000000000E+00 -0.29270896112E+03  0.29270896112E+03  0.00000000000E+00 0. -1.
         25    2    1    2    0    0  0.74888622836E+02 -0.30442695844E+02  0.48572050220E+02  0.15660192256E+03  0.12501941659E+03 0.  0.
          2    1    1    2  501    0 -0.44324019653E+02 -0.14813734189E+02 -0.23606652393E+03  0.24064801923E+03  0.00000000000E+00 0. -1.
          1    1    1    2  502    0 -0.30564603183E+02  0.45256430033E+02  0.22137015465E+04  0.22143750532E+04  0.00000000000E+00 0. -1.
         22    1    3    3    0    0  0.10037084214E+03 -0.21818405024E+02  0.68205140453E+02  0.12329756661E+03  0.00000000000E+00 0. -1.
         22    1    3    3    0    0 -0.25482219299E+02 -0.86242908205E+01 -0.19633090233E+02  0.33304355941E+02  0.00000000000E+00 0. -1.
</event>
<event>
 7    1  0.6146596E-006  0.1533914E+03  0.7818608E-02  0.1214931E+00
          2   -1    0    0  502    0  0.00000000000E+00  0.00000000000E+00  0.80878992295E+03  0.80878992295E+03  0.00000000000E+00 0. -1.
          1   -1    0    0  501    0 -0.00000000000E+00 -0.00000000000E+00 -0.14155137446E+04  0.14155137446E+04  0.00000000000E+00 0. -1.
         25    2    1    2    0    0  0.54719169407E+02  0.77908256022E+02  0.18807516678E+03  0.24508760801E+03  0.12502713059E+03 0.  0.
          2    1    1    2  501    0 -0.15532518120E+03 -0.26733113684E+01 -0.13759246980E+04  0.13846666866E+04  0.00000000000E+00 0. -1.
          1    1    1    2  502    0  0.10060601180E+03 -0.75234944653E+02  0.58112570957E+03  0.59454937291E+03  0.00000000000E+00 0. -1.
         22    1    3    3    0    0  0.57114277078E+02  0.76748256243E+02  0.20591331571E+03  0.22705204044E+03  0.00000000000E+00 0.  1.
         22    1    3    3    0    0 -0.23951076709E+01  0.11599997785E+01 -0.17838148929E+02  0.18035567567E+02  0.00000000000E+00 0.  1.
</event>
<event>
 7    1  0.6146596E-006  0.1304118E+03  0.7818608E-02  0.1273934E+00
          2   -1    0    0  502    0  0.00000000000E+00  0.00000000000E+00  0.21787447809E+03  0.21787447809E+03  0.00000000000E+00 0. -1.
          1   -1    0    0  501    0 -0.00000000000E+00 -0.00000000000E+00 -0.13604290960E+04  0.13604290960E+04  0.00000000000E+00 0. -1.
         25    2    1    2    0    0 -0.11111203349E+03 -0.16963074774E+03 -0.40971319218E+03  0.47393041615E+03  0.12499865977E+03 0.  0.
          2    1    1    2  501    0  0.66900116233E+02  0.10117907163E+03 -0.90542765515E+03  0.91351632104E+03  0.00000000000E+00 0. -1.
          1    1    1    2  502    0  0.44211917260E+02  0.68451676112E+02  0.17258622945E+03  0.19085683688E+03  0.00000000000E+00 0. -1.
         22    1    3    3    0    0 -0.52143238727E+02 -0.15971241135E+03 -0.35556485213E+03  0.39325988322E+03  0.00000000000E+00 0.  1.
         22    1    3    3    0    0 -0.58968794765E+02 -0.99183363899E+01 -0.54148340049E+02  0.80670532928E+02  0.00000000000E+00 0.  1.
</event>
<event>
 7    1  0.6146596E-006  0.6403778E+02  0.7818608E-02  0.1415368E+00
          2   -1    0    0  502    0  0.00000000000E+00  0.00000000000E+00  0.12692909962E+04  0.12692909962E+04  0.00000000000E+00 0. -1.
          1   -1    0    0  501    0 -0.00000000000E+00 -0.00000000000E+00 -0.66238379274E+03  0.66238379274E+03  0.00000000000E+00 0. -1.
         25    2    1    2    0    0 -0.43842593614E+01  0.19574938103E+02  0.39363314767E+02  0.13254771196E+03  0.12496809778E+03 0.  0.
          2    1    1    2  501    0  0.45201584272E+02 -0.46673584122E+02 -0.61356842520E+03  0.61699904302E+03  0.00000000000E+00 0. -1.
          1    1    1    2  502    0 -0.40817324910E+02  0.27098646019E+02  0.11811123139E+04  0.11821280340E+04  0.00000000000E+00 0. -1.
         22    1    3    3    0    0  0.15509647418E+02  0.35966443581E+02  0.77314722273E+02  0.86670066961E+02  0.00000000000E+00 0.  1.
         22    1    3    3    0    0 -0.19893906779E+02 -0.16391505479E+02 -0.37951407506E+02  0.45877644997E+02  0.00000000000E+00 0.  1.
</event>
<event>
 7    1  0.6146596E-006  0.1005971E+03  0.7818608E-02  0.1313030E+00
          2   -1    0    0  502    0  0.00000000000E+00  0.00000000000E+00  0.96666990494E+03  0.96666990494E+03  0.00000000000E+00 0. -1.
          1   -1    0    0  501    0 -0.00000000000E+00 -0.00000000000E+00 -0.31959137844E+03  0.31959137844E+03  0.00000000000E+00 0. -1.
         25    2    1    2    0    0 -0.16529798168E+03  0.47979428522E+02 -0.50339903174E+02  0.21859893251E+03  0.12500375648E+03 0.  0.
          2    1    1    2  501    0  0.71857512386E+02 -0.14938208496E+02 -0.17492950200E+03  0.18970235325E+03  0.00000000000E+00 0. -1.
          1    1    1    2  502    0  0.93440469291E+02 -0.33041220026E+02  0.87234793167E+03  0.87795999762E+03  0.00000000000E+00 0. -1.
         22    1    3    3    0    0  0.16794137322E+02 -0.27898036606E+01  0.10512813887E+02  0.20008630854E+02  0.00000000000E+00 0. -1.
         22    1    3    3    0    0 -0.18209211900E+03  0.50769232183E+02 -0.60852717061E+02  0.19859030165E+03  0.00000000000E+00 0. -1.
</event>
<event>
 7    1  0.6146596E-006  0.6204181E+02  0.7818608E-02  0.1463347E+00
          2   -1    0    0  502    0  0.00000000000E+00  0.00000000000E+00  0.53568878405E+03  0.53568878405E+03  0.00000000000E+00 0. -1.
          1   -1    0    0  501    0 -0.00000000000E+00 -0.00000000000E+00 -0.55942753701E+02  0.55942753701E+02  0.00000000000E+00 0. -1.
         25    2    1    2    0    0 -0.47145394935E+02  0.41893356518E+02  0.33523835891E+03  0.36330168405E+03  0.12500245902E+03 0.  0.
          2    1    1    2  501    0  0.61856664822E+02 -0.97849092112E+01 -0.15463208831E+02  0.64506606317E+02  0.00000000000E+00 0. -1.
          1    1    1    2  502    0 -0.14711269886E+02 -0.32108447307E+02  0.15997088027E+03  0.16382324739E+03  0.00000000000E+00 0. -1.
         22    1    3    3    0    0 -0.25292794238E+02  0.41883080903E+02  0.33777688766E+03  0.34130212971E+03  0.00000000000E+00 0.  1.
         22    1    3    3    0    0 -0.21852600697E+02  0.10275614930E-01 -0.25385287506E+01  0.21999554337E+02  0.00000000000E+00 0.  1.
</event>
<event>
 7    1  0.6146596E-006  0.6152449E+02  0.7818608E-02  0.1425564E+00
          2   -1    0    0  502    0  0.00000000000E+00  0.00000000000E+00  0.44772840552E+03  0.44772840552E+03  0.00000000000E+00 0. -1.
          1   -1    0    0  501    0 -0.00000000000E+00 -0.00000000000E+00 -0.10114448742E+03  0.10114448742E+03  0.00000000000E+00 0. -1.
         25    2    1    2    0    0 -0.21600867377E+02 -0.65957184585E+02  0.13380423840E+03  0.19581774622E+03  0.12499627135E+03 0.  0.
          2    1    1    2  501    0  0.46349718255E+02  0.86600626891E+01 -0.58244022437E+02  0.74937702245E+02  0.00000000000E+00 0. -1.
          1    1    1    2  502    0 -0.24748850878E+02  0.57297121896E+02  0.27102370214E+03  0.27811744447E+03  0.00000000000E+00 0. -1.
         22    1    3    3    0    0 -0.60433299266E+02 -0.19959226316E+02  0.11721038020E+03  0.13337476374E+03  0.00000000000E+00 0. -1.
         22    1    3    3    0    0  0.38832431888E+02 -0.45997958269E+02  0.16593858201E+02  0.62442982482E+02  0.00000000000E+00 0. -1.
</event>
<event>
 7    1  0.6146596E-006  0.5529310E+02  0.7818608E-02  0.1503359E+00
          2   -1    0    0  502    0  0.00000000000E+00  0.00000000000E+00  0.14318497750E+04  0.14318497750E+04  0.00000000000E+00 0. -1.
          1   -1    0    0  501    0 -0.00000000000E+00 -0.00000000000E+00 -0.13527195601E+03  0.13527195601E+03  0.00000000000E+00 0. -1.
         25    2    1    2    0    0 -0.38340045349E+02  0.14123977978E+00  0.10106060325E+04  0.10190286120E+04  0.12499912065E+03 0.  0.
          2    1    1    2  501    0  0.47666193105E+02  0.28277568535E+02 -0.12463299440E+03  0.13640040374E+03  0.00000000000E+00 0. -1.
          1    1    1    2  502    0 -0.93261477559E+01 -0.28418808315E+02  0.41060478090E+03  0.41169271526E+03  0.00000000000E+00 0. -1.
         22    1    3    3    0    0  0.14426107828E+02 -0.18179878682E+02  0.36058285419E+02  0.42881470630E+02  0.00000000000E+00 0. -1.
         22    1    3    3    0    0 -0.52766153177E+02  0.18321118462E+02  0.97454774711E+03  0.97614714142E+03  0.00000000000E+00 0. -1.
</event>
<event>
 7    1  0.6146596E-006  0.5180927E+02  0.7818608E-02  0.1483897E+00
          2   -1    0    0  502    0  0.00000000000E+00  0.00000000000E+00  0.33070611273E+03  0.33070611273E+03  0.00000000000E+00 0. -1.
          1   -1    0    0  501    0 -0.00000000000E+00 -0.00000000000E+00 -0.18251985779E+03  0.18251985779E+03  0.00000000000E+00 0. -1.
         25    2    1    2    0    0  0.69975982324E+02  0.13606131742E+02 -0.40141900989E+02  0.14939617807E+03  0.12500432346E+03 0.  0.
          2    1    1    2  501    0 -0.21065548209E+02 -0.29846278090E+02 -0.81400322248E+02  0.89222026984E+02  0.00000000000E+00 0. -1.
          1    1    1    2  502    0 -0.48910434116E+02  0.16240146348E+02  0.26972847817E+03  0.27460776547E+03  0.00000000000E+00 0. -1.
         22    1    3    3    0    0 -0.28976873993E+02  0.32058098200E+02 -0.13469486039E+02  0.45263759684E+02  0.00000000000E+00 0.  1.
         22    1    3    3    0    0  0.98952856317E+02 -0.18451966457E+02 -0.26672414949E+02  0.10413241839E+03  0.00000000000E+00 0.  1.
</event>
<event>
 7    1  0.6146596E-006  0.5133099E+02  0.7818608E-02  0.1527668E+00
          2   -1    0    0  502    0  0.00000000000E+00  0.00000000000E+00  0.14024806098E+04  0.14024806098E+04  0.00000000000E+00 0. -1.
          1   -1    0    0  501    0 -0.00000000000E+00 -0.00000000000E+00 -0.28195733849E+02  0.28195733849E+02  0.00000000000E+00 0. -1.
         25    2    1    2    0    0 -0.20127855736E+02  0.65065670436E+02  0.50782720342E+03  0.52740106094E+03  0.12499895401E+03 0.  0.
          2    1    1    2  501    0  0.30884568581E+02 -0.39911294187E+02  0.16816294608E+02  0.53193568638E+02  0.00000000000E+00 0. -1.
          1    1    1    2  502    0 -0.10756712845E+02 -0.25154376250E+02  0.84964137788E+03  0.85008171402E+03  0.00000000000E+00 0. -1.
         22    1    3    3    0    0 -0.54860302018E+02  0.84927199482E+02  0.39323967580E+03  0.40602921640E+03  0.00000000000E+00 0. -1.
         22    1    3    3    0    0  0.34732446281E+02 -0.19861529045E+02  0.11458752762E+03  0.12137184454E+03  0.00000000000E+00 0. -1.
</event>
<event>
 7    1  0.6146596E-006  0.7870559E+02  0.7818608E-02  0.1404663E+00
          2   -1    0    0  502    0  0.00000000000E+00  0.00000000000E+00  0.72426281100E+03  0.72426281100E+03  0.00000000000E+00 0. -1.
          1   -1    0    0  501    0 -0.00000000000E+00 -0.00000000000E+00 -0.27144390086E+03  0.27144390086E+03  0.00000000000E+00 0. -1.
         25    2    1    2    0    0  0.49690234121E+02 -0.23819331223E+02 -0.19215751865E+03  0.23576378471E+03  0.12499428108E+03 0.  0.
          2    1    1    2  501    0 -0.70823838462E+01 -0.42753250079E+02 -0.46732223592E+02  0.63733046962E+02  0.00000000000E+00 0. -1.
          1    1    1    2  502    0 -0.42607850274E+02  0.66572581302E+02  0.69170865238E+03  0.69620988018E+03  0.00000000000E+00 0. -1.
         22    1    3    3    0    0  0.37344282083E+02 -0.36729381813E+02 -0.10740732774E+02  0.53469675828E+02  0.00000000000E+00 0.  1.
         22    1    3    3    0    0  0.12345952038E+02  0.12910050590E+02 -0.18141678587E+03  0.18229410888E+03  0.00000000000E+00 0.  1.
</event>
<event>
 7    1  0.6146596E-006  0.1095882E+03  0.7818608E-02  0.1339883E+00
          2   -1    0    0  502    0  0.00000000000E+00  0.00000000000E+00  0.14141592651E+04  0.14141592651E+04  0.00000000000E+00 0. -1.
          1   -1    0    0  501    0 -0.00000000000E+00 -0.00000000000E+00 -0.52645628296E+02  0.52645628296E+02  0.00000000000E+00 0. -1.
         25    2    1    2    0    0 -0.10269526821E+03 -0.44320534477E+02  0.10023283350E+04  0.10162662878E+04  0.12499779430E+03 0.  0.
          2    1    1    2  501    0  0.10994708779E+03 -0.83095363579E+01  0.26185418114E+02  0.11332734282E+03  0.00000000000E+00 0. -1.
          1    1    1    2  502    0 -0.72518195771E+01  0.52630070835E+02  0.33299988372E+03  0.33721126286E+03  0.00000000000E+00 0. -1.
         22    1    3    3    0    0 -0.12522252598E+03 -0.96729833942E+01  0.79491512688E+03  0.80477593563E+03  0.00000000000E+00 0. -1.
         22    1    3    3    0    0  0.22527257764E+02 -0.34647551082E+02  0.20741320814E+03  0.21149035214E+03  0.00000000000E+00 0. -1.
</event>
<event>
 7    1  0.6146596E-006  0.4480388E+03  0.7818608E-02  0.1215559E+00
          2   -1    0    0  502    0  0.00000000000E+00  0.00000000000E+00  0.32432116269E+03  0.32432116269E+03  0.00000000000E+00 0. -1.
          1   -1    0    0  501    0 -0.00000000000E+00 -0.00000000000E+00 -0.20356952508E+04  0.20356952508E+04  0.00000000000E+00 0. -1.
         25    2    1    2    0    0  0.85268474074E+02  0.45458665147E+03 -0.54303862512E+03  0.72417902379E+03  0.12499829503E+03 0.  0.
          2    1    1    2  501    0 -0.44896131549E+02 -0.44060628726E+03 -0.13647580344E+04  0.14348219595E+04  0.00000000000E+00 0. -1.
          1    1    1    2  502    0 -0.40372342525E+02 -0.13980364213E+02  0.19642257141E+03  0.20101543021E+03  0.00000000000E+00 0. -1.
         22    1    3    3    0    0  0.34699121061E+02  0.37670638244E+03 -0.37784796550E+03  0.53467823278E+03  0.00000000000E+00 0. -1.
         22    1    3    3    0    0  0.50569353013E+02  0.77880269024E+02 -0.16519065962E+03  0.18950079101E+03  0.00000000000E+00 0. -1.
</event>
<event>
 7    1  0.6146596E-006  0.1141185E+03  0.7818608E-02  0.1344040E+00
          2   -1    0    0  502    0  0.00000000000E+00  0.00000000000E+00  0.40147354748E+03  0.40147354748E+03  0.00000000000E+00 0. -1.
          1   -1    0    0  501    0 -0.00000000000E+00 -0.00000000000E+00 -0.21546498386E+03  0.21546498386E+03  0.00000000000E+00 0. -1.
         25    2    1    2    0    0  0.11557387376E+03  0.36936973525E+02  0.40903069722E+02  0.17893819602E+03  0.12499662625E+03 0.  0.
          2    1    1    2  501    0 -0.30022388198E+02  0.39002567134E+02 -0.13056680714E+03  0.13953578453E+03  0.00000000000E+00 0. -1.
          1    1    1    2  502    0 -0.85551485560E+02 -0.75939540660E+02  0.27567230104E+03  0.29846455079E+03  0.00000000000E+00 0. -1.
         22    1    3    3    0    0  0.80931631383E+02  0.83397615430E+02  0.25599249293E+02  0.11899753267E+03  0.00000000000E+00 0. -1.
         22    1    3    3    0    0  0.34642242375E+02 -0.46460641905E+02  0.15303820429E+02  0.59940663349E+02  0.00000000000E+00 0. -1.
</event>
<event>
 7    1  0.6146596E-006  0.5856242E+02  0.7818608E-02  0.1407109E+00
          2   -1    0    0  502    0  0.00000000000E+00  0.00000000000E+00  0.32453325837E+03  0.32453325837E+03  0.00000000000E+00 0. -1.
          1   -1    0    0  501    0 -0.00000000000E+00 -0.00000000000E+00 -0.34856957900E+03  0.34856957900E+03  0.00000000000E+00 0. -1.
         25    2    1    2    0    0 -0.92816664832E+01 -0.80703344192E+02  0.14677120570E+02  0.14979789718E+03  0.12499925214E+03 0.  0.
          2    1    1    2  501    0  0.45665363674E+02  0.36651766832E+02 -0.27450979101E+03  0.28068541610E+03  0.00000000000E+00 0. -1.
          1    1    1    2  502    0 -0.36383697191E+02  0.44051577359E+02  0.23579634980E+03  0.24261952409E+03  0.00000000000E+00 0. -1.
         22    1    3    3    0    0 -0.20304524462E+02 -0.85930360205E+02 -0.37707718465E+02  0.96011314700E+02  0.00000000000E+00 0. -1.
         22    1    3    3    0    0  0.11022857979E+02  0.52270160136E+01  0.52384839035E+02  0.53786582482E+02  0.00000000000E+00 0. -1.
</event>
<event>
 7    1  0.6146596E-006  0.8180619E+02  0.7818608E-02  0.1422032E+00
          2   -1    0    0  502    0  0.00000000000E+00  0.00000000000E+00  0.48639299968E+03  0.48639299968E+03  0.00000000000E+00 0. -1.
          1   -1    0    0  501    0 -0.00000000000E+00 -0.00000000000E+00 -0.57471387947E+02  0.57471387947E+02  0.00000000000E+00 0. -1.
         25    2    1    2    0    0 -0.46098954328E+02  0.57722738879E+02  0.24546837698E+03  0.28519319547E+03  0.12499362573E+03 0.  0.
          2    1    1    2  501    0  0.75990142276E+02 -0.36893033602E+02  0.14343704097E+02  0.85681617041E+02  0.00000000000E+00 0. -1.
          1    1    1    2  502    0 -0.29891187948E+02 -0.20829705277E+02  0.16910953065E+03  0.17298957511E+03  0.00000000000E+00 0. -1.
         22    1    3    3    0    0  0.21467240529E+02 -0.23425147507E+02  0.10345484086E+03  0.10822423041E+03  0.00000000000E+00 0.  1.
         22    1    3    3    0    0 -0.67566194856E+02  0.81147886386E+02  0.14201353612E+03  0.17696896506E+03  0.00000000000E+00 0.  1.
</event>
<event>
 7    1  0.6146596E-006  0.2831918E+02  0.7818608E-02  0.1664244E+00
          2   -1    0    0  502    0  0.00000000000E+00  0.00000000000E+00  0.29988131859E+04  0.29988131859E+04  0.00000000000E+00 0. -1.
          1   -1    0    0  501    0 -0.00000000000E+00 -0.00000000000E+00 -0.11330736856E+02  0.11330736856E+02  0.00000000000E+00 0. -1.
         25    2    1    2    0    0  0.48343651315E+02 -0.39196900747E+00  0.13791030733E+04  0.13855999551E+04  0.12499874682E+03 0.  0.
          2    1    1    2  501    0 -0.27456069540E+02 -0.53997103397E+01  0.16433983521E+02  0.32451016020E+02  0.00000000000E+00 0. -1.
          1    1    1    2  502    0 -0.20887581775E+02  0.57916793472E+01  0.15919453922E+04  0.15920929516E+04  0.00000000000E+00 0. -1.
         22    1    3    3    0    0 -0.38396684990E+02  0.21514653058E+02  0.51536547991E+03  0.51724149446E+03  0.00000000000E+00 0.  1.
         22    1    3    3    0    0  0.86740336306E+02 -0.21906622066E+02  0.86373759337E+03  0.86835846068E+03  0.00000000000E+00 0.  1.
</event>
<event>
 7    1  0.6146596E-006  0.1296427E+03  0.7818608E-02  0.1273142E+00
          2   -1    0    0  502    0  0.00000000000E+00  0.00000000000E+00  0.75289880253E+03  0.75289880253E+03  0.00000000000E+00 0. -1.
          1   -1    0    0  501    0 -0.00000000000E+00 -0.00000000000E+00 -0.19477696539E+03  0.19477696539E+03  0.00000000000E+00 0. -1.
         25    2    1    2    0    0 -0.13364736780E+01 -0.13021234645E+03  0.41411581845E+02  0.18519476399E+03  0.12500056068E+03 0.  0.
          2    1    1    2  501    0  0.79123740422E+02  0.23704058495E+02 -0.10121319456E+03  0.13063904256E+03  0.00000000000E+00 0. -1.
          1    1    1    2  502    0 -0.77787266744E+02  0.10650828795E+03  0.61792344985E+03  0.63184196137E+03  0.00000000000E+00 0. -1.
         22    1    3    3    0    0  0.45333957227E+02 -0.34374971840E+02  0.53271347051E+02  0.77939994762E+02  0.00000000000E+00 0.  1.
         22    1    3    3    0    0 -0.46670430905E+02 -0.95837374607E+02 -0.11859765206E+02  0.10725476923E+03  0.00000000000E+00 0.  1.
</event>
<event>
 7    1  0.6146596E-006  0.8185641E+02  0.7818608E-02  0.1403324E+00
          2   -1    0    0  502    0  0.00000000000E+00  0.00000000000E+00  0.19295658656E+03  0.19295658656E+03  0.00000000000E+00 0. -1.
          1   -1    0    0  501    0 -0.00000000000E+00 -0.00000000000E+00 -0.10733821141E+04  0.10733821141E+04  0.00000000000E+00 0. -1.
         25    2    1    2    0    0 -0.59369923820E+02  0.86855858771E+02  0.80481541296E+02  0.18213297365E+03  0.12500565405E+03 0.  0.
          2    1    1    2  501    0  0.67745905809E+02 -0.45587707228E+02 -0.10135268620E+04  0.10168109199E+04  0.00000000000E+00 0. -1.
          1    1    1    2  502    0 -0.83759819884E+01 -0.41268151543E+02  0.52619793118E+02  0.67394807172E+02  0.00000000000E+00 0. -1.
         22    1    3    3    0    0 -0.45113607239E+02  0.10435455127E+03  0.10066765566E+03  0.15185218742E+03  0.00000000000E+00 0.  1.
         22    1    3    3    0    0 -0.14256316581E+02 -0.17498692502E+02 -0.20186114362E+02  0.30280786231E+02  0.00000000000E+00 0.  1.
</event>
<event>
 7    1  0.6146596E-006  0.9123946E+02  0.7818608E-02  0.1413474E+00
          2   -1    0    0  502    0  0.00000000000E+00  0.00000000000E+00  0.12488016355E+04  0.12488016355E+04  0.00000000000E+00 0. -1.
          1   -1    0    0  501    0 -0.00000000000E+00 -0.00000000000E+00 -0.41512454579E+03  0.41512454579E+03  0.00000000000E+00 0. -1.
         25    2    1    2    0    0  0.14002315099E+02 -0.11980331627E+03 -0.12126085270E+03  0.21185128383E+03  0.12501149005E+03 0.  0.
          2    1    1    2  501    0 -0.15758306846E+02  0.84951879234E+02 -0.24079810361E+03  0.25582977294E+03  0.00000000000E+00 0. -1.
          1    1    1    2  502    0  0.17559917469E+01  0.34851437036E+02  0.11957360460E+04  0.11962451245E+04  0.00000000000E+00 0. -1.
         22    1    3    3    0    0  0.63291708693E+00 -0.27434354571E+02  0.25805729378E+02  0.37669351779E+02  0.00000000000E+00 0.  1.
         22    1    3    3    0    0  0.13369398012E+02 -0.92368961699E+02 -0.14706658208E+03  0.17418193205E+03  0.00000000000E+00 0.  1.
</event>
<event>
 7    1  0.6146596E-006  0.1226593E+03  0.7818608E-02  0.1398370E+00
          2   -1    0    0  502    0  0.00000000000E+00  0.00000000000E+00  0.15968259322E+04  0.15968259322E+04  0.00000000000E+00 0. -1.
          1   -1    0    0  501    0 -0.00000000000E+00 -0.00000000000E+00 -0.42998382680E+03  0.42998382680E+03  0.00000000000E+00 0. -1.
         25    2    1    2    0    0  0.58373913785E+02  0.10933622656E+03  0.44771913694E+03  0.48108126163E+03  0.12499932186E+03 0.  0.
          2    1    1    2  501    0 -0.81616410796E+02 -0.91620374798E+02 -0.40400165552E+03  0.42222371943E+03  0.00000000000E+00 0. -1.
          1    1    1    2  502    0  0.23242497012E+02 -0.17715851758E+02  0.11231246240E+04  0.11235047779E+04  0.00000000000E+00 0. -1.
         22    1    3    3    0    0  0.16554045433E+02  0.26388347577E+02  0.32835656085E+03  0.32983088449E+03  0.00000000000E+00 0. -1.
         22    1    3    3    0    0  0.41819868352E+02  0.82947878979E+02  0.11936257609E+03  0.15125037714E+03  0.00000000000E+00 0. -1.
</event>
<event>
 7    1  0.6146596E-006  0.1586704E+03  0.7818608E-02  0.1278103E+00
          2   -1    0    0  502    0  0.00000000000E+00  0.00000000000E+00  0.46131076371E+04  0.46131076371E+04  0.00000000000E+00 0. -1.
          1   -1    0    0  501    0 -0.00000000000E+00 -0.00000000000E+00 -0.35622168406E+03  0.35622168406E+03  0.00000000000E+00 0. -1.
         25    2    1    2    0    0 -0.17197935841E+03 -0.94262202138E+02  0.19814631508E+04  0.19950644883E+04  0.12499532799E+03 0.  0.
          2    1    1    2  501    0  0.15511007448E+03  0.32158480903E+02 -0.33104993163E+03  0.36699776611E+03  0.00000000000E+00 0. -1.
          1    1    1    2  502    0  0.16869283929E+02  0.62103721235E+02  0.26064727339E+04  0.26072670668E+04  0.00000000000E+00 0. -1.
         22    1    3    3    0    0 -0.10841704002E+03 -0.11533989491E+03  0.11394973582E+04  0.11504398182E+04  0.00000000000E+00 0. -1.
         22    1    3    3    0    0 -0.63562318386E+02  0.21077692773E+02  0.84196579263E+03  0.84462467014E+03  0.00000000000E+00 0. -1.
</event>
<event>
 7    1  0.9947795E-006  0.5332114E+02  0.7818608E-02  0.1440542E+00
          2   -1    0    0  502    0  0.00000000000E+00  0.00000000000E+00  0.76061084387E+03  0.76061084387E+03  0.00000000000E+00 0. -1.
          1   -1    0    0  501    0 -0.00000000000E+00 -0.00000000000E+00 -0.14390497694E+04  0.14390497694E+04  0.00000000000E+00 0. -1.
         25    2    1    2    0    0 -0.15342728109E+01  0.96526754635E+01 -0.28994376591E+03  0.31589275187E+03  0.12500126062E+03 0.  0.
          2    1    1    2  501    0 -0.46696029662E+02  0.13436166241E+02 -0.11346547714E+04  0.11356947213E+04  0.00000000000E+00 0. -1.
          1    1    1    2  502    0  0.48230302473E+02 -0.23088841705E+02  0.74615961177E+03  0.74807314009E+03  0.00000000000E+00 0. -1.
         22    1    3    3    0    0 -0.39692415909E+02  0.18165701110E+01 -0.26850395122E+03  0.27142800082E+03  0.00000000000E+00 0.  1.
         22    1    3    3    0    0  0.38158143098E+02  0.78361053525E+01 -0.21439814685E+02  0.44464751045E+02  0.00000000000E+00 0.  1.
</event>
<event>
 7    1  0.6146596E-006  0.2692687E+02  0.7818608E-02  0.1687745E+00
          2   -1    0    0  502    0  0.00000000000E+00  0.00000000000E+00  0.96631895333E+03  0.96631895333E+03  0.00000000000E+00 0. -1.
          1   -1    0    0  501    0 -0.00000000000E+00 -0.00000000000E+00 -0.11848037813E+03  0.11848037813E+03  0.00000000000E+00 0. -1.
         25    2    1    2    0    0 -0.35348592550E+02  0.23374042146E+01  0.67081046936E+03  0.68327360512E+03  0.12498458783E+03 0.  0.
          2    1    1    2  501    0  0.23219035347E+02  0.13624397170E+02 -0.11028032575E+03  0.11351871232E+03  0.00000000000E+00 0. -1.
          1    1    1    2  502    0  0.12129557202E+02 -0.15961801385E+02  0.28730843159E+03  0.28800701401E+03  0.00000000000E+00 0. -1.
         22    1    3    3    0    0  0.30007673038E+02 -0.28296027944E+02  0.42743642006E+03  0.42942172608E+03  0.00000000000E+00 0.  1.
         22    1    3    3    0    0 -0.65356265588E+02  0.30633432159E+02  0.24337404930E+03  0.25385187904E+03  0.00000000000E+00 0.  1.
</event>
<event>
 7    1  0.6146596E-006  0.9770040E+02  0.7818608E-02  0.1313095E+00
          2   -1    0    0  502    0  0.00000000000E+00  0.00000000000E+00  0.59423328002E+03  0.59423328002E+03  0.00000000000E+00 0. -1.
          1   -1    0    0  501    0 -0.00000000000E+00 -0.00000000000E+00 -0.13920939597E+03  0.13920939597E+03  0.00000000000E+00 0. -1.
         25    2    1    2    0    0 -0.11129788401E+03 -0.91966053790E+02  0.11204060538E+03  0.22140992974E+03  0.12499714276E+03 0.  0.
          2    1    1    2  501    0  0.36089078440E+02  0.85059604458E+02 -0.54609609224E+02  0.10733017895E+03  0.00000000000E+00 0. -1.
          1    1    1    2  502    0  0.75208805572E+02  0.69064493325E+01  0.39759288789E+03  0.40470256730E+03  0.00000000000E+00 0. -1.
         22    1    3    3    0    0 -0.81116380911E+02 -0.12305011305E+03  0.91364823724E+02  0.17340336960E+03  0.00000000000E+00 0.  1.
         22    1    3    3    0    0 -0.30181503101E+02  0.31084059261E+02  0.20675781654E+02  0.48006560141E+02  0.00000000000E+00 0.  1.
</event>
<event>
 7    1  0.6146596E-006  0.1765761E+03  0.7818608E-02  0.1357884E+00
          2   -1    0    0  502    0  0.00000000000E+00  0.00000000000E+00  0.11597144025E+04  0.11597144025E+04  0.00000000000E+00 0. -1.
          1   -1    0    0  501    0 -0.00000000000E+00 -0.00000000000E+00 -0.60729804942E+02  0.60729804942E+02  0.00000000000E+00 0. -1.
         25    2    1    2    0    0 -0.57604219741E+02  0.16492979408E+03  0.50291524783E+03  0.54687229934E+03  0.12500192866E+03 0.  0.
          2    1    1    2  501    0  0.31256513659E+02 -0.17517884341E+03  0.16848725156E+03  0.24505621960E+03  0.00000000000E+00 0. -1.
          1    1    1    2  502    0  0.26347706082E+02  0.10249049329E+02  0.42758209821E+03  0.42851568856E+03  0.00000000000E+00 0. -1.
         22    1    3    3    0    0 -0.29567645729E+02  0.11466938639E+03  0.15942541665E+03  0.19859450476E+03  0.00000000000E+00 0.  1.
         22    1    3    3    0    0 -0.28036574012E+02  0.50260407696E+02  0.34348983119E+03  0.34827779457E+03  0.00000000000E+00 0.  1.
</event>
<event>
 7    1  0.6146596E-006  0.1009306E+03  0.7818608E-02  0.1414233E+00
          2   -1    0    0  502    0  0.00000000000E+00  0.00000000000E+00  0.10770648497E+04  0.10770648497E+04  0.00000000000E+00 0. -1.
          1   -1    0    0  501    0 -0.00000000000E+00 -0.00000000000E+00 -0.26980198264E+02  0.26980198264E+02  0.00000000000E+00 0. -1.
         25    2    1    2    0    0  0.95001224113E+02  0.11901485468E+02  0.43195354360E+03  0.45975668629E+03  0.12500187529E+03 0.  0.
          2    1    1    2  501    0 -0.75450319957E+00  0.31350746643E+02  0.19910358997E+02  0.37146480124E+02  0.00000000000E+00 0. -1.
          1    1    1    2  502    0 -0.94246720913E+02 -0.43252232111E+02  0.59822074884E+03  0.60714188155E+03  0.00000000000E+00 0. -1.
         22    1    3    3    0    0 -0.36392184942E+01 -0.59328151965E+01 -0.67806887292E+01  0.97169926957E+01  0.00000000000E+00 0.  1.
         22    1    3    3    0    0  0.98640442607E+02  0.17834300664E+02  0.43873423233E+03  0.45003969360E+03  0.00000000000E+00 0.  1.
</event>
<event>
 7    1  0.6146596E-006  0.7544849E+02  0.7818608E-02  0.1345562E+00
          2   -1    0    0  502    0  0.00000000000E+00  0.00000000000E+00  0.21425636844E+03  0.21425636844E+03  0.00000000000E+00 0. -1.
          1   -1    0    0  501    0 -0.00000000000E+00 -0.00000000000E+00 -0.11217629804E+04  0.11217629804E+04  0.00000000000E+00 0. -1.
         25    2    1    2    0    0  0.54499105289E+02  0.57479124871E+02 -0.25238760369E+03  0.29256884133E+03  0.12499208834E+03 0.  0.
          2    1    1    2  501    0  0.20683014457E+02 -0.70506761330E+02 -0.84012252251E+03  0.84332961724E+03  0.00000000000E+00 0. -1.
          1    1    1    2  502    0 -0.75182119746E+02  0.13027636459E+02  0.18500351424E+03  0.20012089027E+03  0.00000000000E+00 0. -1.
         22    1    3    3    0    0  0.79056612616E+02  0.81529244005E+02 -0.19654661311E+03  0.22699677696E+03  0.00000000000E+00 0.  1.
         22    1    3    3    0    0 -0.24557507327E+02 -0.24050119133E+02 -0.55840990587E+02  0.65572064374E+02  0.00000000000E+00 0.  1.
</event>
<event>
 7    1  0.6146596E-006  0.2879497E+02  0.7818608E-02  0.1613362E+00
          2   -1    0    0  502    0  0.00000000000E+00  0.00000000000E+00  0.20597155792E+02  0.20597155792E+02  0.00000000000E+00 0. -1.
          1   -1    0    0  501    0 -0.00000000000E+00 -0.00000000000E+00 -0.15953913223E+04  0.15953913223E+04  0.00000000000E+00 0. -1.
         25    2    1    2    0    0  0.22343411946E+02 -0.48861375286E+01 -0.77573957253E+03  0.78607895514E+03  0.12500054769E+03 0.  0.
          2    1    1    2  501    0 -0.16734371964E+02 -0.23433124258E+02 -0.80048688428E+03  0.80100462073E+03  0.00000000000E+00 0. -1.
          1    1    1    2  502    0 -0.56090399827E+01  0.28319261787E+02  0.14322902988E+01  0.28904902234E+02  0.00000000000E+00 0. -1.
         22    1    3    3    0    0 -0.28396446609E+02  0.27419455834E+02 -0.97649767128E+02  0.10532645327E+03  0.00000000000E+00 0.  1.
         22    1    3    3    0    0  0.50739858555E+02 -0.32305593362E+02 -0.67808980541E+03  0.68075250187E+03  0.00000000000E+00 0.  1.
</event>
<event>
 7    1  0.6146596E-006  0.1469262E+03  0.7818608E-02  0.1277992E+00
          2   -1    0    0  502    0  0.00000000000E+00  0.00000000000E+00  0.27845301638E+04  0.27845301638E+04  0.00000000000E+00 0. -1.
          1   -1    0    0  501    0 -0.00000000000E+00 -0.00000000000E+00 -0.84119946577E+03  0.84119946577E+03  0.00000000000E+00 0. -1.
         25    2    1    2    0    0  0.19336252232E+03 -0.81564370036E+02 -0.26553226996E+03  0.36079242230E+03  0.12498789582E+03 0.  0.
          2    1    1    2  501    0 -0.50825150696E+02  0.47508861785E+02 -0.52377350418E+03  0.52837389373E+03  0.00000000000E+00 0. -1.
          1    1    1    2  502    0 -0.14253737163E+03  0.34055508250E+02  0.27326364722E+04  0.27365633136E+04  0.00000000000E+00 0. -1.
         22    1    3    3    0    0  0.43458336838E+02 -0.61780273645E+02 -0.15838155500E+03  0.17547121193E+03  0.00000000000E+00 0. -1.
         22    1    3    3    0    0  0.14990418549E+03 -0.19784096391E+02 -0.10715071496E+03  0.18532121037E+03  0.00000000000E+00 0. -1.
</event>
<event>
 7    1  0.6146596E-006  0.1112962E+03  0.7818608E-02  0.1340723E+00
          2   -1    0    0  502    0  0.00000000000E+00  0.00000000000E+00  0.28822886536E+03  0.28822886536E+03  0.00000000000E+00 0. -1.
          1   -1    0    0  501    0 -0.00000000000E+00 -0.00000000000E+00 -0.13133297486E+04  0.13133297486E+04  0.00000000000E+00 0. -1.
         25    2    1    2    0    0 -0.97484770011E+02 -0.18431389552E+02 -0.78464249295E+02  0.17783275225E+03  0.12499941139E+03 0.  0.
          2    1    1    2  501    0  0.88440632883E+02  0.69570693572E+02 -0.11796453019E+04  0.11849999431E+04  0.00000000000E+00 0. -1.
          1    1    1    2  502    0  0.90441371285E+01 -0.51139304020E+02  0.23300866798E+03  0.23872591855E+03  0.00000000000E+00 0. -1.
         22    1    3    3    0    0  0.15819014537E+02  0.27884879444E+02 -0.36155752458E+02  0.48322315325E+02  0.00000000000E+00 0. -1.
         22    1    3    3    0    0 -0.11330378455E+03 -0.46316268996E+02 -0.42308496837E+02  0.12951043692E+03  0.00000000000E+00 0. -1.
</event>
<event>
 7    1  0.6146596E-006  0.1667278E+03  0.7818608E-02  0.1286574E+00
          2   -1    0    0  502    0  0.00000000000E+00  0.00000000000E+00  0.43967092443E+04  0.43967092443E+04  0.00000000000E+00 0. -1.
          1   -1    0    0  501    0 -0.00000000000E+00 -0.00000000000E+00 -0.28409030368E+03  0.28409030368E+03  0.00000000000E+00 0. -1.
         25    2    1    2    0    0  0.18616882186E+03  0.74667589077E+02  0.19495444731E+04  0.19638189163E+04  0.12500801819E+03 0.  0.
          2    1    1    2  501    0 -0.13459709505E+03 -0.97791097413E+02 -0.25160682946E+03  0.30163798395E+03  0.00000000000E+00 0. -1.
          1    1    1    2  502    0 -0.51571726812E+02  0.23123508336E+02  0.24146812970E+04  0.24153426477E+04  0.00000000000E+00 0. -1.
         22    1    3    3    0    0  0.20243638039E+03  0.55510217896E+02  0.16683059872E+04  0.16814597049E+04  0.00000000000E+00 0.  1.
         22    1    3    3    0    0 -0.16267558530E+02  0.19157371181E+02  0.28123848589E+03  0.28235921142E+03  0.00000000000E+00 0.  1.
</event>
<event>
 7    1  0.6146596E-006  0.4856353E+02  0.7818608E-02  0.1466770E+00
          2   -1    0    0  502    0  0.00000000000E+00  0.00000000000E+00  0.38020659152E+03  0.38020659152E+03  0.00000000000E+00 0. -1.
          1   -1    0    0  501    0 -0.00000000000E+00 -0.00000000000E+00 -0.17696320606E+03  0.17696320606E+03  0.00000000000E+00 0. -1.
         25    2    1    2    0    0  0.73736031674E+02 -0.41267386536E+02  0.10717274643E+03  0.18507152304E+03  0.12500188600E+03 0.  0.
          2    1    1    2  501    0 -0.27575841669E+02  0.34312401498E+02 -0.13207921431E+03  0.13922171811E+03  0.00000000000E+00 0. -1.
          1    1    1    2  502    0 -0.46160190004E+02  0.69549850384E+01  0.22814985333E+03  0.23287655643E+03  0.00000000000E+00 0. -1.
         22    1    3    3    0    0  0.80771166525E+02  0.13064330901E+02  0.23625129839E+02  0.85163400845E+02  0.00000000000E+00 0.  1.
         22    1    3    3    0    0 -0.70351348512E+01 -0.54331717437E+02  0.83547616594E+02  0.99908122195E+02  0.00000000000E+00 0.  1.
</event>
<event>
 7    1  0.6146596E-006  0.1313752E+03  0.7818608E-02  0.1412042E+00
          2   -1    0    0  502    0  0.00000000000E+00  0.00000000000E+00  0.13926593471E+04  0.13926593471E+04  0.00000000000E+00 0. -1.
          1   -1    0    0  501    0 -0.00000000000E+00 -0.00000000000E+00 -0.46603338097E+03  0.46603338097E+03  0.00000000000E+00 0. -1.
         25    2    1    2    0    0  0.10573801910E+03  0.31179157608E+02  0.20305855806E+03  0.26269752272E+03  0.12499816755E+03 0.  0.
          2    1    1    2  501    0  0.24486323876E+02  0.98641376123E+00 -0.43198692962E+03  0.43268147687E+03  0.00000000000E+00 0. -1.
          1    1    1    2  502    0 -0.13022434297E+03 -0.32165571369E+02  0.11555543377E+04  0.11633137284E+04  0.00000000000E+00 0. -1.
         22    1    3    3    0    0  0.34702171815E+02  0.65526888845E+02  0.46898845218E+02  0.87735486396E+02  0.00000000000E+00 0.  1.
         22    1    3    3    0    0  0.71035847281E+02 -0.34347731237E+02  0.15615971284E+03  0.17496203632E+03  0.00000000000E+00 0.  1.
</event>
<event>
 7    1  0.6146596E-006  0.7870701E+02  0.7818608E-02  0.1378321E+00
          2   -1    0    0  502    0  0.00000000000E+00  0.00000000000E+00  0.16918342934E+04  0.16918342934E+04  0.00000000000E+00 0. -1.
          1   -1    0    0  501    0 -0.00000000000E+00 -0.00000000000E+00 -0.64237733221E+03  0.64237733221E+03  0.00000000000E+00 0. -1.
         25    2    1    2    0    0 -0.66913958529E+02 -0.44220258709E+02  0.10273981339E+03  0.18059057500E+03  0.12499830957E+03 0.  0.
          2    1    1    2  501    0  0.78597648592E+02 -0.80158380486E+01 -0.60040123735E+03  0.60557698919E+03  0.00000000000E+00 0. -1.
          1    1    1    2  502    0 -0.11683690062E+02  0.52236096758E+02  0.15471183852E+04  0.15480440614E+04  0.00000000000E+00 0. -1.
         22    1    3    3    0    0  0.21201433264E+02 -0.10068465400E+02  0.80026245267E+02  0.83397090473E+02  0.00000000000E+00 0.  1.
         22    1    3    3    0    0 -0.88115391793E+02 -0.34151793309E+02  0.22713568127E+02  0.97193484525E+02  0.00000000000E+00 0.  1.
</event>
<event>
 7    1  0.6146596E-006  0.6090679E+02  0.7818608E-02  0.1519122E+00
          2   -1    0    0  502    0  0.00000000000E+00  0.00000000000E+00  0.21877457683E+04  0.21877457683E+04  0.00000000000E+00 0. -1.
          1   -1    0    0  501    0 -0.00000000000E+00 -0.00000000000E+00 -0.40895861865E+02  0.40895861865E+02  0.00000000000E+00 0. -1.
         25    2    1    2    0    0 -0.59282812355E+02  0.33262024726E+02  0.12977141393E+04  0.13054912594E+04  0.12499850692E+03 0.  0.
          2    1    1    2  501    0  0.38948199073E+02 -0.46758565777E+02 -0.11699348409E+02  0.61969350793E+02  0.00000000000E+00 0. -1.
          1    1    1    2  502    0  0.20334613282E+02  0.13496541051E+02  0.86083511549E+03  0.86118101999E+03  0.00000000000E+00 0. -1.
         22    1    3    3    0    0  0.13562327676E+02 -0.28422830706E+02  0.12527374777E+03  0.12917161421E+03  0.00000000000E+00 0. -1.
         22    1    3    3    0    0 -0.72845140031E+02  0.61684855432E+02  0.11724403916E+04  0.11763196452E+04  0.00000000000E+00 0. -1.
</event>
<event>
 7    1  0.6146596E-006  0.5571632E+02  0.7818608E-02  0.1484041E+00
          2   -1    0    0  502    0  0.00000000000E+00  0.00000000000E+00  0.31035127188E+04  0.31035127188E+04  0.00000000000E+00 0. -1.
          1   -1    0    0  501    0 -0.00000000000E+00 -0.00000000000E+00 -0.12211893506E+02  0.12211893506E+02  0.00000000000E+00 0. -1.
         25    2    1    2    0    0  0.24464292518E+02 -0.51566129119E+02  0.60853206013E+03  0.62385468086E+03  0.12500330932E+03 0.  0.
          2    1    1    2  501    0  0.24232160633E+02  0.23757428579E+02  0.63907310468E+02  0.72358533379E+02  0.00000000000E+00 0. -1.
          1    1    1    2  502    0 -0.48696453151E+02  0.27808700540E+02  0.24188614547E+04  0.24195113981E+04  0.00000000000E+00 0. -1.
         22    1    3    3    0    0  0.94969151199E+01 -0.17234165329E+02  0.56921217449E+03  0.56955219905E+03  0.00000000000E+00 0.  1.
         22    1    3    3    0    0  0.14967377398E+02 -0.34331963789E+02  0.39319885633E+02  0.54302481804E+02  0.00000000000E+00 0.  1.
</event>
<event>
 7    1  0.6146596E-006  0.8908406E+02  0.7818608E-02  0.1413489E+00
          2   -1    0    0  502    0  0.00000000000E+00  0.00000000000E+00  0.13447864679E+04  0.13447864679E+04  0.00000000000E+00 0. -1.
          1   -1    0    0  501    0 -0.00000000000E+00 -0.00000000000E+00 -0.65604263369E+03  0.65604263369E+03  0.00000000000E+00 0. -1.
         25    2    1    2    0    0  0.10046029675E+03 -0.22698261456E+02  0.61167511880E+03  0.63274754155E+03  0.12496206656E+03 0.  0.
          2    1    1    2  501    0 -0.75087635395E+02  0.47863335197E+02 -0.64198971715E+03  0.64813567158E+03  0.00000000000E+00 0. -1.
          1    1    1    2  502    0 -0.25372661353E+02 -0.25165073741E+02  0.71905843261E+03  0.71994588851E+03  0.00000000000E+00 0. -1.
         22    1    3    3    0    0  0.56538488996E+02  0.25226250466E+02  0.49770875744E+03  0.50154458594E+03  0.00000000000E+00 0.  1.
         22    1    3    3    0    0  0.43921807752E+02 -0.47924511923E+02  0.11396636137E+03  0.13120295561E+03  0.00000000000E+00 0.  1.
</event>
<event>
 7    1  0.6146596E-006  0.5287074E+02  0.7818608E-02  0.1487714E+00
          2   -1    0    0  502    0  0.00000000000E+00  0.00000000000E+00  0.15904215602E+04  0.15904215602E+04  0.00000000000E+00 0. -1.
          1   -1    0    0  501    0 -0.00000000000E+00 -0.00000000000E+00 -0.24334282598E+02  0.24334282598E+02  0.00000000000E+00 0. -1.
         25    2    1    2    0    0 -0.74149976818E+02 -0.17914960512E+02  0.10563940528E+04  0.10664956529E+04  0.12500167155E+03 0.  0.
          2    1    1    2  501    0  0.33764530081E+02 -0.86443378535E+01 -0.14045900448E+01  0.34881813911E+02  0.00000000000E+00 0. -1.
          1    1    1    2  502    0  0.40385446737E+02  0.26559298365E+02  0.51109781476E+03  0.51337837595E+03  0.00000000000E+00 0. -1.
         22    1    3    3    0    0 -0.42474252346E+02  0.57600580727E+01  0.97561527371E+03  0.97655640015E+03  0.00000000000E+00 0. -1.
         22    1    3    3    0    0 -0.31675724471E+02 -0.23675018585E+02  0.80778779125E+02  0.89939252736E+02  0.00000000000E+00 0. -1.
</event>
<event>
 7    1  0.6146596E-006  0.9495450E+02  0.7818608E-02  0.1477838E+00
          2   -1    0    0  502    0  0.00000000000E+00  0.00000000000E+00  0.78366579903E+03  0.78366579903E+03  0.00000000000E+00 0. -1.
          1   -1    0    0  501    0 -0.00000000000E+00 -0.00000000000E+00 -0.14851290184E+04  0.14851290184E+04  0.00000000000E+00 0. -1.
         25    2    1    2    0    0  0.72665155307E+02 -0.69386814916E+02 -0.40624063438E+03  0.43675166560E+03  0.12500323796E+03 0.  0.
          2    1    1    2  501    0  0.79338589035E+01  0.19230627679E+02 -0.10605985030E+04  0.10608025018E+04  0.00000000000E+00 0. -1.
          1    1    1    2  502    0 -0.80599014211E+02  0.50156187238E+02  0.76537591809E+03  0.77124064999E+03  0.00000000000E+00 0. -1.
         22    1    3    3    0    0  0.43587142744E+02 -0.40838505122E+02 -0.49174086836E+02  0.77367391900E+02  0.00000000000E+00 0.  1.
         22    1    3    3    0    0  0.29078012563E+02 -0.28548309794E+02 -0.35706654755E+03  0.35938427370E+03  0.00000000000E+00 0.  1.
</event>
<event>
 7    1  0.6146596E-006  0.3798777E+02  0.7818608E-02  0.1596992E+00
          2   -1    0    0  502    0  0.00000000000E+00  0.00000000000E+00  0.25374455797E+04  0.25374455797E+04  0.00000000000E+00 0. -1.
          1   -1    0    0  501    0 -0.00000000000E+00 -0.00000000000E+00 -0.53811791456E+02  0.53811791456E+02  0.00000000000E+00 0. -1.
         25    2    1    2    0    0 -0.32391889405E+02  0.52079244725E+02  0.15760745751E+04  0.15822136633E+04  0.12501011085E+03 0.  0.
          2    1    1    2  501    0  0.22834423443E+02 -0.30228967058E+02 -0.43500828161E+02  0.57684689425E+02  0.00000000000E+00 0. -1.
          1    1    1    2  502    0  0.95574659621E+01 -0.21850277667E+02  0.95106004131E+03  0.95135901844E+03  0.00000000000E+00 0. -1.
         22    1    3    3    0    0 -0.62486354967E+02  0.76758690793E+02  0.10255738025E+04  0.10303388111E+04  0.00000000000E+00 0. -1.
         22    1    3    3    0    0  0.30094465562E+02 -0.24679446068E+02  0.55050077253E+03  0.55187485218E+03  0.00000000000E+00 0. -1.
</event>
<event>
 7    1  0.6146596E-006  0.5682831E+02  0.7818608E-02  0.1513794E+00
          2   -1    0    0  502    0  0.00000000000E+00  0.00000000000E+00  0.11046305861E+04  0.11046305861E+04  0.00000000000E+00 0. -1.
          1   -1    0    0  501    0 -0.00000000000E+00 -0.00000000000E+00 -0.15347069198E+03  0.15347069198E+03  0.00000000000E+00 0. -1.
         25    2    1    2    0    0 -0.27381632493E+02  0.30630749645E+02 -0.78077119253E+01  0.13181095698E+03  0.12500068556E+03 0.  0.
          2    1    1    2  501    0  0.12003182539E+02  0.24308970975E+02 -0.80662158306E+02  0.85096335076E+02  0.00000000000E+00 0. -1.
          1    1    1    2  502    0  0.15378449955E+02 -0.54939720620E+02  0.10396297644E+04  0.10411939861E+04  0.00000000000E+00 0. -1.
         22    1    3    3    0    0  0.41858005731E+02  0.24178757454E+02  0.25558997229E+02  0.54680593405E+02  0.00000000000E+00 0.  1.
         22    1    3    3    0    0 -0.69239638224E+02  0.64519921906E+01 -0.33366709155E+02  0.77130363570E+02  0.00000000000E+00 0.  1.
</event>
<event>
 7    1  0.6146596E-006  0.8251278E+02  0.7818608E-02  0.1399249E+00
          2   -1    0    0  502    0  0.00000000000E+00  0.00000000000E+00  0.81955973044E+03  0.81955973044E+03  0.00000000000E+00 0. -1.
          1   -1    0    0  501    0 -0.00000000000E+00 -0.00000000000E+00 -0.38224469377E+03  0.38224469377E+03  0.00000000000E+00 0. -1.
         25    2    1    2    0    0 -0.11137717511E+03  0.15220474565E+02 -0.14861875641E+03  0.22438639711E+03  0.12500072989E+03 0.  0.
          2    1    1    2  501    0  0.30567421914E+02 -0.30443853293E+02 -0.19116905448E+03  0.19597653655E+03  0.00000000000E+00 0. -1.
          1    1    1    2  502    0  0.80809753191E+02  0.15223378728E+02  0.77710284755E+03  0.78144149055E+03  0.00000000000E+00 0. -1.
         22    1    3    3    0    0 -0.97229353326E+02  0.64287356584E+02 -0.95327726363E+02  0.15057817497E+03  0.00000000000E+00 0. -1.
         22    1    3    3    0    0 -0.14147821779E+02 -0.49066882019E+02 -0.53291030042E+02  0.73808222138E+02  0.00000000000E+00 0. -1.
</event>
<event>
 7    1  0.6146596E-006  0.5626023E+02  0.7818608E-02  0.1511848E+00
          2   -1    0    0  502    0  0.00000000000E+00  0.00000000000E+00  0.10453661322E+04  0.10453661322E+04  0.00000000000E+00 0. -1.
          1   -1    0    0  501    0 -0.00000000000E+00 -0.00000000000E+00 -0.39719623739E+02  0.39719623739E+02  0.00000000000E+00 0. -1.
         25    2    1    2    0    0 -0.65092845449E+02  0.55017057938E+01  0.50748270383E+03  0.52671722072E+03  0.12499995448E+03 0.  0.
          2    1    1    2  501    0  0.16764595273E+02  0.22109702962E+02 -0.21891600688E+02  0.35343072877E+02  0.00000000000E+00 0. -1.
          1    1    1    2  502    0  0.48328250176E+02 -0.27611408755E+02  0.52005540533E+03  0.52302546235E+03  0.00000000000E+00 0. -1.
         22    1    3    3    0    0  0.17642013902E+02  0.13299447431E+02  0.33004407810E+03  0.33078272241E+03  0.00000000000E+00 0. -1.
         22    1    3    3    0    0 -0.82734859351E+02 -0.77977416374E+01  0.17743862574E+03  0.19593449832E+03  0.00000000000E+00 0. -1.
</event>
<event>
 7    1  0.6146596E-006  0.1535082E+03  0.7818608E-02  0.1391144E+00
          2   -1    0    0  502    0  0.00000000000E+00  0.00000000000E+00  0.18855833267E+03  0.18855833267E+03  0.00000000000E+00 0. -1.
          1   -1    0    0  501    0 -0.00000000000E+00 -0.00000000000E+00 -0.10768723626E+04  0.10768723626E+04  0.00000000000E+00 0. -1.
         25    2    1    2    0    0 -0.11306433126E+03 -0.64831125436E+02  0.35364576528E+02  0.18401697239E+03  0.12499990010E+03 0.  0.
          2    1    1    2  501    0  0.13215631080E+03  0.80561295450E+02 -0.99446088528E+03  0.10064332393E+04  0.00000000000E+00 0. -1.
          1    1    1    2  502    0 -0.19091979536E+02 -0.15730170014E+02  0.70782278792E+02  0.74980483609E+02  0.00000000000E+00 0. -1.
         22    1    3    3    0    0 -0.65620793754E+02  0.29527447363E+02  0.30888989287E+02  0.78307652116E+02  0.00000000000E+00 0. -1.
         22    1    3    3    0    0 -0.47443537508E+02 -0.94358572799E+02  0.44755872406E+01  0.10570932028E+03  0.00000000000E+00 0. -1.
</event>
<event>
 7    1  0.6924709E-006  0.9696581E+02  0.7818608E-02  0.1471290E+00
          2   -1    0    0  502    0  0.00000000000E+00  0.00000000000E+00  0.22456658113E+04  0.22456658113E+04  0.00000000000E+00 0. -1.
          1   -1    0    0  501    0 -0.00000000000E+00 -0.00000000000E+00 -0.94544592341E+03  0.94544592341E+03  0.00000000000E+00 0. -1.
         25    2    1    2    0    0 -0.78877646878E+02  0.44988345239E+02 -0.39484738925E+03  0.42400046892E+03  0.12500520976E+03 0.  0.
          2    1    1    2  501    0  0.70240537546E+01  0.20154408523E+02 -0.53475498553E+03  0.53518074710E+03  0.00000000000E+00 0. -1.
          1    1    1    2  502    0  0.71853593123E+02 -0.65142753762E+02  0.22298222627E+04  0.22319305187E+04  0.00000000000E+00 0. -1.
         22    1    3    3    0    0  0.29069822674E+02 -0.12414243286E+02 -0.97616224856E+02  0.10260650750E+03  0.00000000000E+00 0.  1.
         22    1    3    3    0    0 -0.10794746955E+03  0.57402588525E+02 -0.29723116439E+03  0.32139396142E+03  0.00000000000E+00 0.  1.
</event>
<event>
 7    1  0.6146596E-006  0.7930342E+02  0.7818608E-02  0.1458385E+00
          2   -1    0    0  502    0  0.00000000000E+00  0.00000000000E+00  0.15092579830E+04  0.15092579830E+04  0.00000000000E+00 0. -1.
          1   -1    0    0  501    0 -0.00000000000E+00 -0.00000000000E+00 -0.30592814016E+03  0.30592814016E+03  0.00000000000E+00 0. -1.
         25    2    1    2    0    0 -0.94393608752E+02 -0.49387212179E+02  0.38761574853E+03  0.42097545728E+03  0.12500046810E+03 0.  0.
          2    1    1    2  501    0  0.66630398422E+02  0.42340914775E+02 -0.28367158236E+03  0.29445191406E+03  0.00000000000E+00 0. -1.
          1    1    1    2  502    0  0.27763210330E+02  0.70462974041E+01  0.10993856767E+04  0.10997587518E+04  0.00000000000E+00 0. -1.
         22    1    3    3    0    0 -0.12406415233E+03 -0.50876783880E+02  0.32854071835E+03  0.35485118662E+03  0.00000000000E+00 0. -1.
         22    1    3    3    0    0  0.29670543578E+02  0.14895717012E+01  0.59075030177E+02  0.66124270661E+02  0.00000000000E+00 0. -1.
</event>
<event>
 7    1  0.6146596E-006  0.1018095E+03  0.7818608E-02  0.1361304E+00
          2   -1    0    0  502    0  0.00000000000E+00  0.00000000000E+00  0.16678064400E+04  0.16678064400E+04  0.00000000000E+00 0. -1.
          1   -1    0    0  501    0 -0.00000000000E+00 -0.00000000000E+00 -0.39583050849E+03  0.39583050849E+03  0.00000000000E+00 0. -1.
         25    2    1    2    0    0 -0.15799585753E+02  0.12466596273E+03  0.14382982594E+03  0.22826196930E+03  0.12500111451E+03 0.  0.
          2    1    1    2  501    0  0.47671414766E+02 -0.89254477751E+02 -0.34598295004E+03  0.36047625068E+03  0.00000000000E+00 0. -1.
          1    1    1    2  502    0 -0.31871829012E+02 -0.35411484979E+02  0.14741290556E+04  0.14748987285E+04  0.00000000000E+00 0. -1.
         22    1    3    3    0    0 -0.10949383374E+01  0.46270126332E+01 -0.22285563661E+02  0.22787156110E+02  0.00000000000E+00 0.  1.
         22    1    3    3    0    0 -0.14704647416E+02  0.12003895010E+03  0.16611538960E+03  0.20547481319E+03  0.00000000000E+00 0.  1.
</event>
<event>
 7    1  0.6146596E-006  0.1682320E+03  0.7818608E-02  0.1297106E+00
          2   -1    0    0  502    0  0.00000000000E+00  0.00000000000E+00  0.10230636390E+03  0.10230636390E+03  0.00000000000E+00 0. -1.
          1   -1    0    0  501    0 -0.00000000000E+00 -0.00000000000E+00 -0.26896354099E+04  0.26896354099E+04  0.00000000000E+00 0. -1.
         25    2    1    2    0    0  0.30058697760E+01 -0.12268871840E+03 -0.10585476286E+04  0.10729442738E+04  0.12499910308E+03 0.  0.
          2    1    1    2  501    0 -0.15079411277E+02 -0.48475413687E+02 -0.15457387659E+04  0.15465722054E+04  0.00000000000E+00 0. -1.
          1    1    1    2  502    0  0.12073541501E+02  0.17116413209E+03  0.16957348504E+02  0.17242529451E+03  0.00000000000E+00 0. -1.
         22    1    3    3    0    0 -0.14375443529E+02 -0.71222507260E+01 -0.12366884846E+02  0.20256348952E+02  0.00000000000E+00 0.  1.
         22    1    3    3    0    0  0.17381313305E+02 -0.11556646768E+03 -0.10461807438E+04  0.10526879249E+04  0.00000000000E+00 0.  1.
</event>
<event>
 7    1  0.6146596E-006  0.1160947E+03  0.7818608E-02  0.1420392E+00
          2   -1    0    0  502    0  0.00000000000E+00  0.00000000000E+00  0.16630809982E+03  0.16630809982E+03  0.00000000000E+00 0. -1.
          1   -1    0    0  501    0 -0.00000000000E+00 -0.00000000000E+00 -0.50722609077E+03  0.50722609077E+03  0.00000000000E+00 0. -1.
         25    2    1    2    0    0  0.25304907778E+02 -0.11539323191E+03 -0.70180626012E+02  0.18574896493E+03  0.12498568469E+03 0.  0.
          2    1    1    2  501    0 -0.49229122133E+02  0.10521917522E+03 -0.36862933804E+03  0.38649989672E+03  0.00000000000E+00 0. -1.
          1    1    1    2  502    0  0.23924214356E+02  0.10174056689E+02  0.97891973097E+02  0.10128532894E+03  0.00000000000E+00 0. -1.
         22    1    3    3    0    0  0.23339531306E+01 -0.91363974868E+02  0.16537129711E+02  0.92877876267E+02  0.00000000000E+00 0. -1.
         22    1    3    3    0    0  0.22970954647E+02 -0.24029257040E+02 -0.86717755723E+02  0.92871088660E+02  0.00000000000E+00 0. -1.
</event>
<event>
 7    1  0.6146596E-006  0.4833083E+02  0.7818608E-02  0.1488891E+00
          2   -1    0    0  502    0  0.00000000000E+00  0.00000000000E+00  0.44297149454E+03  0.44297149454E+03  0.00000000000E+00 0. -1.
          1   -1    0    0  501    0 -0.00000000000E+00 -0.00000000000E+00 -0.96553764422E+02  0.96553764422E+02  0.00000000000E+00 0. -1.
         25    2    1    2    0    0 -0.73792984346E+02 -0.33367313383E+02  0.30488238955E+02  0.15202965563E+03  0.12499880533E+03 0.  0.
          2    1    1    2  501    0  0.38012698196E+02  0.21129667193E+02 -0.21108741666E+02  0.48342600618E+02  0.00000000000E+00 0. -1.
          1    1    1    2  502    0  0.35780286150E+02  0.12237646190E+02  0.33703823283E+03  0.33915300272E+03  0.00000000000E+00 0. -1.
         22    1    3    3    0    0 -0.78815969581E+02 -0.27394869088E+02 -0.31769602913E+02  0.89284621198E+02  0.00000000000E+00 0. -1.
         22    1    3    3    0    0  0.50229852351E+01 -0.59724442954E+01  0.62257841868E+02  0.62745034430E+02  0.00000000000E+00 0. -1.
</event>
<event>
 7    1  0.6146596E-006  0.1174434E+03  0.7818608E-02  0.1352553E+00
          2   -1    0    0  502    0  0.00000000000E+00  0.00000000000E+00  0.15547663137E+04  0.15547663137E+04  0.00000000000E+00 0. -1.
          1   -1    0    0  501    0 -0.00000000000E+00 -0.00000000000E+00 -0.24379218318E+03  0.24379218318E+03  0.00000000000E+00 0. -1.
         25    2    1    2    0    0 -0.12194740403E+03 -0.70544059013E+02  0.82062267440E+03  0.84195876615E+03  0.12500142612E+03 0.  0.
          2    1    1    2  501    0  0.16424826743E+02  0.41322297031E+02 -0.22680998923E+03  0.23112783991E+03  0.00000000000E+00 0. -1.
          1    1    1    2  502    0  0.10552257729E+03  0.29221761982E+02  0.71716144537E+03  0.72547189085E+03  0.00000000000E+00 0. -1.
         22    1    3    3    0    0 -0.60243041132E+02 -0.79213107129E+02  0.26883244903E+03  0.28666151816E+03  0.00000000000E+00 0. -1.
         22    1    3    3    0    0 -0.61704362901E+02  0.86690481158E+01  0.55179022538E+03  0.55529724798E+03  0.00000000000E+00 0. -1.
</event>
<event>
 7    1  0.6146596E-006  0.1789521E+03  0.7818608E-02  0.1183521E+00
          2   -1    0    0  502    0  0.00000000000E+00  0.00000000000E+00  0.61855537223E+03  0.61855537223E+03  0.00000000000E+00 0. -1.
          1   -1    0    0  501    0 -0.00000000000E+00 -0.00000000000E+00 -0.72288766577E+03  0.72288766577E+03  0.00000000000E+00 0. -1.
         25    2    1    2    0    0  0.71280924985E+02  0.28918654669E+02  0.42553954624E+03  0.45013977909E+03  0.12499862580E+03 0.  0.
          2    1    1    2  501    0 -0.15433464222E+03  0.97825076731E+02 -0.66415557313E+03  0.68883347243E+03  0.00000000000E+00 0. -1.
          1    1    1    2  502    0  0.83053717234E+02 -0.12674373140E+03  0.13428373335E+03  0.20246978648E+03  0.00000000000E+00 0. -1.
         22    1    3    3    0    0  0.47470364789E+02 -0.89205275623E+01  0.39012916673E+03  0.39310784535E+03  0.00000000000E+00 0.  1.
         22    1    3    3    0    0  0.23810560196E+02  0.37839182232E+02  0.35410379506E+02  0.57031933735E+02  0.00000000000E+00 0.  1.
</event>
<event>
 7    1  0.6146596E-006  0.1223252E+03  0.7818608E-02  0.1288748E+00
          2   -1    0    0  502    0  0.00000000000E+00  0.00000000000E+00  0.20418056508E+04  0.20418056508E+04  0.00000000000E+00 0. -1.
          1   -1    0    0  501    0 -0.00000000000E+00 -0.00000000000E+00 -0.10325119023E+03  0.10325119023E+03  0.00000000000E+00 0. -1.
         25    2    1    2    0    0 -0.12544741698E+03  0.13106354655E+03  0.41872148886E+03  0.47314597868E+03  0.12499889698E+03 0.  0.
          2    1    1    2  501    0  0.23383490366E+02 -0.71762030366E+02 -0.54539819207E+02  0.93119109226E+02  0.00000000000E+00 0. -1.
          1    1    1    2  502    0  0.10206392661E+03 -0.59301516182E+02  0.15743727909E+04  0.15787917531E+04  0.00000000000E+00 0. -1.
         22    1    3    3    0    0 -0.14241973206E+03  0.13411928401E+03  0.33737266152E+03  0.38998932698E+03  0.00000000000E+00 0.  1.
         22    1    3    3    0    0  0.16972315077E+02 -0.30557374658E+01  0.81348827349E+02  0.83156651697E+02  0.00000000000E+00 0.  1.
</event>
<event>
 7    1  0.8752256E-006  0.5126114E+02  0.7818608E-02  0.1449220E+00
          2   -1    0    0  502    0  0.00000000000E+00  0.00000000000E+00  0.21802409746E+04  0.21802409746E+04  0.00000000000E+00 0. -1.
          1   -1    0    0  501    0 -0.00000000000E+00 -0.00000000000E+00 -0.80147844859E+03  0.80147844859E+03  0.00000000000E+00 0. -1.
         25    2    1    2    0    0  0.43672857481E+02  0.44130771984E+02 -0.13365250205E+03  0.19324266360E+03  0.12499956886E+03 0.  0.
          2    1    1    2  501    0  0.31438253124E+01 -0.51486150440E+02 -0.63672666817E+03  0.63881261516E+03  0.00000000000E+00 0. -1.
          1    1    1    2  502    0 -0.46816682793E+02  0.73553784559E+01  0.21491416963E+04  0.21496641445E+04  0.00000000000E+00 0. -1.
         22    1    3    3    0    0  0.81907540378E+02  0.12234696915E+02 -0.52571137144E+02  0.98093105976E+02  0.00000000000E+00 0.  1.
         22    1    3    3    0    0 -0.38234682898E+02  0.31896075069E+02 -0.81081364905E+02  0.95149557624E+02  0.00000000000E+00 0.  1.
</event>
<event>
 7    1  0.7019027E-006  0.8045152E+02  0.7818608E-02  0.1361855E+00
          2   -1    0    0  502    0  0.00000000000E+00  0.00000000000E+00  0.11445548351E+04  0.11445548351E+04  0.00000000000E+00 0. -1.
          1   -1    0    0  501    0 -0.00000000000E+00 -0.00000000000E+00 -0.16637839412E+04  0.16637839412E+04  0.00000000000E+00 0. -1.
         25    2    1    2    0    0 -0.53096078759E+02 -0.11590972795E+01 -0.22476786823E+03  0.26261285269E+03  0.12499751487E+03 0.  0.
          2    1    1    2  501    0  0.59145682703E+02 -0.58547552594E+02 -0.14180728546E+04  0.14205128118E+04  0.00000000000E+00 0. -1.
          1    1    1    2  502    0 -0.60496039441E+01  0.59706649873E+02  0.11236116167E+04  0.11252131118E+04  0.00000000000E+00 0. -1.
         22    1    3    3    0    0 -0.30302851036E+02  0.13360929524E+02 -0.23222747339E+03  0.23457701638E+03  0.00000000000E+00 0. -1.
         22    1    3    3    0    0 -0.22793227723E+02 -0.14520026804E+02  0.74596051571E+01  0.28035836308E+02  0.00000000000E+00 0. -1.
</event>
<event>
 7    1  0.6146596E-006  0.7632680E+02  0.7818608E-02  0.1445123E+00
          2   -1    0    0  502    0  0.00000000000E+00  0.00000000000E+00  0.41274542049E+03  0.41274542049E+03  0.00000000000E+00 0. -1.
          1   -1    0    0  501    0 -0.00000000000E+00 -0.00000000000E+00 -0.47422522177E+03  0.47422522177E+03  0.00000000000E+00 0. -1.
         25    2    1    2    0    0  0.23717310092E+02 -0.57593711093E+02 -0.83644772385E+02  0.16279288557E+03  0.12500211713E+03 0.  0.
          2    1    1    2  501    0 -0.26521193079E+02 -0.19311150102E+02 -0.34625527928E+03  0.34780599855E+03  0.00000000000E+00 0. -1.
          1    1    1    2  502    0  0.28038829864E+01  0.76904861196E+02  0.36842025038E+03  0.37637175814E+03  0.00000000000E+00 0. -1.
         22    1    3    3    0    0  0.69617139216E+02 -0.53193168180E+01 -0.47000732419E+02  0.84165967302E+02  0.00000000000E+00 0. -1.
         22    1    3    3    0    0 -0.45899829124E+02 -0.52274394275E+02 -0.36644039966E+02  0.78626918263E+02  0.00000000000E+00 0. -1.
</event>
<event>
 7    1  0.6146596E-006  0.2562537E+03  0.7818608E-02  0.1208411E+00
          2   -1    0    0  502    0  0.00000000000E+00  0.00000000000E+00  0.21523907566E+04  0.21523907566E+04  0.00000000000E+00 0. -1.
          1   -1    0    0  501    0 -0.00000000000E+00 -0.00000000000E+00 -0.50167737653E+03  0.50167737653E+03  0.00000000000E+00 0. -1.
         25    2    1    2    0    0 -0.72596658278E+02 -0.31123687711E+03  0.50863438672E+03  0.61357326435E+03  0.12499817160E+03 0.  0.
          2    1    1    2  501    0  0.18129876073E+02  0.25181971653E+03 -0.41260666134E+03  0.48372111699E+03  0.00000000000E+00 0. -1.
          1    1    1    2  502    0  0.54466782205E+02  0.59417160573E+02  0.15546856547E+04  0.15567737518E+04  0.00000000000E+00 0. -1.
         22    1    3    3    0    0  0.33592719357E+00  0.87777207289E+01  0.68875828745E+00  0.88111075497E+01  0.00000000000E+00 0. -1.
         22    1    3    3    0    0 -0.72932585471E+02 -0.32001459784E+03  0.50794562843E+03  0.60476215680E+03  0.00000000000E+00 0. -1.
</event>
<event>
 7    1  0.6146596E-006  0.7161464E+02  0.7818608E-02  0.1402447E+00
          2   -1    0    0  502    0  0.00000000000E+00  0.00000000000E+00  0.23346723366E+03  0.23346723366E+03  0.00000000000E+00 0. -1.
          1   -1    0    0  501    0 -0.00000000000E+00 -0.00000000000E+00 -0.23349498867E+03  0.23349498867E+03  0.00000000000E+00 0. -1.
         25    2    1    2    0    0 -0.65627792778E+02  0.37548212070E+02 -0.10100705849E+03  0.17761875838E+03  0.12501648710E+03 0.  0.
          2    1    1    2  501    0  0.38555409572E+02  0.29366668672E+02 -0.80540145593E+02  0.93998063215E+02  0.00000000000E+00 0. -1.
          1    1    1    2  502    0  0.27072383206E+02 -0.66914880742E+02  0.18151944907E+03  0.19534540073E+03  0.00000000000E+00 0. -1.
         22    1    3    3    0    0 -0.19373729862E+02  0.72660775432E+02 -0.19760565997E+02  0.77752232532E+02  0.00000000000E+00 0.  1.
         22    1    3    3    0    0 -0.46254062916E+02 -0.35112563362E+02 -0.81246492490E+02  0.99866525844E+02  0.00000000000E+00 0.  1.
</event>
<event>
 7    1  0.6146596E-006  0.1399255E+03  0.7818608E-02  0.1243205E+00
          2   -1    0    0  502    0  0.00000000000E+00  0.00000000000E+00  0.21271453182E+04  0.21271453182E+04  0.00000000000E+00 0. -1.
          1   -1    0    0  501    0 -0.00000000000E+00 -0.00000000000E+00 -0.10333388358E+04  0.10333388358E+04  0.00000000000E+00 0. -1.
         25    2    1    2    0    0 -0.27069577040E+02  0.26392734754E+01  0.50749484735E+03  0.52336941462E+03  0.12499918522E+03 0.  0.
          2    1    1    2  501    0  0.21364602704E+02  0.13828481320E+03 -0.10175188199E+04  0.10270947788E+04  0.00000000000E+00 0. -1.
          1    1    1    2  502    0  0.57049743363E+01 -0.14092408668E+03  0.16038304550E+04  0.16100199605E+04  0.00000000000E+00 0. -1.
         22    1    3    3    0    0 -0.70702092067E+02 -0.23352888226E+02  0.35205578148E+03  0.35984360003E+03  0.00000000000E+00 0. -1.
         22    1    3    3    0    0  0.43632515027E+02  0.25992161701E+02  0.15543906587E+03  0.16352581459E+03  0.00000000000E+00 0. -1.
</event>
<event>
 7    1  0.6146596E-006  0.5019423E+02  0.7818608E-02  0.1503658E+00
          2   -1    0    0  502    0  0.00000000000E+00  0.00000000000E+00  0.10126202668E+03  0.10126202668E+03  0.00000000000E+00 0. -1.
          1   -1    0    0  501    0 -0.00000000000E+00 -0.00000000000E+00 -0.43228147180E+03  0.43228147180E+03  0.00000000000E+00 0. -1.
         25    2    1    2    0    0  0.45146222202E+02  0.53167082008E+02 -0.40123384843E+02  0.14866603355E+03  0.12500713393E+03 0.  0.
          2    1    1    2  501    0 -0.45422787290E+02 -0.20287222242E+02 -0.33003302324E+03  0.33376128808E+03  0.00000000000E+00 0. -1.
          1    1    1    2  502    0  0.27656508811E+00 -0.32879859766E+02  0.39136962952E+02  0.51116176848E+02  0.00000000000E+00 0. -1.
         22    1    3    3    0    0 -0.17350291035E+02 -0.10954574844E+02  0.29016778436E+02  0.35538834249E+02  0.00000000000E+00 0.  1.
         22    1    3    3    0    0  0.62496513237E+02  0.64121656852E+02 -0.69140163279E+02  0.11312719930E+03  0.00000000000E+00 0.  1.
</event>
<event>
 7    1  0.6146596E-006  0.4280952E+02  0.7818608E-02  0.1517799E+00
          2   -1    0    0  502    0  0.00000000000E+00  0.00000000000E+00  0.16332422074E+03  0.16332422074E+03  0.00000000000E+00 0. -1.
          1   -1    0    0  501    0 -0.00000000000E+00 -0.00000000000E+00 -0.11688941095E+04  0.11688941095E+04  0.00000000000E+00 0. -1.
         25    2    1    2    0    0 -0.76581219336E+02  0.33049066897E+01 -0.54909837447E+03  0.56834111655E+03  0.12500797713E+03 0.  0.
          2    1    1    2  501    0  0.34711486751E+02  0.47323936386E+01 -0.60670284304E+03  0.60771343791E+03  0.00000000000E+00 0. -1.
          1    1    1    2  502    0  0.41869732584E+02 -0.80373003284E+01  0.15023132879E+03  0.15616377574E+03  0.00000000000E+00 0. -1.
         22    1    3    3    0    0  0.13114590171E+02 -0.32022451499E+02 -0.55402499228E+02  0.65321258378E+02  0.00000000000E+00 0. -1.
         22    1    3    3    0    0 -0.89695809506E+02  0.35327358189E+02 -0.49369587524E+03  0.50301985817E+03  0.00000000000E+00 0. -1.
</event>
<event>
 7    1  0.6146596E-006  0.5291193E+02  0.7818608E-02  0.1472933E+00
          2   -1    0    0  502    0  0.00000000000E+00  0.00000000000E+00  0.18334173905E+03  0.18334173905E+03  0.00000000000E+00 0. -1.
          1   -1    0    0  501    0 -0.00000000000E+00 -0.00000000000E+00 -0.73062928851E+03  0.73062928851E+03  0.00000000000E+00 0. -1.
         25    2    1    2    0    0 -0.21047786944E+02 -0.87792402656E+01 -0.29065796797E+03  0.31721714427E+03  0.12499831151E+03 0.  0.
          2    1    1    2  501    0 -0.30038539646E+02  0.24332460938E+02 -0.42159335650E+03  0.42336195007E+03  0.00000000000E+00 0. -1.
          1    1    1    2  502    0  0.51086326590E+02 -0.15553220673E+02  0.16496377501E+03  0.17339193321E+03  0.00000000000E+00 0. -1.
         22    1    3    3    0    0 -0.67618614402E+02  0.90878799462E+01 -0.22270851403E+03  0.23292477068E+03  0.00000000000E+00 0. -1.
         22    1    3    3    0    0  0.46570827457E+02 -0.17867120212E+02 -0.67949453937E+02  0.84292373588E+02  0.00000000000E+00 0. -1.
</event>
<event>
 7    1  0.6146596E-006  0.1016939E+03  0.7818608E-02  0.1455957E+00
          2   -1    0    0  502    0  0.00000000000E+00  0.00000000000E+00  0.49103226313E+03  0.49103226313E+03  0.00000000000E+00 0. -1.
          1   -1    0    0  501    0 -0.00000000000E+00 -0.00000000000E+00 -0.27353828065E+03  0.27353828065E+03  0.00000000000E+00 0. -1.
         25    2    1    2    0    0 -0.58310921621E+02 -0.72737635759E+02  0.19118370709E+03  0.24671266817E+03  0.12500001418E+03 0.  0.
          2    1    1    2  501    0  0.45498183097E+02  0.91519376479E+02 -0.23463257762E+03  0.25592641016E+03  0.00000000000E+00 0. -1.
          1    1    1    2  502    0  0.12812738523E+02 -0.18781740719E+02  0.26094285301E+03  0.26193146545E+03  0.00000000000E+00 0. -1.
         22    1    3    3    0    0  0.29917354025E+01 -0.86585933718E+02  0.14427446091E+03  0.16828902064E+03  0.00000000000E+00 0.  1.
         22    1    3    3    0    0 -0.61302657023E+02  0.13848297958E+02  0.46909246176E+02  0.78423647526E+02  0.00000000000E+00 0.  1.
</event>
<event>
 7    1  0.6146596E-006  0.8565384E+02  0.7818608E-02  0.1366028E+00
          2   -1    0    0  502    0  0.00000000000E+00  0.00000000000E+00  0.56783746177E+03  0.56783746177E+03  0.00000000000E+00 0. -1.
          1   -1    0    0  501    0 -0.00000000000E+00 -0.00000000000E+00 -0.74128267665E+02  0.74128267665E+02  0.00000000000E+00 0. -1.
         25    2    1    2    0    0  0.45660560336E+02  0.15599241122E+02  0.17476253217E+03  0.22021604119E+03  0.12499975621E+03 0.  0.
          2    1    1    2  501    0 -0.94929181875E+02  0.75504021056E+01 -0.29578017598E+01  0.95274900865E+02  0.00000000000E+00 0. -1.
          1    1    1    2  502    0  0.49268621539E+02 -0.23149643228E+02  0.32190446369E+03  0.32647478738E+03  0.00000000000E+00 0. -1.
         22    1    3    3    0    0  0.84553019465E+01  0.47175399735E+02  0.10777029094E+02  0.49123872275E+02  0.00000000000E+00 0.  1.
         22    1    3    3    0    0  0.37205258390E+02 -0.31576158613E+02  0.16398550308E+03  0.17109216892E+03  0.00000000000E+00 0.  1.
</event>
<event>
 7    1  0.6146596E-006  0.2441899E+02  0.7818608E-02  0.1675706E+00
          2   -1    0    0  502    0  0.00000000000E+00  0.00000000000E+00  0.72367573567E+03  0.72367573567E+03  0.00000000000E+00 0. -1.
          1   -1    0    0  501    0 -0.00000000000E+00 -0.00000000000E+00 -0.47066908177E+02  0.47066908177E+02  0.00000000000E+00 0. -1.
         25    2    1    2    0    0  0.14742089331E+02  0.20419710825E+01  0.52953662726E+02  0.13655882427E+03  0.12499089265E+03 0.  0.
          2    1    1    2  501    0 -0.24474998520E+02  0.19457233147E+02  0.43618919318E+02  0.53667677393E+02  0.00000000000E+00 0. -1.
          1    1    1    2  502    0  0.97329091893E+01 -0.21499204230E+02  0.58003624545E+03  0.58051614219E+03  0.00000000000E+00 0. -1.
         22    1    3    3    0    0  0.13997232796E+02  0.61238750466E+02  0.10453980798E+02  0.63681966043E+02  0.00000000000E+00 0. -1.
         22    1    3    3    0    0  0.74485653442E+00 -0.59196779384E+02  0.42499681928E+02  0.72876858225E+02  0.00000000000E+00 0. -1.
</event>
<event>
 7    1  0.6146596E-006  0.1189668E+03  0.7818608E-02  0.1359276E+00
          2   -1    0    0  502    0  0.00000000000E+00  0.00000000000E+00  0.89181872429E+03  0.89181872429E+03  0.00000000000E+00 0. -1.
          1   -1    0    0  501    0 -0.00000000000E+00 -0.00000000000E+00 -0.35114190873E+02  0.35114190873E+02  0.00000000000E+00 0. -1.
         25    2    1    2    0    0 -0.77215735776E+02 -0.98050975199E+02  0.29723198149E+03  0.34575733087E+03  0.12500006977E+03 0.  0.
          2    1    1    2  501    0  0.37113636811E+02  0.10862135619E+03  0.43926639174E+03  0.45401650187E+03  0.00000000000E+00 0. -1.
          1    1    1    2  502    0  0.40102098965E+02 -0.10570380987E+02  0.12020616019E+03  0.12715908242E+03  0.00000000000E+00 0. -1.
         22    1    3    3    0    0 -0.27796605518E+02  0.27945062566E+02  0.47633377003E+02  0.61826502447E+02  0.00000000000E+00 0.  1.
         22    1    3    3    0    0 -0.49419130257E+02 -0.12599603776E+03  0.24959860449E+03  0.28393082842E+03  0.00000000000E+00 0.  1.
</event>
<event>
 7    1  0.6146596E-006  0.7072559E+02  0.7818608E-02  0.1493989E+00
          2   -1    0    0  502    0  0.00000000000E+00  0.00000000000E+00  0.19380428183E+03  0.19380428183E+03  0.00000000000E+00 0. -1.
          1   -1    0    0  501    0 -0.00000000000E+00 -0.00000000000E+00 -0.27646446741E+04  0.27646446741E+04  0.00000000000E+00 0. -1.
         25    2    1    2    0    0 -0.78460637365E+02 -0.87508843899E+01 -0.18539653640E+04  0.18598505129E+04  0.12499483965E+03 0.  0.
          2    1    1    2  501    0  0.92357283102E+01  0.23168417682E+02 -0.90100905349E+03  0.90135419715E+03  0.00000000000E+00 0. -1.
          1    1    1    2  502    0  0.69224909055E+02 -0.14417533292E+02  0.18413402519E+03  0.19724424588E+03  0.00000000000E+00 0. -1.
         22    1    3    3    0    0 -0.15936881366E+02  0.27707362912E+02 -0.13818425625E+04  0.13822121942E+04  0.00000000000E+00 0. -1.
         22    1    3    3    0    0 -0.62523756000E+02 -0.36458247302E+02 -0.47212280145E+03  0.47763831872E+03  0.00000000000E+00 0. -1.
</event>
<event>
 7    1  0.6146596E-006  0.7407296E+02  0.7818608E-02  0.1459344E+00
          2   -1    0    0  502    0  0.00000000000E+00  0.00000000000E+00  0.97362603300E+03  0.97362603300E+03  0.00000000000E+00 0. -1.
          1   -1    0    0  501    0 -0.00000000000E+00 -0.00000000000E+00 -0.14461773335E+04  0.14461773335E+04  0.00000000000E+00 0. -1.
         25    2    1    2    0    0 -0.82218062314E+02  0.17811878332E+02  0.29793758890E+03  0.33386937678E+03  0.12499952435E+03 0.  0.
          2    1    1    2  501    0  0.20680369863E+02  0.22353923835E+02 -0.14259957615E+04  0.14263208921E+04  0.00000000000E+00 0. -1.
          1    1    1    2  502    0  0.61537692451E+02 -0.40165802167E+02  0.65550687204E+03  0.65961309762E+03  0.00000000000E+00 0. -1.
         22    1    3    3    0    0 -0.87722788132E+02  0.24283928923E+02  0.97994049842E+02  0.13374539456E+03  0.00000000000E+00 0. -1.
         22    1    3    3    0    0  0.55047258187E+01 -0.64720505914E+01  0.19994353906E+03  0.20012398222E+03  0.00000000000E+00 0. -1.
</event>
<event>
 7    1  0.6146596E-006  0.3563667E+02  0.7818608E-02  0.1565604E+00
          2   -1    0    0  502    0  0.00000000000E+00  0.00000000000E+00  0.88191097664E+03  0.88191097664E+03  0.00000000000E+00 0. -1.
          1   -1    0    0  501    0 -0.00000000000E+00 -0.00000000000E+00 -0.91775420217E+02  0.91775420217E+02  0.00000000000E+00 0. -1.
         25    2    1    2    0    0 -0.50283056798E+02  0.41283171171E+02  0.38409491252E+03  0.40912858905E+03  0.12499845811E+03 0.  0.
          2    1    1    2  501    0  0.23707640665E+02 -0.19739863418E+02 -0.75626805837E+02  0.81676974692E+02  0.00000000000E+00 0. -1.
          1    1    1    2  502    0  0.26575416133E+02 -0.21543307753E+02  0.48166744974E+03  0.48288083312E+03  0.00000000000E+00 0. -1.
         22    1    3    3    0    0  0.23109116818E+02  0.60041046427E+02  0.19867470550E+03  0.20883150419E+03  0.00000000000E+00 0.  1.
         22    1    3    3    0    0 -0.73392173617E+02 -0.18757875256E+02  0.18542020702E+03  0.20029708486E+03  0.00000000000E+00 0.  1.
</event>
<event>
 7    1  0.6146596E-006  0.6397919E+02  0.7818608E-02  0.1504201E+00
          2   -1    0    0  502    0  0.00000000000E+00  0.00000000000E+00  0.96605357537E+03  0.96605357537E+03  0.00000000000E+00 0. -1.
          1   -1    0    0  501    0 -0.00000000000E+00 -0.00000000000E+00 -0.52710707680E+03  0.52710707680E+03  0.00000000000E+00 0. -1.
         25    2    1    2    0    0 -0.70853962765E+02 -0.35952989257E+02 -0.34741688482E+03  0.37767286953E+03  0.12500161217E+03 0.  0.
          2    1    1    2  501    0  0.45231568893E+02  0.37958874183E+02 -0.15908490302E+03  0.16969023933E+03  0.00000000000E+00 0. -1.
          1    1    1    2  502    0  0.25622393872E+02 -0.20058849268E+01  0.94544828642E+03  0.94579754331E+03  0.00000000000E+00 0. -1.
         22    1    3    3    0    0  0.23680193001E+02  0.25939656986E+02 -0.82320759739E+02  0.89500418039E+02  0.00000000000E+00 0. -1.
         22    1    3    3    0    0 -0.94534155766E+02 -0.61892646242E+02 -0.26509612509E+03  0.28817245149E+03  0.00000000000E+00 0. -1.
</event>
<event>
 7    1  0.6146596E-006  0.5082867E+02  0.7818608E-02  0.1503849E+00
          2   -1    0    0  502    0  0.00000000000E+00  0.00000000000E+00  0.13758837998E+04  0.13758837998E+04  0.00000000000E+00 0. -1.
          1   -1    0    0  501    0 -0.00000000000E+00 -0.00000000000E+00 -0.64194457745E+02  0.64194457745E+02  0.00000000000E+00 0. -1.
         25    2    1    2    0    0 -0.46421121925E+02 -0.61227700761E+02  0.11607272336E+04  0.11699641033E+04  0.12499816188E+03 0.  0.
          2    1    1    2  501    0  0.16952197486E+02  0.47693618744E+02 -0.47264183469E+02  0.69252879417E+02  0.00000000000E+00 0. -1.
          1    1    1    2  502    0  0.29468924439E+02  0.13534082018E+02  0.19822629198E+03  0.20086127480E+03  0.00000000000E+00 0. -1.
         22    1    3    3    0    0 -0.58729948552E+02 -0.11130207139E+02  0.98523526915E+03  0.98704692085E+03  0.00000000000E+00 0. -1.
         22    1    3    3    0    0  0.12308826627E+02 -0.50097493623E+02  0.17549196441E+03  0.18291718250E+03  0.00000000000E+00 0. -1.
</event>
<event>
 7    1  0.6146596E-006  0.1030655E+03  0.7818608E-02  0.1444281E+00
          2   -1    0    0  502    0  0.00000000000E+00  0.00000000000E+00  0.39017508817E+03  0.39017508817E+03  0.00000000000E+00 0. -1.
          1   -1    0    0  501    0 -0.00000000000E+00 -0.00000000000E+00 -0.21118926598E+03  0.21118926598E+03  0.00000000000E+00 0. -1.
         25    2    1    2    0    0  0.73887853709E+02 -0.10018664387E+03  0.74241740131E+02  0.19139832224E+03  0.12499881297E+03 0.  0.
          2    1    1    2  501    0 -0.62583779327E+02  0.78508793246E+02 -0.13540977073E+03  0.16857095260E+03  0.00000000000E+00 0. -1.
          1    1    1    2  502    0 -0.11304074382E+02  0.21677850623E+02  0.24015385279E+03  0.24139507931E+03  0.00000000000E+00 0. -1.
         22    1    3    3    0    0  0.79031366466E+02 -0.96896314602E+02  0.10299966898E+03  0.16199933481E+03  0.00000000000E+00 0. -1.
         22    1    3    3    0    0 -0.51435127571E+01 -0.32903292670E+01 -0.28757928849E+02  0.29398987429E+02  0.00000000000E+00 0. -1.
</event>
<event>
 7    1  0.6146596E-006  0.1423389E+03  0.7818608E-02  0.1256455E+00
          2   -1    0    0  502    0  0.00000000000E+00  0.00000000000E+00  0.77504550652E+03  0.77504550652E+03  0.00000000000E+00 0. -1.
          1   -1    0    0  501    0 -0.00000000000E+00 -0.00000000000E+00 -0.24905562681E+03  0.24905562681E+03  0.00000000000E+00 0. -1.
         25    2    1    2    0    0 -0.19359219252E+03  0.81217622062E+02  0.47095450331E+03  0.53056456145E+03  0.12500548202E+03 0.  0.
          2    1    1    2  501    0  0.10565017656E+03 -0.91359659030E+02 -0.18838704665E+03  0.23451700675E+03  0.00000000000E+00 0. -1.
          1    1    1    2  502    0  0.87942015955E+02  0.10142036969E+02  0.24342242304E+03  0.25901956514E+03  0.00000000000E+00 0. -1.
         22    1    3    3    0    0 -0.11702233777E+03 -0.59419555878E+01  0.31575670331E+03  0.33679642227E+03  0.00000000000E+00 0.  1.
         22    1    3    3    0    0 -0.76569854744E+02  0.87159577649E+02  0.15519780001E+03  0.19376813917E+03  0.00000000000E+00 0.  1.
</event>
<event>
 7    1  0.6146596E-006  0.7928881E+02  0.7818608E-02  0.1421134E+00
          2   -1    0    0  502    0  0.00000000000E+00  0.00000000000E+00  0.87592749334E+02  0.87592749334E+02  0.00000000000E+00 0. -1.
          1   -1    0    0  501    0 -0.00000000000E+00 -0.00000000000E+00 -0.96356974072E+03  0.96356974072E+03  0.00000000000E+00 0. -1.
         25    2    1    2    0    0 -0.24865875568E+02 -0.84582310556E+02 -0.23681979075E+03  0.28192399825E+03  0.12500019388E+03 0.  0.
          2    1    1    2  501    0  0.52777165863E+02  0.59017793960E+02 -0.69625102954E+03  0.70073820032E+03  0.00000000000E+00 0. -1.
          1    1    1    2  502    0 -0.27911290295E+02  0.25564516595E+02  0.57093828910E+02  0.68500291490E+02  0.00000000000E+00 0. -1.
         22    1    3    3    0    0 -0.25701440566E+02 -0.76893371131E+02 -0.50654864098E+02  0.95598482351E+02  0.00000000000E+00 0.  1.
         22    1    3    3    0    0  0.83556499774E+00 -0.76889394245E+01 -0.18616492665E+03  0.18632551590E+03  0.00000000000E+00 0.  1.
</event>
<event>
 7    1  0.6146596E-006  0.2503661E+03  0.7818608E-02  0.1189532E+00
          2   -1    0    0  502    0  0.00000000000E+00  0.00000000000E+00  0.11720259494E+04  0.11720259494E+04  0.00000000000E+00 0. -1.
          1   -1    0    0  501    0 -0.00000000000E+00 -0.00000000000E+00 -0.15152731026E+03  0.15152731026E+03  0.00000000000E+00 0. -1.
         25    2    1    2    0    0 -0.10755877222E+03 -0.14445528005E+03  0.35585820448E+03  0.41796779994E+03  0.12500321065E+03 0.  0.
          2    1    1    2  501    0  0.17332257415E+03  0.22151850823E+03  0.53756701821E+02  0.28635807512E+03  0.00000000000E+00 0. -1.
          1    1    1    2  502    0 -0.65763801934E+02 -0.77063228172E+02  0.61088373280E+03  0.61922738455E+03  0.00000000000E+00 0. -1.
         22    1    3    3    0    0 -0.75409800793E+02 -0.15840603243E+03  0.24244621000E+03  0.29926455505E+03  0.00000000000E+00 0. -1.
         22    1    3    3    0    0 -0.32148971426E+02  0.13950752372E+02  0.11341199448E+03  0.11870324489E+03  0.00000000000E+00 0. -1.
</event>
<event>
 7    1  0.6146596E-006  0.9415831E+02  0.7818608E-02  0.1417019E+00
          2   -1    0    0  502    0  0.00000000000E+00  0.00000000000E+00  0.12948877031E+04  0.12948877031E+04  0.00000000000E+00 0. -1.
          1   -1    0    0  501    0 -0.00000000000E+00 -0.00000000000E+00 -0.52748457887E+03  0.52748457887E+03  0.00000000000E+00 0. -1.
         25    2    1    2    0    0 -0.87336230855E+02  0.13493237494E+02 -0.13939883306E+03  0.20703957860E+03  0.12499467098E+03 0.  0.
          2    1    1    2  501    0 -0.49976985651E+01 -0.32516541103E+02 -0.35173482623E+03  0.35326999649E+03  0.00000000000E+00 0. -1.
          1    1    1    2  502    0  0.92333929420E+02  0.19023303610E+02  0.12585367835E+04  0.12620627068E+04  0.00000000000E+00 0. -1.
         22    1    3    3    0    0 -0.33556249259E+02  0.31556856840E+02  0.10082773613E+02  0.47154208738E+02  0.00000000000E+00 0. -1.
         22    1    3    3    0    0 -0.53779981596E+02 -0.18063619347E+02 -0.14948160667E+03  0.15988536987E+03  0.00000000000E+00 0. -1.
</event>
<event>
 7    1  0.6146596E-006  0.9375400E+02  0.7818608E-02  0.1414975E+00
          2   -1    0    0  502    0  0.00000000000E+00  0.00000000000E+00  0.81875267399E+03  0.81875267399E+03  0.00000000000E+00 0. -1.
          1   -1    0    0  501    0 -0.00000000000E+00 -0.00000000000E+00 -0.38708883592E+03  0.38708883592E+03  0.00000000000E+00 0. -1.
         25    2    1    2    0    0 -0.27469236480E+02 -0.65392262205E+02  0.25589509764E+03  0.29349419672E+03  0.12500334237E+03 0.  0.
          2    1    1    2  501    0  0.86601061166E+01 -0.32430386181E+02 -0.36294860547E+03  0.36449748641E+03  0.00000000000E+00 0. -1.
          1    1    1    2  502    0  0.18809130364E+02  0.97822648386E+02  0.53871734590E+03  0.54784982677E+03  0.00000000000E+00 0. -1.
         22    1    3    3    0    0  0.48101924606E+02 -0.43870915511E+02  0.11231961566E+03  0.12982352807E+03  0.00000000000E+00 0. -1.
         22    1    3    3    0    0 -0.75571161086E+02 -0.21521346693E+02  0.14357548199E+03  0.16367066866E+03  0.00000000000E+00 0. -1.
</event>
<event>
 7    1  0.6146596E-006  0.8577425E+02  0.7818608E-02  0.1394069E+00
          2   -1    0    0  502    0  0.00000000000E+00  0.00000000000E+00  0.23035634217E+03  0.23035634217E+03  0.00000000000E+00 0. -1.
          1   -1    0    0  501    0 -0.00000000000E+00 -0.00000000000E+00 -0.64303677270E+03  0.64303677270E+03  0.00000000000E+00 0. -1.
         25    2    1    2    0    0 -0.70739906857E+02 -0.61718868362E+02 -0.21877315929E+03  0.26888650557E+03  0.12499961808E+03 0.  0.
          2    1    1    2  501    0  0.31508418886E+02  0.79918615742E+02 -0.39222794765E+03  0.40152525266E+03  0.00000000000E+00 0. -1.
          1    1    1    2  502    0  0.39231487971E+02 -0.18199747380E+02  0.19832067641E+03  0.20298135664E+03  0.00000000000E+00 0. -1.
         22    1    3    3    0    0 -0.42831829843E+02 -0.15394014455E+02 -0.20964823415E+01  0.45562446893E+02  0.00000000000E+00 0. -1.
         22    1    3    3    0    0 -0.27908077015E+02 -0.46324853907E+02 -0.21667667695E+03  0.22332405868E+03  0.00000000000E+00 0. -1.
</event>
<event>
 7    1  0.6146596E-006  0.1983508E+03  0.7818608E-02  0.1342094E+00
          2   -1    0    0  502    0  0.00000000000E+00  0.00000000000E+00  0.44623347605E+03  0.44623347605E+03  0.00000000000E+00 0. -1.
          1   -1    0    0  501    0 -0.00000000000E+00 -0.00000000000E+00 -0.11161486580E+04  0.11161486580E+04  0.00000000000E+00 0. -1.
         25    2    1    2    0    0  0.35893818174E+01 -0.17098306093E+03  0.11459919854E+03  0.24084261817E+03  0.12499639848E+03 0.  0.
          2    1    1    2  501    0 -0.49230850055E+01  0.19974888583E+03 -0.10427410311E+04  0.10617121606E+04  0.00000000000E+00 0. -1.
          1    1    1    2  502    0  0.13337031881E+01 -0.28765824900E+02  0.25822665059E+03  0.25982735523E+03  0.00000000000E+00 0. -1.
         22    1    3    3    0    0  0.19828951940E+02 -0.10978209828E+03  0.19008496200E+01  0.11157468202E+03  0.00000000000E+00 0.  1.
         22    1    3    3    0    0 -0.16239570123E+02 -0.61200962650E+02  0.11269834892E+03  0.12926793615E+03  0.00000000000E+00 0.  1.
</event>
<event>
 7    1  0.6146596E-006  0.2136902E+03  0.7818608E-02  0.1347767E+00
          2   -1    0    0  502    0  0.00000000000E+00  0.00000000000E+00  0.17208753093E+04  0.17208753093E+04  0.00000000000E+00 0. -1.
          1   -1    0    0  501    0 -0.00000000000E+00 -0.00000000000E+00 -0.58410599916E+03  0.58410599916E+03  0.00000000000E+00 0. -1.
         25    2    1    2    0    0  0.15935892514E+03  0.16671326744E+03  0.22975433516E+03  0.34871334420E+03  0.12500144533E+03 0.  0.
          2    1    1    2  501    0 -0.19570940824E+01 -0.25381922138E+02 -0.51649685042E+03  0.51712384270E+03  0.00000000000E+00 0. -1.
          1    1    1    2  502    0 -0.15740183106E+03 -0.14133134530E+03  0.14235118255E+04  0.14391441216E+04  0.00000000000E+00 0. -1.
         22    1    3    3    0    0  0.56775067657E+02 -0.10234816887E+02  0.46604542877E+02  0.74162950325E+02  0.00000000000E+00 0.  1.
         22    1    3    3    0    0  0.10258385749E+03  0.17694808433E+03  0.18314979228E+03  0.27455039387E+03  0.00000000000E+00 0.  1.
</event>
<event>
 7    1  0.6146596E-006  0.1138563E+03  0.7818608E-02  0.1258877E+00
          2   -1    0    0  502    0  0.00000000000E+00  0.00000000000E+00  0.25707924126E+04  0.25707924126E+04  0.00000000000E+00 0. -1.
          1   -1    0    0  501    0 -0.00000000000E+00 -0.00000000000E+00 -0.85474895621E+03  0.85474895621E+03  0.00000000000E+00 0. -1.
         25    2    1    2    0    0 -0.11328359674E+02  0.10144402692E+03  0.68163113594E+03  0.70047518872E+03  0.12500104880E+03 0.  0.
          2    1    1    2  501    0  0.10619909135E+03 -0.19955340313E+02 -0.83978112831E+03  0.84670467465E+03  0.00000000000E+00 0. -1.
          1    1    1    2  502    0 -0.94870731678E+02 -0.81488686605E+02  0.18741934487E+04  0.18783615054E+04  0.00000000000E+00 0. -1.
         22    1    3    3    0    0  0.43998010663E+02  0.71529165851E+02  0.52522979140E+03  0.53190091209E+03  0.00000000000E+00 0. -1.
         22    1    3    3    0    0 -0.55326370337E+02  0.29914861067E+02  0.15640134454E+03  0.16857427663E+03  0.00000000000E+00 0. -1.
</event>
<event>
 7    1  0.6146596E-006  0.6769642E+02  0.7818608E-02  0.1369920E+00
          2   -1    0    0  502    0  0.00000000000E+00  0.00000000000E+00  0.20688717265E+04  0.20688717265E+04  0.00000000000E+00 0. -1.
          1   -1    0    0  501    0 -0.00000000000E+00 -0.00000000000E+00 -0.21621242527E+02  0.21621242527E+02  0.00000000000E+00 0. -1.
         25    2    1    2    0    0  0.17555110809E+02  0.32988691052E+02  0.63606229450E+03  0.64930387593E+03  0.12499538056E+03 0.  0.
          2    1    1    2  501    0  0.56765202965E+02 -0.36885184412E+02  0.68039301648E+02  0.95979954498E+02  0.00000000000E+00 0. -1.
          1    1    1    2  502    0 -0.74320313773E+02  0.38964933595E+01  0.13431488878E+04  0.13452091386E+04  0.00000000000E+00 0. -1.
         22    1    3    3    0    0 -0.32242363141E+01 -0.47322887682E+02  0.22103371387E+03  0.22606581799E+03  0.00000000000E+00 0.  1.
         22    1    3    3    0    0  0.20779347123E+02  0.80311578735E+02  0.41502858063E+03  0.42323805793E+03  0.00000000000E+00 0.  1.
</event>
<event>
 7    1  0.6146596E-006  0.1594661E+03  0.7818608E-02  0.1318869E+00
          2   -1    0    0  502    0  0.00000000000E+00  0.00000000000E+00  0.21454671771E+04  0.21454671771E+04  0.00000000000E+00 0. -1.
          1   -1    0    0  501    0 -0.00000000000E+00 -0.00000000000E+00 -0.77002440591E+03  0.77002440591E+03  0.00000000000E+00 0. -1.
         25    2    1    2    0    0 -0.19735713926E+03 -0.27158732500E+02  0.14328105535E+03  0.27539480929E+03  0.12500161196E+03 0.  0.
          2    1    1    2  501    0  0.43440570922E+02 -0.65501986464E+01 -0.70007215469E+03  0.70144922131E+03  0.00000000000E+00 0. -1.
          1    1    1    2  502    0  0.15391656834E+03  0.33708931147E+02  0.19322338705E+04  0.19386475524E+04  0.00000000000E+00 0. -1.
         22    1    3    3    0    0 -0.10901215860E+03  0.44589229504E+02  0.48839218578E+02  0.12750340929E+03  0.00000000000E+00 0.  1.
         22    1    3    3    0    0 -0.88344980666E+02 -0.71747962005E+02  0.94441836772E+02  0.14789140000E+03  0.00000000000E+00 0.  1.
</event>
<event>
 7    1  0.6146596E-006  0.6273886E+02  0.7818608E-02  0.1401801E+00
          2   -1    0    0  502    0  0.00000000000E+00  0.00000000000E+00  0.89184917020E+02  0.89184917020E+02  0.00000000000E+00 0. -1.
          1   -1    0    0  501    0 -0.00000000000E+00 -0.00000000000E+00 -0.36783110799E+03  0.36783110799E+03  0.00000000000E+00 0. -1.
         25    2    1    2    0    0 -0.44090506407E+02  0.65601140265E+02 -0.16117669928E+03  0.21874668104E+03  0.12499879886E+03 0.  0.
          2    1    1    2  501    0  0.55493716068E+02 -0.35154279518E+01 -0.15510926394E+03  0.16477498147E+03  0.00000000000E+00 0. -1.
          1    1    1    2  502    0 -0.11403209661E+02 -0.62085712314E+02  0.37639772255E+02  0.73494362501E+02  0.00000000000E+00 0. -1.
         22    1    3    3    0    0  0.35069917666E+02  0.83977936567E+01 -0.77699056554E+01  0.36888934619E+02  0.00000000000E+00 0. -1.
         22    1    3    3    0    0 -0.79160424073E+02  0.57203346609E+02 -0.15340679363E+03  0.18185774642E+03  0.00000000000E+00 0. -1.
</event>
<event>
 7    1  0.6146596E-006  0.8590667E+02  0.7818608E-02  0.1393114E+00
          2   -1    0    0  502    0  0.00000000000E+00  0.00000000000E+00  0.69424298150E+03  0.69424298150E+03  0.00000000000E+00 0. -1.
          1   -1    0    0  501    0 -0.00000000000E+00 -0.00000000000E+00 -0.96051895830E+03  0.96051895830E+03  0.00000000000E+00 0. -1.
         25    2    1    2    0    0 -0.90494069485E+02 -0.86564321109E+02  0.23030310121E+03  0.29042570928E+03  0.12500006353E+03 0.  0.
          2    1    1    2  501    0  0.50678594063E+02  0.69014348321E+02 -0.92738963945E+03  0.93133390550E+03  0.00000000000E+00 0. -1.
          1    1    1    2  502    0  0.39815475422E+02  0.17549972788E+02  0.43081056144E+03  0.43300232502E+03  0.00000000000E+00 0. -1.
         22    1    3    3    0    0  0.24242282035E+02 -0.88672490487E+01  0.55713879296E+01  0.26407512329E+02  0.00000000000E+00 0. -1.
         22    1    3    3    0    0 -0.11473635152E+03 -0.77697072060E+02  0.22473171328E+03  0.26401819695E+03  0.00000000000E+00 0. -1.
</event>
<event>
 7    1  0.6146596E-006  0.2129280E+03  0.7818608E-02  0.1239143E+00
          2   -1    0    0  502    0  0.00000000000E+00  0.00000000000E+00  0.18945055058E+04  0.18945055058E+04  0.00000000000E+00 0. -1.
          1   -1    0    0  501    0 -0.00000000000E+00 -0.00000000000E+00 -0.19113851063E+04  0.19113851063E+04  0.00000000000E+00 0. -1.
         25    2    1    2    0    0  0.25821095685E+03  0.94421359646E+02 -0.10735748277E+03  0.32052841762E+03  0.12499818399E+03 0.  0.
          2    1    1    2  501    0 -0.18785216293E+03 -0.92203989108E+02 -0.16902947092E+04  0.17031988183E+04  0.00000000000E+00 0. -1.
          1    1    1    2  502    0 -0.70358793917E+02 -0.22173705371E+01  0.17807725915E+04  0.17821633762E+04  0.00000000000E+00 0. -1.
         22    1    3    3    0    0  0.10862012487E+03 -0.22922444701E+02 -0.51447566585E+02  0.12235449361E+03  0.00000000000E+00 0. -1.
         22    1    3    3    0    0  0.14959083198E+03  0.11734380435E+03 -0.55909916183E+02  0.19817392401E+03  0.00000000000E+00 0. -1.
</event>
<event>
 7    1  0.6146596E-006  0.1282021E+03  0.7818608E-02  0.1310554E+00
          2   -1    0    0  502    0  0.00000000000E+00  0.00000000000E+00  0.14191705477E+03  0.14191705477E+03  0.00000000000E+00 0. -1.
          1   -1    0    0  501    0 -0.00000000000E+00 -0.00000000000E+00 -0.48671065170E+03  0.48671065170E+03  0.00000000000E+00 0. -1.
         25    2    1    2    0    0 -0.18902788077E+02  0.10876940815E+03 -0.30280810137E+03  0.34569658795E+03  0.12500114048E+03 0.  0.
          2    1    1    2  501    0 -0.58834273941E+02 -0.26720148327E+01 -0.11737974175E+03  0.13132636913E+03  0.00000000000E+00 0. -1.
          1    1    1    2  502    0  0.77737062018E+02 -0.10609739332E+03  0.75394246196E+02  0.15160474940E+03  0.00000000000E+00 0. -1.
         22    1    3    3    0    0 -0.29481115377E+02 -0.52697551693E+01 -0.15929612176E+03  0.16208689303E+03  0.00000000000E+00 0. -1.
         22    1    3    3    0    0  0.10578327300E+02  0.11403916332E+03 -0.14351197960E+03  0.18360969492E+03  0.00000000000E+00 0. -1.
</event>
<event>
 7    1  0.6146596E-006  0.8019442E+02  0.7818608E-02  0.1378740E+00
          2   -1    0    0  502    0  0.00000000000E+00  0.00000000000E+00  0.13813446202E+03  0.13813446202E+03  0.00000000000E+00 0. -1.
          1   -1    0    0  501    0 -0.00000000000E+00 -0.00000000000E+00 -0.14506943140E+04  0.14506943140E+04  0.00000000000E+00 0. -1.
         25    2    1    2    0    0  0.37413252118E+02  0.28651977499E+02 -0.15068477121E+03  0.20137450967E+03  0.12500042249E+03 0.  0.
          2    1    1    2  501    0  0.46321074999E+02 -0.24400114420E+02 -0.12584638034E+04  0.12595523618E+04  0.00000000000E+00 0. -1.
          1    1    1    2  502    0 -0.83734327117E+02 -0.42518630793E+01  0.96588722578E+02  0.12790190462E+03  0.00000000000E+00 0. -1.
         22    1    3    3    0    0 -0.10107291381E+02  0.22987704171E+01  0.19849145292E+02  0.22392638373E+02  0.00000000000E+00 0.  1.
         22    1    3    3    0    0  0.47520543499E+02  0.26353207082E+02 -0.17053391650E+03  0.17898187130E+03  0.00000000000E+00 0.  1.
</event>
<event>
 7    1  0.6146596E-006  0.9938613E+02  0.7818608E-02  0.1357446E+00
          2   -1    0    0  502    0  0.00000000000E+00  0.00000000000E+00  0.39762591088E+03  0.39762591088E+03  0.00000000000E+00 0. -1.
          1   -1    0    0  501    0 -0.00000000000E+00 -0.00000000000E+00 -0.98110387035E+03  0.98110387035E+03  0.00000000000E+00 0. -1.
         25    2    1    2    0    0  0.33052753068E+02 -0.39501767441E+02 -0.14259725471E+03  0.19649712143E+03  0.12499707023E+03 0.  0.
          2    1    1    2  501    0  0.23578915387E+02 -0.44559701137E+02 -0.80382333512E+03  0.80540268581E+03  0.00000000000E+00 0. -1.
          1    1    1    2  502    0 -0.56631668454E+02  0.84061468578E+02  0.36294263036E+03  0.37682997399E+03  0.00000000000E+00 0. -1.
         22    1    3    3    0    0  0.59371193291E+02 -0.43009964826E+02 -0.27378060489E+02  0.78258251087E+02  0.00000000000E+00 0. -1.
         22    1    3    3    0    0 -0.26318440223E+02  0.35081973848E+01 -0.11521919422E+03  0.11823887035E+03  0.00000000000E+00 0. -1.
</event>
<event>
 7    1  0.6146596E-006  0.1076110E+03  0.7818608E-02  0.1383907E+00
          2   -1    0    0  502    0  0.00000000000E+00  0.00000000000E+00  0.14426347394E+04  0.14426347394E+04  0.00000000000E+00 0. -1.
          1   -1    0    0  501    0 -0.00000000000E+00 -0.00000000000E+00 -0.75258438255E+02  0.75258438255E+02  0.00000000000E+00 0. -1.
         25    2    1    2    0    0 -0.79958201019E+02 -0.73852788113E+02  0.32953517522E+03  0.36887131684E+03  0.12500027383E+03 0.  0.
          2    1    1    2  501    0  0.30106796767E+02 -0.22204193756E+02 -0.46282131538E+02  0.59510344745E+02  0.00000000000E+00 0. -1.
          1    1    1    2  502    0  0.49851404253E+02  0.96056981869E+02  0.10841232574E+04  0.10895115160E+04  0.00000000000E+00 0. -1.
         22    1    3    3    0    0 -0.22895430357E+02 -0.10024434486E+03  0.20898458929E+03  0.23291133070E+03  0.00000000000E+00 0.  1.
         22    1    3    3    0    0 -0.57062770662E+02  0.26391556749E+02  0.12055058592E+03  0.13595998614E+03  0.00000000000E+00 0.  1.
</event>
<event>
 7    1  0.6146596E-006  0.1019078E+03  0.7818608E-02  0.1471083E+00
          2   -1    0    0  502    0  0.00000000000E+00  0.00000000000E+00  0.49416313837E+03  0.49416313837E+03  0.00000000000E+00 0. -1.
          1   -1    0    0  501    0 -0.00000000000E+00 -0.00000000000E+00 -0.14853821373E+04  0.14853821373E+04  0.00000000000E+00 0. -1.
         25    2    1    2    0    0  0.11123630235E+03  0.57663561289E+01 -0.87409170458E+03  0.88998215672E+03  0.12500066176E+03 0.  0.
          2    1    1    2  501    0 -0.11846936429E+02  0.16531814158E+02 -0.59783560423E+03  0.59818146115E+03  0.00000000000E+00 0. -1.
          1    1    1    2  502    0 -0.99389365924E+02 -0.22298170287E+02  0.48070830987E+03  0.49138165781E+03  0.00000000000E+00 0. -1.
         22    1    3    3    0    0 -0.24529850774E+02 -0.32898135203E+01 -0.65462796219E+02  0.69985099419E+02  0.00000000000E+00 0.  1.
         22    1    3    3    0    0  0.13576615313E+03  0.90561696492E+01 -0.80862890836E+03  0.81999705730E+03  0.00000000000E+00 0.  1.
</event>
<event>
 7    1  0.6146596E-006  0.9991335E+02  0.7818608E-02  0.1326036E+00
          2   -1    0    0  502    0  0.00000000000E+00  0.00000000000E+00  0.11957932894E+04  0.11957932894E+04  0.00000000000E+00 0. -1.
          1   -1    0    0  501    0 -0.00000000000E+00 -0.00000000000E+00 -0.69409856718E+02  0.69409856718E+02  0.00000000000E+00 0. -1.
         25    2    1    2    0    0 -0.11235188896E+03  0.16969927749E+02  0.51882059386E+03  0.54562770794E+03  0.12499544654E+03 0.  0.
          2    1    1    2  501    0  0.22402539227E+02 -0.61851700378E+02 -0.31301171925E+02  0.72851012123E+02  0.00000000000E+00 0. -1.
          1    1    1    2  502    0  0.89949349732E+02  0.44881772628E+02  0.63886401078E+03  0.64672442609E+03  0.00000000000E+00 0. -1.
         22    1    3    3    0    0 -0.53294538277E+02  0.57678508438E+02  0.39325086526E+03  0.40101541263E+03  0.00000000000E+00 0. -1.
         22    1    3    3    0    0 -0.59057350682E+02 -0.40708580689E+02  0.12556972860E+03  0.14461229530E+03  0.00000000000E+00 0. -1.
</event>
<event>
 7    1  0.6146596E-006  0.1246012E+03  0.7818608E-02  0.1327332E+00
          2   -1    0    0  502    0  0.00000000000E+00  0.00000000000E+00  0.25762241444E+04  0.25762241444E+04  0.00000000000E+00 0. -1.
          1   -1    0    0  501    0 -0.00000000000E+00 -0.00000000000E+00 -0.98326172374E+02  0.98326172374E+02  0.00000000000E+00 0. -1.
         25    2    1    2    0    0  0.78383807576E+02 -0.13759434751E+02  0.13441143890E+04  0.13522579779E+04  0.12499921931E+03 0.  0.
          2    1    1    2  501    0 -0.12584086677E+03 -0.78584487368E+01 -0.51255876249E+02  0.13610600213E+03  0.00000000000E+00 0. -1.
          1    1    1    2  502    0  0.47457059196E+02  0.21617883488E+02  0.11850394593E+04  0.11861863367E+04  0.00000000000E+00 0. -1.
         22    1    3    3    0    0 -0.12339881563E+02  0.28521308946E+02  0.67335375726E+03  0.67407048604E+03  0.00000000000E+00 0. -1.
         22    1    3    3    0    0  0.90723689139E+02 -0.42280743697E+02  0.67076063172E+03  0.67818749186E+03  0.00000000000E+00 0. -1.
</event>
<event>
 7    1  0.6146596E-006  0.1364469E+03  0.7818608E-02  0.1352594E+00
          2   -1    0    0  502    0  0.00000000000E+00  0.00000000000E+00  0.20982528741E+03  0.20982528741E+03  0.00000000000E+00 0. -1.
          1   -1    0    0  501    0 -0.00000000000E+00 -0.00000000000E+00 -0.65056552081E+03  0.65056552081E+03  0.00000000000E+00 0. -1.
         25    2    1    2    0    0  0.37811533058E+01 -0.13234193763E+03 -0.16010361954E+03  0.24246088592E+03  0.12500170652E+03 0.  0.
          2    1    1    2  501    0 -0.38249267621E+02 -0.93444672619E+00 -0.42017630462E+03  0.42191469118E+03  0.00000000000E+00 0. -1.
          1    1    1    2  502    0  0.34468114315E+02  0.13327638436E+03  0.13953969077E+03  0.19601523113E+03  0.00000000000E+00 0. -1.
         22    1    3    3    0    0 -0.15564134025E+02 -0.14359828384E+03 -0.16526816721E+03  0.21949094852E+03  0.00000000000E+00 0. -1.
         22    1    3    3    0    0  0.19345287331E+02  0.11256346202E+02  0.51645476645E+01  0.22969937403E+02  0.00000000000E+00 0. -1.
</event>
<event>
 7    1  0.6146596E-006  0.4975204E+02  0.7818608E-02  0.1578185E+00
          2   -1    0    0  502    0  0.00000000000E+00  0.00000000000E+00  0.46767188250E+03  0.46767188250E+03  0.00000000000E+00 0. -1.
          1   -1    0    0  501    0 -0.00000000000E+00 -0.00000000000E+00 -0.61772881702E+02  0.61772881702E+02  0.00000000000E+00 0. -1.
         25    2    1    2    0    0  0.62230883874E+02 -0.15925045601E+02  0.67658993806E+02  0.15598186404E+03  0.12500524981E+03 0.  0.
          2    1    1    2  501    0 -0.12975308563E+02  0.15778955277E+02 -0.93026945322E+01  0.22447142078E+02  0.00000000000E+00 0. -1.
          1    1    1    2  502    0 -0.49255575311E+02  0.14609032450E+00  0.34754270152E+03  0.35101575808E+03  0.00000000000E+00 0. -1.
         22    1    3    3    0    0 -0.24848679072E+02  0.32434051530E+02  0.22069866057E+02  0.46438168979E+02  0.00000000000E+00 0. -1.
         22    1    3    3    0    0  0.87079562946E+02 -0.48359097132E+02  0.45589127749E+02  0.10954369506E+03  0.00000000000E+00 0. -1.
</event>
<event>
 7    1  0.6146596E-006  0.1133526E+03  0.7818608E-02  0.1411033E+00
          2   -1    0    0  502    0  0.00000000000E+00  0.00000000000E+00  0.20524221871E+04  0.20524221871E+04  0.00000000000E+00 0. -1.
          1   -1    0    0  501    0 -0.00000000000E+00 -0.00000000000E+00 -0.25155245737E+04  0.25155245737E+04  0.00000000000E+00 0. -1.
         25    2    1    2    0    0  0.83307480944E+02 -0.37940924769E+02  0.25311594089E+03  0.29676912207E+03  0.12499832848E+03 0.  0.
          2    1    1    2  501    0 -0.11003297237E+03  0.27683144163E+02 -0.24922919673E+04  0.24948733157E+04  0.00000000000E+00 0. -1.
          1    1    1    2  502    0  0.26725491429E+02  0.10257780607E+02  0.17760736397E+04  0.17763043229E+04  0.00000000000E+00 0. -1.
         22    1    3    3    0    0  0.27442477881E+02  0.43524496094E+02  0.12360651465E+03  0.13388816906E+03  0.00000000000E+00 0. -1.
         22    1    3    3    0    0  0.55865003064E+02 -0.81465420863E+02  0.12950942625E+03  0.16288095300E+03  0.00000000000E+00 0. -1.
</event>
<event>
 7    1  0.6146596E-006  0.3719386E+02  0.7818608E-02  0.1614767E+00
          2   -1    0    0  502    0  0.00000000000E+00  0.00000000000E+00  0.10369645475E+04  0.10369645475E+04  0.00000000000E+00 0. -1.
          1   -1    0    0  501    0 -0.00000000000E+00 -0.00000000000E+00 -0.61196987179E+03  0.61196987179E+03  0.00000000000E+00 0. -1.
         25    2    1    2    0    0 -0.44091608463E+01 -0.44788377404E+02 -0.46901265799E+03  0.48746884470E+03  0.12501024656E+03 0.  0.
          2    1    1    2  501    0 -0.16704809532E+02  0.14170261428E+02 -0.13249302638E+03  0.13429165651E+03  0.00000000000E+00 0. -1.
          1    1    1    2  502    0  0.21113970378E+02  0.30618115976E+02  0.10265003601E+04  0.10271739181E+04  0.00000000000E+00 0. -1.
         22    1    3    3    0    0 -0.81074336587E+01  0.39778344135E+02 -0.23797335839E+03  0.24141119785E+03  0.00000000000E+00 0. -1.
         22    1    3    3    0    0  0.36982728124E+01 -0.84566721539E+02 -0.23103929960E+03  0.24605764685E+03  0.00000000000E+00 0. -1.
</event>
<event>
 7    1  0.6146596E-006  0.2085981E+03  0.7818608E-02  0.1316076E+00
          2   -1    0    0  502    0  0.00000000000E+00  0.00000000000E+00  0.14354703028E+04  0.14354703028E+04  0.00000000000E+00 0. -1.
          1   -1    0    0  501    0 -0.00000000000E+00 -0.00000000000E+00 -0.42524934967E+03  0.42524934967E+03  0.00000000000E+00 0. -1.
         25    2    1    2    0    0 -0.57328439735E+02  0.21889696125E+03  0.60887436380E+03  0.66148150474E+03  0.12500944196E+03 0.  0.
          2    1    1    2  501    0  0.27625706564E+02 -0.20558685111E+02 -0.38560216571E+03  0.38713675800E+03  0.00000000000E+00 0. -1.
          1    1    1    2  502    0  0.29702733172E+02 -0.19833827614E+03  0.78694875501E+03  0.81210138971E+03  0.00000000000E+00 0. -1.
         22    1    3    3    0    0  0.12552930356E+02 -0.98643380322E+01  0.71736151292E+02  0.73491201021E+02  0.00000000000E+00 0.  1.
         22    1    3    3    0    0 -0.69881370091E+02  0.22876129929E+03  0.53713821251E+03  0.58799030372E+03  0.00000000000E+00 0.  1.
</event>
<event>
 7    1  0.6146596E-006  0.1445287E+03  0.7818608E-02  0.1372278E+00
          2   -1    0    0  502    0  0.00000000000E+00  0.00000000000E+00  0.17144116218E+04  0.17144116218E+04  0.00000000000E+00 0. -1.
          1   -1    0    0  501    0 -0.00000000000E+00 -0.00000000000E+00 -0.12770360666E+04  0.12770360666E+04  0.00000000000E+00 0. -1.
         25    2    1    2    0    0  0.82492619057E+02 -0.87189128971E+02 -0.21029970028E+03  0.27250269787E+03  0.12499911999E+03 0.  0.
          2    1    1    2  501    0 -0.93437332921E+02  0.11579976171E+03 -0.10301497637E+04  0.10408403603E+04  0.00000000000E+00 0. -1.
          1    1    1    2  502    0  0.10944713864E+02 -0.28610632736E+02  0.16778250191E+04  0.16781046302E+04  0.00000000000E+00 0. -1.
         22    1    3    3    0    0  0.28084058759E+02 -0.11003147485E+03 -0.12626185192E+03  0.16981665132E+03  0.00000000000E+00 0. -1.
         22    1    3    3    0    0  0.54408560298E+02  0.22842345882E+02 -0.84037848358E+02  0.10268604655E+03  0.00000000000E+00 0. -1.
</event>
<event>
 7    1  0.6146596E-006  0.9777944E+02  0.7818608E-02  0.1343112E+00
          2   -1    0    0  502    0  0.00000000000E+00  0.00000000000E+00  0.22035922334E+04  0.22035922334E+04  0.00000000000E+00 0. -1.
          1   -1    0    0  501    0 -0.00000000000E+00 -0.00000000000E+00 -0.54221959892E+03  0.54221959892E+03  0.00000000000E+00 0. -1.
         25    2    1    2    0    0  0.13893542684E+03 -0.54255240211E+02 -0.14494758743E+03  0.24265486128E+03  0.12499957871E+03 0.  0.
          2    1    1    2  501    0 -0.86578005253E+02  0.29523358710E+02 -0.34201770358E+03  0.35403882452E+03  0.00000000000E+00 0. -1.
          1    1    1    2  502    0 -0.52357421591E+02  0.24731881500E+02  0.21483379255E+04  0.21491181465E+04  0.00000000000E+00 0. -1.
         22    1    3    3    0    0  0.10552462671E+03 -0.81099510702E+02 -0.14878602086E+03  0.19962429081E+03  0.00000000000E+00 0.  1.
         22    1    3    3    0    0  0.33410800134E+02  0.26844270492E+02  0.38384334283E+01  0.43030570470E+02  0.00000000000E+00 0.  1.
</event>
<event>
 7    1  0.6146596E-006  0.9485032E+02  0.7818608E-02  0.1323683E+00
          2   -1    0    0  502    0  0.00000000000E+00  0.00000000000E+00  0.18577143880E+03  0.18577143880E+03  0.00000000000E+00 0. -1.
          1   -1    0    0  501    0 -0.00000000000E+00 -0.00000000000E+00 -0.77472558793E+03  0.77472558793E+03  0.00000000000E+00 0. -1.
         25    2    1    2    0    0  0.24983020890E+02  0.96455001533E+02  0.15003539191E+02  0.16055463295E+03  0.12499986127E+03 0.  0.
          2    1    1    2  501    0 -0.80151091196E+02 -0.52149630567E+02 -0.68541054619E+03  0.69204869642E+03  0.00000000000E+00 0. -1.
          1    1    1    2  502    0  0.55168070307E+02 -0.44305370966E+02  0.81452857866E+02  0.10789369737E+03  0.00000000000E+00 0. -1.
         22    1    3    3    0    0  0.61425865658E+02  0.90988722854E+01 -0.94072531581E+01  0.62804640439E+02  0.00000000000E+00 0.  1.
         22    1    3    3    0    0 -0.36442844768E+02  0.87356129247E+02  0.24410792349E+02  0.97749992506E+02  0.00000000000E+00 0.  1.
</event>
<event>
 7    1  0.6146596E-006  0.1437943E+03  0.7818608E-02  0.1322347E+00
          2   -1    0    0  502    0  0.00000000000E+00  0.00000000000E+00  0.12740974028E+04  0.12740974028E+04  0.00000000000E+00 0. -1.
          1   -1    0    0  501    0 -0.00000000000E+00 -0.00000000000E+00 -0.32377142636E+03  0.32377142636E+03  0.00000000000E+00 0. -1.
         25    2    1    2    0    0 -0.37832590967E+02  0.13356583906E+03 -0.24526292878E+03  0.30830239190E+03  0.12500128924E+03 0.  0.
          2    1    1    2  501    0 -0.44608274778E+02 -0.15518465137E+02 -0.29735427379E+02  0.55811437719E+02  0.00000000000E+00 0. -1.
          1    1    1    2  502    0  0.82440865745E+02 -0.11804737392E+03  0.12253243326E+04  0.12337549996E+04  0.00000000000E+00 0. -1.
         22    1    3    3    0    0 -0.39135793348E+01  0.49677420992E+02 -0.20190712522E+03  0.20796550069E+03  0.00000000000E+00 0.  1.
         22    1    3    3    0    0 -0.33919011632E+02  0.83888418065E+02 -0.43355803560E+02  0.10033689121E+03  0.00000000000E+00 0.  1.
</event>
<event>
 7    1  0.6146596E-006  0.5639830E+02  0.7818608E-02  0.1440120E+00
          2   -1    0    0  502    0  0.00000000000E+00  0.00000000000E+00  0.11255021713E+04  0.11255021713E+04  0.00000000000E+00 0. -1.
          1   -1    0    0  501    0 -0.00000000000E+00 -0.00000000000E+00 -0.20486036634E+03  0.20486036634E+03  0.00000000000E+00 0. -1.
         25    2    1    2    0    0 -0.21688163224E+02 -0.39215470695E+01 -0.76186436774E+01  0.12715293093E+03  0.12499627657E+03 0.  0.
          2    1    1    2  501    0 -0.61605069167E+01 -0.45670954301E+02 -0.13282928316E+03  0.14059660870E+03  0.00000000000E+00 0. -1.
          1    1    1    2  502    0  0.27848670140E+02  0.49592501371E+02  0.10610897318E+04  0.10626129980E+04  0.00000000000E+00 0. -1.
         22    1    3    3    0    0 -0.93524241690E+01  0.60151756088E+02  0.34439605299E+01  0.60971816952E+02  0.00000000000E+00 0.  1.
         22    1    3    3    0    0 -0.12335739055E+02 -0.64073303157E+02 -0.11062604207E+02  0.66181113978E+02  0.00000000000E+00 0.  1.
</event>
<event>
 7    1  0.6146596E-006  0.7520582E+02  0.7818608E-02  0.1455426E+00
          2   -1    0    0  502    0  0.00000000000E+00  0.00000000000E+00  0.51607352257E+02  0.51607352257E+02  0.00000000000E+00 0. -1.
          1   -1    0    0  501    0 -0.00000000000E+00 -0.00000000000E+00 -0.10811661412E+04  0.10811661412E+04  0.00000000000E+00 0. -1.
         25    2    1    2    0    0 -0.29451014687E+02  0.62087857100E+02 -0.36018478782E+03  0.38740638951E+03  0.12501345925E+03 0.  0.
          2    1    1    2  501    0 -0.28385913656E+02 -0.12114738753E+02 -0.66821013492E+03  0.66892250029E+03  0.00000000000E+00 0. -1.
          1    1    1    2  502    0  0.57836928343E+02 -0.49973118348E+02 -0.11638661691E+01  0.76444603616E+02  0.00000000000E+00 0. -1.
         22    1    3    3    0    0  0.58317671124E+01  0.51577229008E+02 -0.34277428030E+03  0.34668202621E+03  0.00000000000E+00 0.  1.
         22    1    3    3    0    0 -0.35282781800E+02  0.10510628092E+02 -0.17410507515E+02  0.40724363302E+02  0.00000000000E+00 0.  1.
</event>
<event>
 7    1  0.6146596E-006  0.1237780E+03  0.7818608E-02  0.1307602E+00
          2   -1    0    0  502    0  0.00000000000E+00  0.00000000000E+00  0.42951924865E+02  0.42951924865E+02  0.00000000000E+00 0. -1.
          1   -1    0    0  501    0 -0.00000000000E+00 -0.00000000000E+00 -0.22003613667E+04  0.22003613667E+04  0.00000000000E+00 0. -1.
         25    2    1    2    0    0 -0.92081600415E+02  0.11240908095E+03 -0.10623424213E+04  0.10794957982E+04  0.12499974219E+03 0.  0.
          2    1    1    2  501    0  0.10743300520E+03 -0.51659914235E+02 -0.10946859318E+04  0.11011575212E+04  0.00000000000E+00 0. -1.
          1    1    1    2  502    0 -0.15351404787E+02 -0.60749166718E+02 -0.38108878143E+00  0.62659972188E+02  0.00000000000E+00 0. -1.
         22    1    3    3    0    0 -0.47612865138E+02  0.12756297678E+03 -0.62629688378E+03  0.64092673887E+03  0.00000000000E+00 0. -1.
         22    1    3    3    0    0 -0.44468735277E+02 -0.15153895827E+02 -0.43604553752E+03  0.43856905929E+03  0.00000000000E+00 0. -1.
</event>
<event>
 7    1  0.6146596E-006  0.1468172E+03  0.7818608E-02  0.1217879E+00
          2   -1    0    0  502    0  0.00000000000E+00  0.00000000000E+00  0.29950951759E+04  0.29950951759E+04  0.00000000000E+00 0. -1.
          1   -1    0    0  501    0 -0.00000000000E+00 -0.00000000000E+00 -0.14064128156E+03  0.14064128156E+03  0.00000000000E+00 0. -1.
         25    2    1    2    0    0 -0.11454864803E+03  0.17831806103E+02  0.18385014732E+03  0.25072979357E+03  0.12500074657E+03 0.  0.
          2    1    1    2  501    0  0.12614422484E+03  0.10886519651E+03 -0.40048283847E+02  0.17137053863E+03  0.00000000000E+00 0. -1.
          1    1    1    2  502    0 -0.11595576809E+02 -0.12669700261E+03  0.27106520309E+04  0.27136361253E+04  0.00000000000E+00 0. -1.
         22    1    3    3    0    0 -0.10089739292E+03 -0.41724829445E+02  0.11203109605E+03  0.15643596700E+03  0.00000000000E+00 0. -1.
         22    1    3    3    0    0 -0.13651255109E+02  0.59556635548E+02  0.71819051272E+02  0.94293826571E+02  0.00000000000E+00 0. -1.
</event>
<event>
 7    1  0.6146596E-006  0.3976152E+02  0.7818608E-02  0.1584642E+00
          2   -1    0    0  502    0  0.00000000000E+00  0.00000000000E+00  0.24928421630E+02  0.24928421630E+02  0.00000000000E+00 0. -1.
          1   -1    0    0  501    0 -0.00000000000E+00 -0.00000000000E+00 -0.42758337340E+03  0.42758337340E+03  0.00000000000E+00 0. -1.
         25    2    1    2    0    0 -0.17827348361E+02  0.69094519289E+01 -0.21909289421E+03  0.25297116917E+03  0.12500864476E+03 0.  0.
          2    1    1    2  501    0  0.42240138356E+02 -0.96362297660E+01 -0.15902220114E+03  0.16481852647E+03  0.00000000000E+00 0. -1.
          1    1    1    2  502    0 -0.24412789996E+02  0.27267778371E+01 -0.24539856425E+02  0.34722099391E+02  0.00000000000E+00 0. -1.
         22    1    3    3    0    0 -0.12164999682E+01  0.21796655742E+02 -0.22793406439E+03  0.22897709882E+03  0.00000000000E+00 0. -1.
         22    1    3    3    0    0 -0.16610848393E+02 -0.14887203813E+02  0.88411701862E+01  0.23994070350E+02  0.00000000000E+00 0. -1.
</event>
<event>
 7    1  0.6146596E-006  0.3529692E+02  0.7818608E-02  0.1584039E+00
          2   -1    0    0  502    0  0.00000000000E+00  0.00000000000E+00  0.74805903326E+02  0.74805903326E+02  0.00000000000E+00 0. -1.
          1   -1    0    0  501    0 -0.00000000000E+00 -0.00000000000E+00 -0.32955495409E+03  0.32955495409E+03  0.00000000000E+00 0. -1.
         25    2    1    2    0    0  0.47446987503E+02  0.16968000378E+02 -0.97587501532E+02  0.16639151442E+03  0.12499474372E+03 0.  0.
          2    1    1    2  501    0 -0.34137637198E+02  0.74096960725E+01 -0.19101358655E+03  0.19418154423E+03  0.00000000000E+00 0. -1.
          1    1    1    2  502    0 -0.13309350306E+02 -0.24377696450E+02  0.33852037324E+02  0.43787798766E+02  0.00000000000E+00 0. -1.
         22    1    3    3    0    0  0.40350963802E+02 -0.11447600725E+02 -0.12152876199E+03  0.12856316671E+03  0.00000000000E+00 0.  1.
         22    1    3    3    0    0  0.70960237009E+01  0.28415601102E+02  0.23941260462E+02  0.37828347716E+02  0.00000000000E+00 0.  1.
</event>
<event>
 7    1  0.6146596E-006  0.4364853E+02  0.7818608E-02  0.1520743E+00
          2   -1    0    0  502    0  0.00000000000E+00  0.00000000000E+00  0.25941566655E+03  0.25941566655E+03  0.00000000000E+00 0. -1.
          1   -1    0    0  501    0 -0.00000000000E+00 -0.00000000000E+00 -0.12127377918E+04  0.12127377918E+04  0.00000000000E+00 0. -1.
         25    2    1    2    0    0 -0.22825348447E+02  0.80298982812E+01 -0.98763510567E+03  0.99580692384E+03  0.12499140699E+03 0.  0.
          2    1    1    2  501    0 -0.14796760800E+02 -0.30265433589E+02 -0.21784248721E+03  0.22043205265E+03  0.00000000000E+00 0. -1.
          1    1    1    2  502    0  0.37622109247E+02  0.22235535308E+02  0.25215546767E+03  0.25591448183E+03  0.00000000000E+00 0. -1.
         22    1    3    3    0    0 -0.55340600423E+02 -0.26955917376E+02 -0.28607263896E+03  0.29262050218E+03  0.00000000000E+00 0. -1.
         22    1    3    3    0    0  0.32515251977E+02  0.34985815657E+02 -0.70156246671E+03  0.70318642165E+03  0.00000000000E+00 0. -1.
</event>
<event>
 7    1  0.6146596E-006  0.9042814E+02  0.7818608E-02  0.1341506E+00
          2   -1    0    0  502    0  0.00000000000E+00  0.00000000000E+00  0.45563523797E+03  0.45563523797E+03  0.00000000000E+00 0. -1.
          1   -1    0    0  501    0 -0.00000000000E+00 -0.00000000000E+00 -0.32693741306E+03  0.32693741306E+03  0.00000000000E+00 0. -1.
         25    2    1    2    0    0 -0.74237426977E+00 -0.50795474425E+02  0.35714730912E+02  0.13957574973E+03  0.12500046626E+03 0.  0.
          2    1    1    2  501    0  0.57281648537E+02 -0.27374196398E+02 -0.26486763119E+03  0.27236996152E+03  0.00000000000E+00 0. -1.
          1    1    1    2  502    0 -0.56539274267E+02  0.78169670823E+02  0.35785072519E+03  0.37062693978E+03  0.00000000000E+00 0. -1.
         22    1    3    3    0    0  0.62108909629E+02 -0.23490641023E+02  0.17490652116E+02  0.68667676402E+02  0.00000000000E+00 0. -1.
         22    1    3    3    0    0 -0.62851283899E+02 -0.27304833402E+02  0.18224078795E+02  0.70908073326E+02  0.00000000000E+00 0. -1.
</event>
<event>
 7    1  0.6146596E-006  0.9076838E+02  0.7818608E-02  0.1427873E+00
          2   -1    0    0  502    0  0.00000000000E+00  0.00000000000E+00  0.57094118166E+03  0.57094118166E+03  0.00000000000E+00 0. -1.
          1   -1    0    0  501    0 -0.00000000000E+00 -0.00000000000E+00 -0.35597851988E+02  0.35597851988E+02  0.00000000000E+00 0. -1.
         25    2    1    2    0    0 -0.79194987544E+01  0.77601466942E+02  0.31997579698E+03  0.35226938396E+03  0.12499800837E+03 0.  0.
          2    1    1    2  501    0 -0.24433182303E+02  0.19727637896E+02  0.37136251078E+02  0.48633951500E+02  0.00000000000E+00 0. -1.
          1    1    1    2  502    0  0.32352681057E+02 -0.97329104838E+02  0.17823128162E+03  0.20563569819E+03  0.00000000000E+00 0. -1.
         22    1    3    3    0    0  0.57989365769E+02  0.25668624018E+02  0.13538837852E+03  0.14950470841E+03  0.00000000000E+00 0.  1.
         22    1    3    3    0    0 -0.65908864523E+02  0.51932842924E+02  0.18458741846E+03  0.20276467555E+03  0.00000000000E+00 0.  1.
</event>
<event>
 7    1  0.6146596E-006  0.1157674E+03  0.7818608E-02  0.1430608E+00
          2   -1    0    0  502    0  0.00000000000E+00  0.00000000000E+00  0.40533380336E+03  0.40533380336E+03  0.00000000000E+00 0. -1.
          1   -1    0    0  501    0 -0.00000000000E+00 -0.00000000000E+00 -0.77696778603E+03  0.77696778603E+03  0.00000000000E+00 0. -1.
         25    2    1    2    0    0  0.13156629613E+03 -0.37528100165E+02 -0.29914859846E+02  0.18770189904E+03  0.12497621967E+03 0.  0.
          2    1    1    2  501    0 -0.11207858307E+03  0.23321851592E+02 -0.66280029713E+03  0.67261411777E+03  0.00000000000E+00 0. -1.
          1    1    1    2  502    0 -0.19487713056E+02  0.14206248573E+02  0.32108117431E+03  0.32198557259E+03  0.00000000000E+00 0. -1.
         22    1    3    3    0    0  0.95599425338E+02  0.93334848652E+01 -0.67757075666E+02  0.11754737499E+03  0.00000000000E+00 0.  1.
         22    1    3    3    0    0  0.35966870791E+02 -0.46861585030E+02  0.37842215820E+02  0.70154524047E+02  0.00000000000E+00 0.  1.
</event>
<event>
 7    1  0.6146596E-006  0.3495655E+02  0.7818608E-02  0.1559613E+00
          2   -1    0    0  502    0  0.00000000000E+00  0.00000000000E+00  0.22831144414E+04  0.22831144414E+04  0.00000000000E+00 0. -1.
          1   -1    0    0  501    0 -0.00000000000E+00 -0.00000000000E+00 -0.59706411483E+03  0.59706411483E+03  0.00000000000E+00 0. -1.
         25    2    1    2    0    0  0.29693259295E+02 -0.47933372967E+02 -0.12320164820E+03  0.18434674495E+03  0.12500311342E+03 0.  0.
          2    1    1    2  501    0 -0.29969215722E+02  0.12989151667E+02 -0.44255248655E+03  0.44375621157E+03  0.00000000000E+00 0. -1.
          1    1    1    2  502    0  0.27595642753E+00  0.34944221300E+02  0.22518044613E+04  0.22520755997E+04  0.00000000000E+00 0. -1.
         22    1    3    3    0    0  0.73557319470E+02 -0.13623106522E+02 -0.41727536635E+02  0.85658949285E+02  0.00000000000E+00 0. -1.
         22    1    3    3    0    0 -0.43864060175E+02 -0.34310266445E+02 -0.81474111561E+02  0.98687795665E+02  0.00000000000E+00 0. -1.
</event>
<event>
 7    1  0.6146596E-006  0.1604777E+03  0.7818608E-02  0.1305597E+00
          2   -1    0    0  502    0  0.00000000000E+00  0.00000000000E+00  0.27568032700E+04  0.27568032700E+04  0.00000000000E+00 0. -1.
          1   -1    0    0  501    0 -0.00000000000E+00 -0.00000000000E+00 -0.68771416605E+03  0.68771416605E+03  0.00000000000E+00 0. -1.
         25    2    1    2    0    0 -0.15542218442E+03  0.85016501708E+01  0.33450642589E+02  0.20241822847E+03  0.12500344101E+03 0.  0.
          2    1    1    2  501    0  0.52040214021E+01  0.48945237508E+02 -0.59977083180E+03  0.60178714575E+03  0.00000000000E+00 0. -1.
          1    1    1    2  502    0  0.15021816302E+03 -0.57446887679E+02  0.26354092932E+04  0.26403120618E+04  0.00000000000E+00 0. -1.
         22    1    3    3    0    0 -0.53195123414E+02  0.62575701009E+02  0.27519930345E+02  0.86618624314E+02  0.00000000000E+00 0. -1.
         22    1    3    3    0    0 -0.10222706101E+03 -0.54074050838E+02  0.59307122442E+01  0.11579960416E+03  0.00000000000E+00 0. -1.
</event>
<event>
 7    1  0.6146596E-006  0.1445686E+03  0.7818608E-02  0.1242975E+00
          2   -1    0    0  502    0  0.00000000000E+00  0.00000000000E+00  0.31441751854E+03  0.31441751854E+03  0.00000000000E+00 0. -1.
          1   -1    0    0  501    0 -0.00000000000E+00 -0.00000000000E+00 -0.11232169246E+04  0.11232169246E+04  0.00000000000E+00 0. -1.
         25    2    1    2    0    0 -0.22844165633E+03  0.54985399911E+02 -0.24872868353E+03  0.36428021049E+03  0.12500051675E+03 0.  0.
          2    1    1    2  501    0  0.13338014166E+03 -0.24829625124E+02 -0.80109998906E+03  0.81250720916E+03  0.00000000000E+00 0. -1.
          1    1    1    2  502    0  0.95061514672E+02 -0.30155774787E+02  0.24102926655E+03  0.26084702348E+03  0.00000000000E+00 0. -1.
         22    1    3    3    0    0 -0.67310471803E+02  0.67930763141E+02 -0.13970451197E+03  0.16930043963E+03  0.00000000000E+00 0. -1.
         22    1    3    3    0    0 -0.16113118453E+03 -0.12945363231E+02 -0.10902417156E+03  0.19497977085E+03  0.00000000000E+00 0. -1.
</event>
<event>
 7    1  0.6146596E-006  0.2437529E+03  0.7818608E-02  0.1235205E+00
          2   -1    0    0  502    0  0.00000000000E+00  0.00000000000E+00  0.57595634716E+03  0.57595634716E+03  0.00000000000E+00 0. -1.
          1   -1    0    0  501    0 -0.00000000000E+00 -0.00000000000E+00 -0.38027622161E+03  0.38027622161E+03  0.00000000000E+00 0. -1.
         25    2    1    2    0    0 -0.22821675482E+03 -0.46699523528E+02 -0.10210870950E+03  0.28339788678E+03  0.12499776396E+03 0.  0.
          2    1    1    2  501    0  0.25781904770E+03 -0.10057439028E+02 -0.94936344300E+02  0.27492675917E+03  0.00000000000E+00 0. -1.
          1    1    1    2  502    0 -0.29602292885E+02  0.56756962555E+02  0.39272517935E+03  0.39790792282E+03  0.00000000000E+00 0. -1.
         22    1    3    3    0    0 -0.23967395369E+03 -0.39329533756E+02 -0.11109143847E+03  0.26707999552E+03  0.00000000000E+00 0.  1.
         22    1    3    3    0    0  0.11457198874E+02 -0.73699897719E+01  0.89827289727E+01  0.16317891257E+02  0.00000000000E+00 0.  1.
</event>
<event>
 7    1  0.6146596E-006  0.3096603E+02  0.7818608E-02  0.1602233E+00
          2   -1    0    0  502    0  0.00000000000E+00  0.00000000000E+00  0.60896668167E+03  0.60896668167E+03  0.00000000000E+00 0. -1.
          1   -1    0    0  501    0 -0.00000000000E+00 -0.00000000000E+00 -0.99289722379E+03  0.99289722379E+03  0.00000000000E+00 0. -1.
         25    2    1    2    0    0  0.46989768408E+02 -0.11476307148E+02 -0.37300247485E+03  0.39635748180E+03  0.12501465184E+03 0.  0.
          2    1    1    2  501    0 -0.17877431388E+02  0.22000753738E+02 -0.60748538040E+03  0.60814646518E+03  0.00000000000E+00 0. -1.
          1    1    1    2  502    0 -0.29112337020E+02 -0.10524446590E+02  0.59655731313E+03  0.59735995847E+03  0.00000000000E+00 0. -1.
         22    1    3    3    0    0  0.79816202155E+02 -0.95228210219E+01 -0.34144972525E+03  0.35078372984E+03  0.00000000000E+00 0. -1.
         22    1    3    3    0    0 -0.32826433747E+02 -0.19534861263E+01 -0.31552749594E+02  0.45573751958E+02  0.00000000000E+00 0. -1.
</event>
<event>
 7    1  0.6146596E-006  0.1901499E+03  0.7818608E-02  0.1360778E+00
          2   -1    0    0  502    0  0.00000000000E+00  0.00000000000E+00  0.12792532300E+04  0.12792532300E+04  0.00000000000E+00 0. -1.
          1   -1    0    0  501    0 -0.00000000000E+00 -0.00000000000E+00 -0.81095367600E+03  0.81095367600E+03  0.00000000000E+00 0. -1.
         25    2    1    2    0    0  0.68204972548E+02 -0.17084290711E+03 -0.22876849060E+03  0.31905941269E+03  0.12499867738E+03 0.  0.
          2    1    1    2  501    0  0.25140034039E+02  0.49424875611E+01 -0.52938748373E+03  0.53000712960E+03  0.00000000000E+00 0. -1.
          1    1    1    2  502    0 -0.93345006588E+02  0.16590041955E+03  0.12264555283E+04  0.12411403637E+04  0.00000000000E+00 0. -1.
         22    1    3    3    0    0 -0.11985343324E+02  0.68374686752E+01  0.50006699815E+01  0.14676720776E+02  0.00000000000E+00 0. -1.
         22    1    3    3    0    0  0.80190315872E+02 -0.17768037579E+03 -0.23376916058E+03  0.30438269191E+03  0.00000000000E+00 0. -1.
</event>
<event>
 7    1  0.6146596E-006  0.5148583E+02  0.7818608E-02  0.1439276E+00
          2   -1    0    0  502    0  0.00000000000E+00  0.00000000000E+00  0.18663400738E+03  0.18663400738E+03  0.00000000000E+00 0. -1.
          1   -1    0    0  501    0 -0.00000000000E+00 -0.00000000000E+00 -0.16331894703E+04  0.16331894703E+04  0.00000000000E+00 0. -1.
         25    2    1    2    0    0 -0.67121333534E+02  0.55177168889E+02 -0.22711828874E+03  0.27341847223E+03  0.12500060197E+03 0.  0.
          2    1    1    2  501    0  0.16503552596E+02 -0.48045554620E+02 -0.13784458907E+04  0.13793816789E+04  0.00000000000E+00 0. -1.
          1    1    1    2  502    0  0.50617780938E+02 -0.71316142684E+01  0.15900871653E+03  0.16702332652E+03  0.00000000000E+00 0. -1.
         22    1    3    3    0    0 -0.19970434841E+02  0.13310976394E+02  0.11497510761E+02  0.26611897978E+02  0.00000000000E+00 0.  1.
         22    1    3    3    0    0 -0.47150898693E+02  0.41866192494E+02 -0.23861579950E+03  0.24680657425E+03  0.00000000000E+00 0.  1.
</event>
<event>
 7    1  0.6146596E-006  0.2057873E+03  0.7818608E-02  0.1180738E+00
          2   -1    0    0  502    0  0.00000000000E+00  0.00000000000E+00  0.25936595012E+04  0.25936595012E+04  0.00000000000E+00 0. -1.
          1   -1    0    0  501    0 -0.00000000000E+00 -0.00000000000E+00 -0.16965069826E+03  0.16965069826E+03  0.00000000000E+00 0. -1.
         25    2    1    2    0    0  0.28304519989E+02  0.13249127240E+03  0.72361120670E+03  0.74672098148E+03  0.12499585034E+03 0.  0.
          2    1    1    2  501    0  0.92540948409E+02 -0.19475508484E+03 -0.80760258422E+02  0.23025114450E+03  0.00000000000E+00 0. -1.
          1    1    1    2  502    0 -0.12084546840E+03  0.62263812441E+02  0.17811578547E+04  0.17863380735E+04  0.00000000000E+00 0. -1.
         22    1    3    3    0    0  0.14985266841E+02  0.95800757021E+02  0.68495900721E+03  0.69178839599E+03  0.00000000000E+00 0.  1.
         22    1    3    3    0    0  0.13319253148E+02  0.36690515377E+02  0.38652199494E+02  0.54932585491E+02  0.00000000000E+00 0.  1.
</event>
<event>
 7    1  0.6146596E-006  0.3886167E+02  0.7818608E-02  0.1520348E+00
          2   -1    0    0  502    0  0.00000000000E+00  0.00000000000E+00  0.21290305807E+04  0.21290305807E+04  0.00000000000E+00 0. -1.
          1   -1    0    0  501    0 -0.00000000000E+00 -0.00000000000E+00 -0.10452278053E+02  0.10452278053E+02  0.00000000000E+00 0. -1.
         25    2    1    2    0    0  0.51976611478E+01 -0.52552266863E+01  0.43007158597E+03  0.44793314421E+03  0.12501159762E+03 0.  0.
          2    1    1    2  501    0 -0.29364292316E+02 -0.25455207676E+02  0.30170822864E+03  0.30420073059E+03  0.00000000000E+00 0. -1.
          1    1    1    2  502    0  0.24166631168E+02  0.30710434363E+02  0.13867984881E+04  0.13873489840E+04  0.00000000000E+00 0. -1.
         22    1    3    3    0    0 -0.59953412593E+02 -0.17421667584E+01  0.20808527298E+03  0.21655698478E+03  0.00000000000E+00 0.  1.
         22    1    3    3    0    0  0.65151073741E+02 -0.35130599278E+01  0.22198631298E+03  0.23137615943E+03  0.00000000000E+00 0.  1.
</event>
<event>
 7    1  0.6146596E-006  0.1213104E+03  0.7818608E-02  0.1360883E+00
          2   -1    0    0  502    0  0.00000000000E+00  0.00000000000E+00  0.55481515698E+03  0.55481515698E+03  0.00000000000E+00 0. -1.
          1   -1    0    0  501    0 -0.00000000000E+00 -0.00000000000E+00 -0.69836057982E+03  0.69836057982E+03  0.00000000000E+00 0. -1.
         25    2    1    2    0    0 -0.22977063860E+02 -0.10046765534E+03  0.45351560844E+03  0.48158260897E+03  0.12499482762E+03 0.  0.
          2    1    1    2  501    0  0.62944695795E+02  0.10402080254E+03 -0.67396860390E+03  0.68484745829E+03  0.00000000000E+00 0. -1.
          1    1    1    2  502    0 -0.39967631935E+02 -0.35531472076E+01  0.76907572624E+02  0.86745669544E+02  0.00000000000E+00 0. -1.
         22    1    3    3    0    0  0.37078535832E+02 -0.82955403763E+02  0.34042644068E+03  0.35234440303E+03  0.00000000000E+00 0.  1.
         22    1    3    3    0    0 -0.60055599692E+02 -0.17512251573E+02  0.11308916776E+03  0.12923820593E+03  0.00000000000E+00 0.  1.
</event>
<event>
 7    1  0.6146596E-006  0.1074190E+03  0.7818608E-02  0.1319513E+00
          2   -1    0    0  502    0  0.00000000000E+00  0.00000000000E+00  0.15854334633E+04  0.15854334633E+04  0.00000000000E+00 0. -1.
          1   -1    0    0  501    0 -0.00000000000E+00 -0.00000000000E+00 -0.23038642583E+03  0.23038642583E+03  0.00000000000E+00 0. -1.
         25    2    1    2    0    0 -0.52809006145E+02 -0.17715137749E+02 -0.11369076565E+03  0.17791347105E+03  0.12499998300E+03 0.  0.
          2    1    1    2  501    0 -0.53773103129E+02  0.36236602615E+02 -0.69972474725E+02  0.95398035663E+02  0.00000000000E+00 0. -1.
          1    1    1    2  502    0  0.10658210927E+03 -0.18521464866E+02  0.15387102778E+04  0.15425083824E+04  0.00000000000E+00 0. -1.
         22    1    3    3    0    0  0.32878466914E+02 -0.26355839868E+02 -0.69093862556E+02  0.80929510839E+02  0.00000000000E+00 0. -1.
         22    1    3    3    0    0 -0.85687473059E+02  0.86407021192E+01 -0.44596903095E+02  0.96983960210E+02  0.00000000000E+00 0. -1.
</event>
<event>
 7    1  0.6146596E-006  0.1067563E+03  0.7818608E-02  0.1432006E+00
          2   -1    0    0  502    0  0.00000000000E+00  0.00000000000E+00  0.20687808047E+04  0.20687808047E+04  0.00000000000E+00 0. -1.
          1   -1    0    0  501    0 -0.00000000000E+00 -0.00000000000E+00 -0.64785308140E+03  0.64785308140E+03  0.00000000000E+00 0. -1.
         25    2    1    2    0    0 -0.11025890366E+03  0.48136048915E+02 -0.34564817469E+03  0.38674404000E+03  0.12499674702E+03 0.  0.
          2    1    1    2  501    0  0.60483173343E+01 -0.25159968553E+02 -0.27966932698E+03  0.28086391476E+03  0.00000000000E+00 0. -1.
          1    1    1    2  502    0  0.10421058632E+03 -0.22976080362E+02  0.20462452250E+04  0.20490259313E+04  0.00000000000E+00 0. -1.
         22    1    3    3    0    0 -0.10289780083E+03  0.14420306470E+02 -0.33482570096E+03  0.35057688555E+03  0.00000000000E+00 0.  1.
         22    1    3    3    0    0 -0.73611028336E+01  0.33715742445E+02 -0.10822473729E+02  0.36167154452E+02  0.00000000000E+00 0.  1.
</event>
<event>
 7    1  0.6146596E-006  0.1318540E+03  0.7818608E-02  0.1343038E+00
          2   -1    0    0  502    0  0.00000000000E+00  0.00000000000E+00  0.74046697286E+03  0.74046697286E+03  0.00000000000E+00 0. -1.
          1   -1    0    0  501    0 -0.00000000000E+00 -0.00000000000E+00 -0.76817179777E+03  0.76817179777E+03  0.00000000000E+00 0. -1.
         25    2    1    2    0    0 -0.87009774020E+02  0.13681294181E+03 -0.14747126226E+02  0.20525905416E+03  0.12500127904E+03 0.  0.
          2    1    1    2  501    0  0.46968953570E+02 -0.12122459308E+03 -0.65101919144E+03  0.66387308440E+03  0.00000000000E+00 0. -1.
          1    1    1    2  502    0  0.40040820450E+02 -0.15588348728E+02  0.63806149275E+03  0.63950663206E+03  0.00000000000E+00 0. -1.
         22    1    3    3    0    0 -0.69007651259E+00  0.85506880172E+02 -0.49735629799E+02  0.98921866308E+02  0.00000000000E+00 0. -1.
         22    1    3    3    0    0 -0.86319697507E+02  0.51306061640E+02  0.34988503573E+02  0.10633718786E+03  0.00000000000E+00 0. -1.
</event>
<event>
 7    1  0.6146596E-006  0.1335145E+03  0.7818608E-02  0.1269455E+00
          2   -1    0    0  502    0  0.00000000000E+00  0.00000000000E+00  0.26937587986E+04  0.26937587986E+04  0.00000000000E+00 0. -1.
          1   -1    0    0  501    0 -0.00000000000E+00 -0.00000000000E+00 -0.10438507323E+04  0.10438507323E+04  0.00000000000E+00 0. -1.
         25    2    1    2    0    0 -0.10416491300E+03  0.14891959524E+02  0.38149073274E+03  0.41500923462E+03  0.12500154438E+03 0.  0.
          2    1    1    2  501    0  0.92386457659E+02 -0.97160801598E+02 -0.10219592773E+04  0.10307163738E+04  0.00000000000E+00 0. -1.
          1    1    1    2  502    0  0.11778455337E+02  0.82268842074E+02  0.22903766109E+04  0.22918839224E+04  0.00000000000E+00 0. -1.
         22    1    3    3    0    0 -0.49320665728E+02  0.55695454086E+02  0.96016278480E+02  0.12146455206E+03  0.00000000000E+00 0.  1.
         22    1    3    3    0    0 -0.54844247268E+02 -0.40803494562E+02  0.28547445426E+03  0.29354468256E+03  0.00000000000E+00 0.  1.
</event>
<event>
 7    1  0.6146596E-006  0.6044667E+02  0.7818608E-02  0.1442220E+00
          2   -1    0    0  502    0  0.00000000000E+00  0.00000000000E+00  0.54382026146E+03  0.54382026146E+03  0.00000000000E+00 0. -1.
          1   -1    0    0  501    0 -0.00000000000E+00 -0.00000000000E+00 -0.19082997613E+04  0.19082997613E+04  0.00000000000E+00 0. -1.
         25    2    1    2    0    0  0.67555493382E+02  0.47475075858E+02  0.11806496166E+03  0.19074052274E+03  0.12499993731E+03 0.  0.
          2    1    1    2  501    0 -0.25831415465E+02 -0.54609395726E+02 -0.18703225496E+04  0.18712979152E+04  0.00000000000E+00 0. -1.
          1    1    1    2  502    0 -0.41724077917E+02  0.71343198680E+01  0.38777808807E+03  0.39008158478E+03  0.00000000000E+00 0. -1.
         22    1    3    3    0    0 -0.21260506707E+02  0.12420231863E+02  0.86867177883E+02  0.90289411883E+02  0.00000000000E+00 0.  1.
         22    1    3    3    0    0  0.88816000089E+02  0.35054843995E+02  0.31197783782E+02  0.10045111086E+03  0.00000000000E+00 0.  1.
</event>
<event>
 7    1  0.6146596E-006  0.6679286E+02  0.7818608E-02  0.1424424E+00
          2   -1    0    0  502    0  0.00000000000E+00  0.00000000000E+00  0.22070555517E+04  0.22070555517E+04  0.00000000000E+00 0. -1.
          1   -1    0    0  501    0 -0.00000000000E+00 -0.00000000000E+00 -0.27098545641E+02  0.27098545641E+02  0.00000000000E+00 0. -1.
         25    2    1    2    0    0  0.21124882275E+02  0.39429780942E+02  0.64297417237E+03  0.65653871338E+03  0.12500531012E+03 0.  0.
          2    1    1    2  501    0  0.42721551076E+02 -0.97161300403E+01  0.50927572699E+01  0.44107485599E+02  0.00000000000E+00 0. -1.
          1    1    1    2  502    0 -0.63846433351E+02 -0.29713650902E+02  0.15318900764E+04  0.15335078984E+04  0.00000000000E+00 0. -1.
         22    1    3    3    0    0 -0.18409519511E+01 -0.13076351506E+02  0.52711666257E+03  0.52728204600E+03  0.00000000000E+00 0. -1.
         22    1    3    3    0    0  0.22965834226E+02  0.52506132448E+02  0.11585750980E+03  0.12925666739E+03  0.00000000000E+00 0. -1.
</event>
<event>
 7    1  0.6146596E-006  0.1571487E+03  0.7818608E-02  0.1273518E+00
          2   -1    0    0  502    0  0.00000000000E+00  0.00000000000E+00  0.86605316535E+03  0.86605316535E+03  0.00000000000E+00 0. -1.
          1   -1    0    0  501    0 -0.00000000000E+00 -0.00000000000E+00 -0.28208090883E+04  0.28208090883E+04  0.00000000000E+00 0. -1.
         25    2    1    2    0    0 -0.17697151422E+03  0.10558969526E+03 -0.13285905151E+04  0.13502763835E+04  0.12500181789E+03 0.  0.
          2    1    1    2  501    0  0.13068361392E+03 -0.55919265869E+02 -0.14766097160E+04  0.14834356827E+04  0.00000000000E+00 0. -1.
          1    1    1    2  502    0  0.46287900297E+02 -0.49670429392E+02  0.85044430810E+03  0.85315018751E+03  0.00000000000E+00 0. -1.
         22    1    3    3    0    0 -0.13694901996E+03  0.62255974889E+02 -0.57407293783E+03  0.59345646717E+03  0.00000000000E+00 0. -1.
         22    1    3    3    0    0 -0.40022494258E+02  0.43333720372E+02 -0.75451757725E+03  0.75681991633E+03  0.00000000000E+00 0. -1.
</event>
<event>
 7    1  0.6146596E-006  0.9917927E+02  0.7818608E-02  0.1378265E+00
          2   -1    0    0  502    0  0.00000000000E+00  0.00000000000E+00  0.41510290918E+03  0.41510290918E+03  0.00000000000E+00 0. -1.
          1   -1    0    0  501    0 -0.00000000000E+00 -0.00000000000E+00 -0.63836086384E+03  0.63836086384E+03  0.00000000000E+00 0. -1.
         25    2    1    2    0    0  0.67675688571E+02  0.75453551741E+01  0.64198342943E+02  0.15615277237E+03  0.12500131949E+03 0.  0.
          2    1    1    2  501    0  0.31830202373E+02  0.28158277110E+02 -0.58242314428E+03  0.58397154840E+03  0.00000000000E+00 0. -1.
          1    1    1    2  502    0 -0.99505890943E+02 -0.35703632284E+02  0.29496684668E+03  0.31333945224E+03  0.00000000000E+00 0. -1.
         22    1    3    3    0    0 -0.13812470970E+02 -0.43477142946E+02  0.14150811260E+02  0.47762870227E+02  0.00000000000E+00 0. -1.
         22    1    3    3    0    0  0.81488159540E+02  0.51022498120E+02  0.50047531683E+02  0.10838990215E+03  0.00000000000E+00 0. -1.
</event>
<event>
 7    1  0.6146596E-006  0.1344561E+03  0.7818608E-02  0.1263579E+00
          2   -1    0    0  502    0  0.00000000000E+00  0.00000000000E+00  0.38456798583E+03  0.38456798583E+03  0.00000000000E+00 0. -1.
          1   -1    0    0  501    0 -0.00000000000E+00 -0.00000000000E+00 -0.18726253626E+04  0.18726253626E+04  0.00000000000E+00 0. -1.
         25    2    1    2    0    0 -0.40186161017E+02  0.31657723677E+02 -0.80972000323E+03  0.82090831876E+03  0.12500738045E+03 0.  0.
          2    1    1    2  501    0 -0.84679171005E+02  0.21552556280E+02 -0.10432729432E+04  0.10469257417E+04  0.00000000000E+00 0. -1.
          1    1    1    2  502    0  0.12486533202E+03 -0.53210279957E+02  0.36493556971E+03  0.38935928790E+03  0.00000000000E+00 0. -1.
         22    1    3    3    0    0  0.29268167139E+02 -0.59962609042E+01 -0.51241408852E+03  0.51328430608E+03  0.00000000000E+00 0. -1.
         22    1    3    3    0    0 -0.69454328156E+02  0.37653984581E+02 -0.29730591471E+03  0.30762401268E+03  0.00000000000E+00 0. -1.
</event>
<event>
 7    1  0.6146596E-006  0.1758959E+03  0.7818608E-02  0.1314835E+00
          2   -1    0    0  502    0  0.00000000000E+00  0.00000000000E+00  0.12927523905E+04  0.12927523905E+04  0.00000000000E+00 0. -1.
          1   -1    0    0  501    0 -0.00000000000E+00 -0.00000000000E+00 -0.69381416369E+03  0.69381416369E+03  0.00000000000E+00 0. -1.
         25    2    1    2    0    0  0.20104206658E+03  0.61539592478E+02  0.32505871247E+03  0.40680834511E+03  0.12499931647E+03 0.  0.
          2    1    1    2  501    0 -0.16049147504E+03 -0.69355189523E+02 -0.64076121372E+03  0.66418565845E+03  0.00000000000E+00 0. -1.
          1    1    1    2  502    0 -0.40550591543E+02  0.78155970449E+01  0.91464072811E+03  0.91557255068E+03  0.00000000000E+00 0. -1.
         22    1    3    3    0    0  0.19412670106E+03  0.89601636671E+02  0.26791112128E+03  0.34276814068E+03  0.00000000000E+00 0. -1.
         22    1    3    3    0    0  0.69153655243E+01 -0.28062044193E+02  0.57147591188E+02  0.64040204428E+02  0.00000000000E+00 0. -1.
</event>
<event>
 7    1  0.6146596E-006  0.8464984E+02  0.7818608E-02  0.1402014E+00
          2   -1    0    0  502    0  0.00000000000E+00  0.00000000000E+00  0.35307312725E+03  0.35307312725E+03  0.00000000000E+00 0. -1.
          1   -1    0    0  501    0 -0.00000000000E+00 -0.00000000000E+00 -0.12885915330E+03  0.12885915330E+03  0.00000000000E+00 0. -1.
         25    2    1    2    0    0 -0.79002783547E+02 -0.35448316422E+02  0.38748668659E+02  0.15692257455E+03  0.12500084853E+03 0.  0.
          2    1    1    2  501    0 -0.63469143457E+01  0.40650302367E+02 -0.55635048544E+02  0.69195296306E+02  0.00000000000E+00 0. -1.
          1    1    1    2  502    0  0.85349697892E+02 -0.52019859458E+01  0.24110035384E+03  0.25581440970E+03  0.00000000000E+00 0. -1.
         22    1    3    3    0    0 -0.10057355248E+03 -0.55528601044E+02  0.50110503520E+02  0.12533765418E+03  0.00000000000E+00 0. -1.
         22    1    3    3    0    0  0.21570768935E+02  0.20080284622E+02 -0.11361834862E+02  0.31584920364E+02  0.00000000000E+00 0. -1.
</event>
<event>
 7    1  0.6146596E-006  0.4953695E+02  0.7818608E-02  0.1494344E+00
          2   -1    0    0  502    0  0.00000000000E+00  0.00000000000E+00  0.70657709244E+03  0.70657709244E+03  0.00000000000E+00 0. -1.
          1   -1    0    0  501    0 -0.00000000000E+00 -0.00000000000E+00 -0.43424332751E+03  0.43424332751E+03  0.00000000000E+00 0. -1.
         25    2    1    2    0    0 -0.13455712910E+02 -0.50111566761E+01 -0.10395746938E+03  0.16321540156E+03  0.12500377581E+03 0.  0.
          2    1    1    2  501    0 -0.31210934916E+02 -0.16962016616E+02 -0.29868791855E+03  0.30079279438E+03  0.00000000000E+00 0. -1.
          1    1    1    2  502    0  0.44666647827E+02  0.21973173292E+02  0.67497915286E+03  0.67681222400E+03  0.00000000000E+00 0. -1.
         22    1    3    3    0    0 -0.47002430657E+02 -0.33497418760E+02 -0.10429951333E+03  0.11920442119E+03  0.00000000000E+00 0. -1.
         22    1    3    3    0    0  0.33546717747E+02  0.28486262084E+02  0.34204395245E+00  0.44010980370E+02  0.00000000000E+00 0. -1.
</event>
<event>
 7    1  0.6146596E-006  0.6597135E+02  0.7818608E-02  0.1521516E+00
          2   -1    0    0  502    0  0.00000000000E+00  0.00000000000E+00  0.11211322323E+02  0.11211322323E+02  0.00000000000E+00 0. -1.
          1   -1    0    0  501    0 -0.00000000000E+00 -0.00000000000E+00 -0.18123960738E+04  0.18123960738E+04  0.00000000000E+00 0. -1.
         25    2    1    2    0    0  0.48399734640E+02 -0.70000224447E+02 -0.10924933980E+04  0.11029093423E+04  0.12499850768E+03 0.  0.
          2    1    1    2  501    0 -0.13675916745E+02  0.17455254319E+02 -0.54280768209E+03  0.54326043142E+03  0.00000000000E+00 0. -1.
          1    1    1    2  502    0 -0.34723817895E+02  0.52544970127E+02 -0.16588367141E+03  0.17743762243E+03  0.00000000000E+00 0. -1.
         22    1    3    3    0    0  0.82301349736E+02 -0.34004787680E+02 -0.46359568852E+03  0.47207075758E+03  0.00000000000E+00 0.  1.
         22    1    3    3    0    0 -0.33901615096E+02 -0.35995436766E+02 -0.62889770950E+03  0.63083858474E+03  0.00000000000E+00 0.  1.
</event>
<event>
 7    1  0.6146596E-006  0.7305316E+02  0.7818608E-02  0.1449623E+00
          2   -1    0    0  502    0  0.00000000000E+00  0.00000000000E+00  0.12445946233E+03  0.12445946233E+03  0.00000000000E+00 0. -1.
          1   -1    0    0  501    0 -0.00000000000E+00 -0.00000000000E+00 -0.27237326743E+03  0.27237326743E+03  0.00000000000E+00 0. -1.
         25    2    1    2    0    0 -0.40914733378E+02  0.17819250105E+02 -0.34239879260E+02  0.13707267367E+03  0.12500002981E+03 0.  0.
          2    1    1    2  501    0  0.72749476990E+02 -0.27083366189E+02 -0.17421920747E+03  0.19073103412E+03  0.00000000000E+00 0. -1.
          1    1    1    2  502    0 -0.31834743611E+02  0.92641160839E+01  0.60545281628E+02  0.69029021976E+02  0.00000000000E+00 0. -1.
         22    1    3    3    0    0  0.24413997261E+02  0.18373782572E+02  0.31853921584E+02  0.44139681337E+02  0.00000000000E+00 0. -1.
         22    1    3    3    0    0 -0.65328730639E+02 -0.55453246701E+00 -0.66093800844E+02  0.92932992329E+02  0.00000000000E+00 0. -1.
</event>
<event>
 7    1  0.6146596E-006  0.6635733E+02  0.7818608E-02  0.1523950E+00
          2   -1    0    0  502    0  0.00000000000E+00  0.00000000000E+00  0.12123148840E+03  0.12123148840E+03  0.00000000000E+00 0. -1.
          1   -1    0    0  501    0 -0.00000000000E+00 -0.00000000000E+00 -0.39366272978E+03  0.39366272978E+03  0.00000000000E+00 0. -1.
         25    2    1    2    0    0  0.41669467446E+02  0.20135974021E+02 -0.34162886192E+03  0.36670921810E+03  0.12499427739E+03 0.  0.
          2    1    1    2  501    0  0.14826805762E+02  0.15832665403E+02 -0.24685184907E+02  0.32861311854E+02  0.00000000000E+00 0. -1.
          1    1    1    2  502    0 -0.56496273207E+02 -0.35968639424E+02  0.93882805443E+02  0.11532368823E+03  0.00000000000E+00 0. -1.
         22    1    3    3    0    0  0.72962181795E+02  0.50739173510E+02 -0.24530871651E+03  0.26091054041E+03  0.00000000000E+00 0.  1.
         22    1    3    3    0    0 -0.31292714350E+02 -0.30603199490E+02 -0.96320145408E+02  0.10579867769E+03  0.00000000000E+00 0.  1.
</event>
<event>
 7    1  0.6146596E-006  0.1113031E+03  0.7818608E-02  0.1430810E+00
          2   -1    0    0  502    0  0.00000000000E+00  0.00000000000E+00  0.30740609321E+03  0.30740609321E+03  0.00000000000E+00 0. -1.
          1   -1    0    0  501    0 -0.00000000000E+00 -0.00000000000E+00 -0.39122946754E+03  0.39122946754E+03  0.00000000000E+00 0. -1.
         25    2    1    2    0    0  0.10705947887E+03  0.13161159080E+01  0.55549677077E+02  0.17370683633E+03  0.12499933675E+03 0.  0.
          2    1    1    2  501    0  0.29433181101E+01  0.24871531425E+02 -0.31502924417E+03  0.31602322838E+03  0.00000000000E+00 0. -1.
          1    1    1    2  502    0 -0.11000279698E+03 -0.26187647333E+02  0.17565619276E+03  0.20890549603E+03  0.00000000000E+00 0. -1.
         22    1    3    3    0    0 -0.10375564170E+02  0.13668243915E+02  0.52879050104E+02  0.55593769106E+02  0.00000000000E+00 0. -1.
         22    1    3    3    0    0  0.11743504304E+03 -0.12352128007E+02  0.26706269732E+01  0.11811306723E+03  0.00000000000E+00 0. -1.
</event>
<event>
 7    1  0.6146596E-006  0.1743979E+03  0.7818608E-02  0.1324317E+00
          2   -1    0    0  502    0  0.00000000000E+00  0.00000000000E+00  0.16910441444E+04  0.16910441444E+04  0.00000000000E+00 0. -1.
          1   -1    0    0  501    0 -0.00000000000E+00 -0.00000000000E+00 -0.56872903570E+03  0.56872903570E+03  0.00000000000E+00 0. -1.
         25    2    1    2    0    0  0.58739113994E+02 -0.13701089885E+03  0.58453590867E+03  0.61606009046E+03  0.12500214644E+03 0.  0.
          2    1    1    2  501    0  0.14291638298E+02 -0.35497494640E+02 -0.54424691581E+03  0.54559053183E+03  0.00000000000E+00 0. -1.
          1    1    1    2  502    0 -0.73030752292E+02  0.17250839349E+03  0.10820261158E+04  0.10981225578E+04  0.00000000000E+00 0. -1.
         22    1    3    3    0    0 -0.33984399989E+02 -0.12049829306E+02  0.73652376777E+02  0.82004941520E+02  0.00000000000E+00 0. -1.
         22    1    3    3    0    0  0.92723513983E+02 -0.12496106955E+03  0.51088353190E+03  0.53405514894E+03  0.00000000000E+00 0. -1.
</event>
<event>
 7    1  0.6146596E-006  0.9146693E+02  0.7818608E-02  0.1323065E+00
          2   -1    0    0  502    0  0.00000000000E+00  0.00000000000E+00  0.32290538350E+03  0.32290538350E+03  0.00000000000E+00 0. -1.
          1   -1    0    0  501    0 -0.00000000000E+00 -0.00000000000E+00 -0.14470459471E+04  0.14470459471E+04  0.00000000000E+00 0. -1.
         25    2    1    2    0    0  0.13090100923E+03 -0.49510491624E+02  0.70439131274E+02  0.20042791061E+03  0.12499325237E+03 0.  0.
          2    1    1    2  501    0 -0.45440582522E+02  0.58123446358E+02 -0.13711691526E+04  0.13731525868E+04  0.00000000000E+00 0. -1.
          1    1    1    2  502    0 -0.85460426708E+02 -0.86129547336E+01  0.17658945777E+03  0.19637083316E+03  0.00000000000E+00 0. -1.
         22    1    3    3    0    0 -0.48333848813E+01  0.21239339182E+02 -0.13727455722E+02  0.25747119818E+02  0.00000000000E+00 0.  1.
         22    1    3    3    0    0  0.13573439411E+03 -0.70749830807E+02  0.84166586996E+02  0.17468079079E+03  0.00000000000E+00 0.  1.
</event>
<event>
 7    1  0.6146596E-006  0.7952726E+02  0.7818608E-02  0.1459169E+00
          2   -1    0    0  502    0  0.00000000000E+00  0.00000000000E+00  0.16936606430E+04  0.16936606430E+04  0.00000000000E+00 0. -1.
          1   -1    0    0  501    0 -0.00000000000E+00 -0.00000000000E+00 -0.23321951709E+03  0.23321951709E+03  0.00000000000E+00 0. -1.
         25    2    1    2    0    0 -0.71647103352E+02 -0.31524662248E+02 -0.65410154284E+02  0.16133800273E+03  0.12499740434E+03 0.  0.
          2    1    1    2  501    0 -0.78212965665E+01  0.27302108669E+02 -0.11718621519E+03  0.12057855053E+03  0.00000000000E+00 0. -1.
          1    1    1    2  502    0  0.79468399918E+02  0.42225535786E+01  0.16430374954E+04  0.16449636068E+04  0.00000000000E+00 0. -1.
         22    1    3    3    0    0 -0.14729935278E+02 -0.32787384328E+01 -0.91436841429E+02  0.92673713044E+02  0.00000000000E+00 0. -1.
         22    1    3    3    0    0 -0.56917168074E+02 -0.28245923815E+02  0.26026687144E+02  0.68664289681E+02  0.00000000000E+00 0. -1.
</event>
<event>
 7    1  0.6146596E-006  0.3944201E+02  0.7818608E-02  0.1538428E+00
          2   -1    0    0  502    0  0.00000000000E+00  0.00000000000E+00  0.25120513749E+04  0.25120513749E+04  0.00000000000E+00 0. -1.
          1   -1    0    0  501    0 -0.00000000000E+00 -0.00000000000E+00 -0.31269473996E+02  0.31269473996E+02  0.00000000000E+00 0. -1.
         25    2    1    2    0    0  0.45995201460E+02 -0.51888968027E+02  0.11102840189E+04  0.11194471783E+04  0.12499343512E+03 0.  0.
          2    1    1    2  501    0 -0.15708662179E+02  0.29219247085E+02 -0.16020020308E+02  0.36839754592E+02  0.00000000000E+00 0. -1.
          1    1    1    2  502    0 -0.30286539281E+02  0.22669720941E+02  0.13865179023E+04  0.13870339160E+04  0.00000000000E+00 0. -1.
         22    1    3    3    0    0  0.28826058194E+02 -0.77837092110E+02  0.10300905654E+04  0.10334293045E+04  0.00000000000E+00 0.  1.
         22    1    3    3    0    0  0.17169143267E+02  0.25948124083E+02  0.80193453523E+02  0.86017873794E+02  0.00000000000E+00 0.  1.
</event>
<event>
 7    1  0.6146596E-006  0.8091390E+02  0.7818608E-02  0.1479062E+00
          2   -1    0    0  502    0  0.00000000000E+00  0.00000000000E+00  0.22439721269E+03  0.22439721269E+03  0.00000000000E+00 0. -1.
          1   -1    0    0  501    0 -0.00000000000E+00 -0.00000000000E+00 -0.13610356038E+03  0.13610356038E+03  0.00000000000E+00 0. -1.
         25    2    1    2    0    0 -0.48866689490E+02  0.70083629566E+02  0.46946691183E+02  0.15852083567E+03  0.12500078021E+03 0.  0.
          2    1    1    2  501    0  0.62904916887E+02 -0.50368685511E+02 -0.58282529365E+02  0.99452934989E+02  0.00000000000E+00 0. -1.
          1    1    1    2  502    0 -0.14038227397E+02 -0.19714944055E+02  0.99629490498E+02  0.10252700242E+03  0.00000000000E+00 0. -1.
         22    1    3    3    0    0 -0.13859947422E+02 -0.28059682412E+02 -0.17642763187E+02  0.35926466741E+02  0.00000000000E+00 0.  1.
         22    1    3    3    0    0 -0.35006742068E+02  0.98143311978E+02  0.64589454370E+02  0.12259436892E+03  0.00000000000E+00 0.  1.
</event>
<event>
 7    1  0.6146596E-006  0.1091012E+03  0.7818608E-02  0.1384682E+00
          2   -1    0    0  502    0  0.00000000000E+00  0.00000000000E+00  0.40749765779E+03  0.40749765779E+03  0.00000000000E+00 0. -1.
          1   -1    0    0  501    0 -0.00000000000E+00 -0.00000000000E+00 -0.10135615148E+04  0.10135615148E+04  0.00000000000E+00 0. -1.
         25    2    1    2    0    0 -0.11056604504E+03  0.16964141449E+02 -0.22043576337E+03  0.27698500451E+03  0.12496453313E+03 0.  0.
          2    1    1    2  501    0  0.13940528494E+02  0.33913553322E+02 -0.75653640353E+03  0.75742444989E+03  0.00000000000E+00 0. -1.
          1    1    1    2  502    0  0.96625516541E+02 -0.50877694771E+02  0.37090830986E+03  0.38664971822E+03  0.00000000000E+00 0. -1.
         22    1    3    3    0    0  0.14951313332E+02  0.33403326651E+02 -0.79654204732E+02  0.87659091560E+02  0.00000000000E+00 0.  1.
         22    1    3    3    0    0 -0.12551735837E+03 -0.16439185202E+02 -0.14078155864E+03  0.18932591295E+03  0.00000000000E+00 0.  1.
</event>
<event>
 7    1  0.6146596E-006  0.1398188E+03  0.7818608E-02  0.1257737E+00
          2   -1    0    0  502    0  0.00000000000E+00  0.00000000000E+00  0.49369571857E+03  0.49369571857E+03  0.00000000000E+00 0. -1.
          1   -1    0    0  501    0 -0.00000000000E+00 -0.00000000000E+00 -0.51375112676E+03  0.51375112676E+03  0.00000000000E+00 0. -1.
         25    2    1    2    0    0  0.92334145334E+02  0.20488034028E+03  0.17292436966E+03  0.30988753050E+03  0.12500358279E+03 0.  0.
          2    1    1    2  501    0 -0.61563318987E+02 -0.12138251755E+03 -0.42648349466E+03  0.44767390925E+03  0.00000000000E+00 0. -1.
          1    1    1    2  502    0 -0.30770826347E+02 -0.83497822731E+02  0.23350371680E+03  0.24988540557E+03  0.00000000000E+00 0. -1.
         22    1    3    3    0    0 -0.30812156711E+02  0.48253231917E+02  0.29597006103E+02  0.64449562930E+02  0.00000000000E+00 0. -1.
         22    1    3    3    0    0  0.12314630204E+03  0.15662710836E+03  0.14332736356E+03  0.24543796757E+03  0.00000000000E+00 0. -1.
</event>
<event>
 7    1  0.6146596E-006  0.1053361E+03  0.7818608E-02  0.1377914E+00
          2   -1    0    0  502    0  0.00000000000E+00  0.00000000000E+00  0.39142160221E+03  0.39142160221E+03  0.00000000000E+00 0. -1.
          1   -1    0    0  501    0 -0.00000000000E+00 -0.00000000000E+00 -0.34197829000E+04  0.34197829000E+04  0.00000000000E+00 0. -1.
         25    2    1    2    0    0 -0.44187788575E+02  0.70818867064E+02 -0.63753239914E+03  0.65501181067E+03  0.12500015829E+03 0.  0.
          2    1    1    2  501    0 -0.39602001363E+02 -0.64797864177E+01 -0.27660716767E+04  0.27663627432E+04  0.00000000000E+00 0. -1.
          1    1    1    2  502    0  0.83789789938E+02 -0.64339080646E+02  0.37524277803E+03  0.38982994839E+03  0.00000000000E+00 0. -1.
         22    1    3    3    0    0 -0.67990195567E+02  0.46890950112E+02 -0.59505023300E+03  0.60075469844E+03  0.00000000000E+00 0.  1.
         22    1    3    3    0    0  0.23802406992E+02  0.23927916952E+02 -0.42482166132E+02  0.54257112230E+02  0.00000000000E+00 0.  1.
</event>
<event>
 7    1  0.6146596E-006  0.1165327E+03  0.7818608E-02  0.1283788E+00
          2   -1    0    0  502    0  0.00000000000E+00  0.00000000000E+00  0.29830029483E+03  0.29830029483E+03  0.00000000000E+00 0. -1.
          1   -1    0    0  501    0 -0.00000000000E+00 -0.00000000000E+00 -0.46123969459E+03  0.46123969459E+03  0.00000000000E+00 0. -1.
         25    2    1    2    0    0 -0.87308112511E+02 -0.12428043067E+03 -0.25856566250E+03  0.32487752944E+03  0.12498350032E+03 0.  0.
          2    1    1    2  501    0  0.82590214089E+02  0.84085464525E+01 -0.14526328506E+03  0.16731189170E+03  0.00000000000E+00 0. -1.
          1    1    1    2  502    0  0.47178984217E+01  0.11587188422E+03  0.24088954780E+03  0.26735056828E+03  0.00000000000E+00 0. -1.
         22    1    3    3    0    0  0.28932850047E+02 -0.94502858326E+01 -0.63517636149E+02  0.70433712213E+02  0.00000000000E+00 0.  1.
         22    1    3    3    0    0 -0.11624096256E+03 -0.11483014484E+03 -0.19504802635E+03  0.25444381723E+03  0.00000000000E+00 0.  1.
</event>
<event>
 7    1  0.6146596E-006  0.7206482E+02  0.7818608E-02  0.1416148E+00
          2   -1    0    0  502    0  0.00000000000E+00  0.00000000000E+00  0.37108331530E+03  0.37108331530E+03  0.00000000000E+00 0. -1.
          1   -1    0    0  501    0 -0.00000000000E+00 -0.00000000000E+00 -0.15789836332E+04  0.15789836332E+04  0.00000000000E+00 0. -1.
         25    2    1    2    0    0  0.15714982639E+02  0.10159081373E+03 -0.57624878594E+02  0.17178967650E+03  0.12499364866E+03 0.  0.
          2    1    1    2  501    0  0.14152714175E+02 -0.70276064776E+02 -0.14619028835E+04  0.14636594772E+04  0.00000000000E+00 0. -1.
          1    1    1    2  502    0 -0.29867696813E+02 -0.31314748953E+02  0.31162744417E+03  0.31461779476E+03  0.00000000000E+00 0. -1.
         22    1    3    3    0    0 -0.41499584946E+02  0.32284795808E+01  0.49648316131E+01  0.41920021279E+02  0.00000000000E+00 0. -1.
         22    1    3    3    0    0  0.57214567584E+02  0.98362334148E+02 -0.62589710207E+02  0.12986965522E+03  0.00000000000E+00 0. -1.
</event>
<event>
 7    1  0.6146596E-006  0.5812611E+02  0.7818608E-02  0.1470610E+00
          2   -1    0    0  502    0  0.00000000000E+00  0.00000000000E+00  0.12734545490E+04  0.12734545490E+04  0.00000000000E+00 0. -1.
          1   -1    0    0  501    0 -0.00000000000E+00 -0.00000000000E+00 -0.98661831193E+02  0.98661831193E+02  0.00000000000E+00 0. -1.
         25    2    1    2    0    0 -0.43964258076E+02  0.30472904706E+02  0.32961715995E+03  0.35655449388E+03  0.12498872374E+03 0.  0.
          2    1    1    2  501    0  0.58529033781E+02  0.22069559965E+01 -0.74737263692E+02  0.94953551984E+02  0.00000000000E+00 0. -1.
          1    1    1    2  502    0 -0.14564775705E+02 -0.32679860702E+02  0.91991282158E+03  0.92060833436E+03  0.00000000000E+00 0. -1.
         22    1    3    3    0    0 -0.46369116753E+02  0.59629688090E+02  0.10125752324E+03  0.12632846355E+03  0.00000000000E+00 0. -1.
         22    1    3    3    0    0  0.24048586769E+01 -0.29156783385E+02  0.22835963671E+03  0.23022603033E+03  0.00000000000E+00 0. -1.
</event>
<event>
 7    1  0.6146596E-006  0.3844194E+02  0.7818608E-02  0.1565053E+00
          2   -1    0    0  502    0  0.00000000000E+00  0.00000000000E+00  0.12126120520E+04  0.12126120520E+04  0.00000000000E+00 0. -1.
          1   -1    0    0  501    0 -0.00000000000E+00 -0.00000000000E+00 -0.39310307161E+03  0.39310307161E+03  0.00000000000E+00 0. -1.
         25    2    1    2    0    0 -0.39338556257E+02  0.53561253533E+02 -0.14681715033E+03  0.20395154098E+03  0.12499850219E+03 0.  0.
          2    1    1    2  501    0  0.13099871482E+02 -0.25533486659E+02 -0.21646021943E+03  0.21835428132E+03  0.00000000000E+00 0. -1.
          1    1    1    2  502    0  0.26238684775E+02 -0.28027766874E+02  0.11827863502E+04  0.11834093013E+04  0.00000000000E+00 0. -1.
         22    1    3    3    0    0  0.44320800907E+02  0.25942652789E+02 -0.37696834268E+02  0.63705619380E+02  0.00000000000E+00 0. -1.
         22    1    3    3    0    0 -0.83659357164E+02  0.27618600744E+02 -0.10912031607E+03  0.14024592160E+03  0.00000000000E+00 0. -1.
</event>
<event>
 7    1  0.7645458E-006  0.5072905E+02  0.7818608E-02  0.1492212E+00
          2   -1    0    0  502    0  0.00000000000E+00  0.00000000000E+00  0.23212706285E+04  0.23212706285E+04  0.00000000000E+00 0. -1.
          1   -1    0    0  501    0 -0.00000000000E+00 -0.00000000000E+00 -0.12328519582E+04  0.12328519582E+04  0.00000000000E+00 0. -1.
         25    2    1    2    0    0  0.26955784314E+02 -0.42961107150E+01 -0.95816794809E+02  0.15985021609E+03  0.12500465008E+03 0.  0.
          2    1    1    2  501    0 -0.43853553594E+02 -0.26587609895E+02 -0.11042879809E+04  0.11054781680E+04  0.00000000000E+00 0. -1.
          1    1    1    2  502    0  0.16897769280E+02  0.30883720610E+02  0.22885234460E+04  0.22887942026E+04  0.00000000000E+00 0. -1.
         22    1    3    3    0    0 -0.35151031398E+02 -0.23470941716E+02 -0.83649860146E+02  0.93721818249E+02  0.00000000000E+00 0.  1.
         22    1    3    3    0    0  0.62106815712E+02  0.19174831001E+02 -0.12166934663E+02  0.66128397840E+02  0.00000000000E+00 0.  1.
</event>
<event>
 7    1  0.6146596E-006  0.1240611E+03  0.7818608E-02  0.1388714E+00
          2   -1    0    0  502    0  0.00000000000E+00  0.00000000000E+00  0.57500111241E+03  0.57500111241E+03  0.00000000000E+00 0. -1.
          1   -1    0    0  501    0 -0.00000000000E+00 -0.00000000000E+00 -0.33231313556E+03  0.33231313556E+03  0.00000000000E+00 0. -1.
         25    2    1    2    0    0 -0.14504728926E+03  0.38263846912E+02  0.29346982771E+02  0.19745738949E+03  0.12500134865E+03 0.  0.
          2    1    1    2  501    0  0.11885847066E+03 -0.21281866461E+02 -0.23299804216E+03  0.26242778347E+03  0.00000000000E+00 0. -1.
          1    1    1    2  502    0  0.26188818601E+02 -0.16981980450E+02  0.44633903625E+03  0.44742907500E+03  0.00000000000E+00 0. -1.
         22    1    3    3    0    0 -0.11094742614E+03  0.11676563771E+02 -0.37629731824E+02  0.11773559456E+03  0.00000000000E+00 0.  1.
         22    1    3    3    0    0 -0.34099863120E+02  0.26587283141E+02  0.66976714595E+02  0.79721794934E+02  0.00000000000E+00 0.  1.
</event>
<event>
 7    1  0.6146596E-006  0.3873916E+02  0.7818608E-02  0.1580330E+00
          2   -1    0    0  502    0  0.00000000000E+00  0.00000000000E+00  0.12274207086E+04  0.12274207086E+04  0.00000000000E+00 0. -1.
          1   -1    0    0  501    0 -0.00000000000E+00 -0.00000000000E+00 -0.21235204155E+03  0.21235204155E+03  0.00000000000E+00 0. -1.
         25    2    1    2    0    0 -0.54770863639E+02  0.27582032831E+02  0.74453846643E+03  0.75744795637E+03  0.12501704916E+03 0.  0.
          2    1    1    2  501    0  0.28951133298E+02 -0.25665098250E+02 -0.20372358489E+03  0.20736481000E+03  0.00000000000E+00 0. -1.
          1    1    1    2  502    0  0.25819730341E+02 -0.19169345814E+01  0.47425378554E+03  0.47495998380E+03  0.00000000000E+00 0. -1.
         22    1    3    3    0    0 -0.19461706594E+01 -0.35885285767E+02  0.78802559543E+02  0.86610534609E+02  0.00000000000E+00 0.  1.
         22    1    3    3    0    0 -0.52824692980E+02  0.63467318599E+02  0.66573590689E+03  0.67083742176E+03  0.00000000000E+00 0.  1.
</event>
<event>
 7    1  0.6146596E-006  0.1506260E+03  0.7818608E-02  0.1270777E+00
          2   -1    0    0  502    0  0.00000000000E+00  0.00000000000E+00  0.11265308567E+03  0.11265308567E+03  0.00000000000E+00 0. -1.
          1   -1    0    0  501    0 -0.00000000000E+00 -0.00000000000E+00 -0.18401955628E+04  0.18401955628E+04  0.00000000000E+00 0. -1.
         25    2    1    2    0    0 -0.12582831663E+03 -0.68890882295E+01 -0.47423436287E+03  0.50635967753E+03  0.12498666851E+03 0.  0.
          2    1    1    2  501    0  0.14104264548E+03  0.78011131223E+02 -0.13306181023E+04  0.13403444702E+04  0.00000000000E+00 0. -1.
          1    1    1    2  502    0 -0.15214328846E+02 -0.71122042994E+02  0.77309988036E+02  0.10614450081E+03  0.00000000000E+00 0. -1.
         22    1    3    3    0    0  0.10776636660E+02 -0.13188327808E+02 -0.19186317593E+03  0.19261761644E+03  0.00000000000E+00 0.  1.
         22    1    3    3    0    0 -0.13660495329E+03  0.62992395788E+01 -0.28237118694E+03  0.31374206109E+03  0.00000000000E+00 0.  1.
</event>
<event>
 7    1  0.6146596E-006  0.7081656E+02  0.7818608E-02  0.1360555E+00
          2   -1    0    0  502    0  0.00000000000E+00  0.00000000000E+00  0.11002109314E+04  0.11002109314E+04  0.00000000000E+00 0. -1.
          1   -1    0    0  501    0 -0.00000000000E+00 -0.00000000000E+00 -0.30510322780E+03  0.30510322780E+03  0.00000000000E+00 0. -1.
         25    2    1    2    0    0  0.15657116341E+02  0.11789243467E+03  0.51734501684E+03  0.54536056395E+03  0.12501402648E+03 0.  0.
          2    1    1    2  501    0  0.28169898217E+02 -0.64696534907E+02 -0.28468436495E+03  0.29329911770E+03  0.00000000000E+00 0. -1.
          1    1    1    2  502    0 -0.43827014557E+02 -0.53195899768E+02  0.56244705169E+03  0.56665447754E+03  0.00000000000E+00 0. -1.
         22    1    3    3    0    0 -0.84671054279E+01  0.16793209931E+02  0.11899982158E+01  0.18844624429E+02  0.00000000000E+00 0.  1.
         22    1    3    3    0    0  0.24124221769E+02  0.10109922474E+03  0.51615501862E+03  0.52651593952E+03  0.00000000000E+00 0.  1.
</event>
<event>
 7    1  0.6146596E-006  0.1200453E+03  0.7818608E-02  0.1430975E+00
          2   -1    0    0  502    0  0.00000000000E+00  0.00000000000E+00  0.20978101113E+03  0.20978101113E+03  0.00000000000E+00 0. -1.
          1   -1    0    0  501    0 -0.00000000000E+00 -0.00000000000E+00 -0.54559855355E+03  0.54559855355E+03  0.00000000000E+00 0. -1.
         25    2    1    2    0    0 -0.11331903438E+03  0.85067400873E+02  0.23905871860E+02  0.19045644320E+03  0.12499799919E+03 0.  0.
          2    1    1    2  501    0  0.94984397234E+02 -0.70864579504E+02 -0.45329004924E+03  0.46852501864E+03  0.00000000000E+00 0. -1.
          1    1    1    2  502    0  0.18334637149E+02 -0.14202821368E+02  0.93566634957E+02  0.96398102841E+02  0.00000000000E+00 0. -1.
         22    1    3    3    0    0 -0.62889048781E+01  0.51266278051E+02  0.53516071328E+02  0.74375745240E+02  0.00000000000E+00 0. -1.
         22    1    3    3    0    0 -0.10703012951E+03  0.33801122822E+02 -0.29610199467E+02  0.11608069796E+03  0.00000000000E+00 0. -1.
</event>
<event>
 7    1  0.6146596E-006  0.1154100E+03  0.7818608E-02  0.1297678E+00
          2   -1    0    0  502    0  0.00000000000E+00  0.00000000000E+00  0.16210836728E+04  0.16210836728E+04  0.00000000000E+00 0. -1.
          1   -1    0    0  501    0 -0.00000000000E+00 -0.00000000000E+00 -0.22184056562E+03  0.22184056562E+03  0.00000000000E+00 0. -1.
         25    2    1    2    0    0 -0.61304192369E+01  0.68843310794E+02  0.43042653325E+03  0.45350714615E+03  0.12499899041E+03 0.  0.
          2    1    1    2  501    0 -0.56537444105E+02  0.47139685334E+02 -0.20003776042E+03  0.21315191323E+03  0.00000000000E+00 0. -1.
          1    1    1    2  502    0  0.62667863342E+02 -0.11598299613E+03  0.11688543344E+04  0.11762651791E+04  0.00000000000E+00 0. -1.
         22    1    3    3    0    0  0.34191875282E+02  0.26997335134E+02  0.41183529201E+02  0.59950175289E+02  0.00000000000E+00 0.  1.
         22    1    3    3    0    0 -0.40322294519E+02  0.41845975659E+02  0.38924300405E+03  0.39355697086E+03  0.00000000000E+00 0.  1.
</event>
<event>
 7    1  0.6146596E-006  0.5339689E+02  0.7818608E-02  0.1451378E+00
          2   -1    0    0  502    0  0.00000000000E+00  0.00000000000E+00  0.25147288201E+04  0.25147288201E+04  0.00000000000E+00 0. -1.
          1   -1    0    0  501    0 -0.00000000000E+00 -0.00000000000E+00 -0.29327854720E+02  0.29327854720E+02  0.00000000000E+00 0. -1.
         25    2    1    2    0    0 -0.40374992930E+02 -0.30273564075E+00  0.29800728404E+03  0.32567609156E+03  0.12500537416E+03 0.  0.
          2    1    1    2  501    0  0.36740281791E+02  0.44932982766E+02  0.39930141495E+02  0.70450248020E+02  0.00000000000E+00 0. -1.
          1    1    1    2  502    0  0.36347111393E+01 -0.44630247126E+02  0.21474635399E+04  0.21479303353E+04  0.00000000000E+00 0. -1.
         22    1    3    3    0    0  0.18612233558E+02 -0.15411508289E+02  0.24117757719E+03  0.24238513479E+03  0.00000000000E+00 0.  1.
         22    1    3    3    0    0 -0.58987226488E+02  0.15108772648E+02  0.56829706851E+02  0.83290956775E+02  0.00000000000E+00 0.  1.
</event>
<event>
 7    1  0.6146596E-006  0.1111892E+03  0.7818608E-02  0.1287271E+00
          2   -1    0    0  502    0  0.00000000000E+00  0.00000000000E+00  0.81849148686E+03  0.81849148686E+03  0.00000000000E+00 0. -1.
          1   -1    0    0  501    0 -0.00000000000E+00 -0.00000000000E+00 -0.10405671851E+03  0.10405671851E+03  0.00000000000E+00 0. -1.
         25    2    1    2    0    0  0.10216485212E+03 -0.73969594144E+02  0.23836877630E+03  0.29724242421E+03  0.12499690944E+03 0.  0.
          2    1    1    2  501    0 -0.26082107328E+02  0.11002909492E+03 -0.26165364686E+02  0.11606594833E+03  0.00000000000E+00 0. -1.
          1    1    1    2  502    0 -0.76082744795E+02 -0.36059500781E+02  0.50223135674E+03  0.50923983283E+03  0.00000000000E+00 0. -1.
         22    1    3    3    0    0  0.12397872842E+03 -0.71854673218E+02  0.23474960196E+03  0.27502944348E+03  0.00000000000E+00 0.  1.
         22    1    3    3    0    0 -0.21813876301E+02 -0.21149209259E+01  0.36191743420E+01  0.22212980725E+02  0.00000000000E+00 0.  1.
</event>
<event>
 7    1  0.6146596E-006  0.3656063E+02  0.7818608E-02  0.1600623E+00
          2   -1    0    0  502    0  0.00000000000E+00  0.00000000000E+00  0.22556290678E+04  0.22556290678E+04  0.00000000000E+00 0. -1.
          1   -1    0    0  501    0 -0.00000000000E+00 -0.00000000000E+00 -0.37586244609E+03  0.37586244609E+03  0.00000000000E+00 0. -1.
         25    2    1    2    0    0 -0.89257048053E+00  0.18205101961E+02  0.16336183947E+04  0.16384950196E+04  0.12499858898E+03 0.  0.
          2    1    1    2  501    0 -0.84321889176E+01  0.22730270324E+02 -0.37231819224E+03  0.37310669154E+03  0.00000000000E+00 0. -1.
          1    1    1    2  502    0  0.93247593982E+01 -0.40935372285E+02  0.61846641921E+03  0.61988980273E+03  0.00000000000E+00 0. -1.
         22    1    3    3    0    0 -0.15515250247E+02  0.47314997919E+02  0.15047274373E+04  0.15055510927E+04  0.00000000000E+00 0. -1.
         22    1    3    3    0    0  0.14622679766E+02 -0.29109895958E+02  0.12889095740E+03  0.13294392692E+03  0.00000000000E+00 0. -1.
</event>
<event>
 7    1  0.6146596E-006  0.1829054E+03  0.7818608E-02  0.1320519E+00
          2   -1    0    0  502    0  0.00000000000E+00  0.00000000000E+00  0.87409199368E+03  0.87409199368E+03  0.00000000000E+00 0. -1.
          1   -1    0    0  501    0 -0.00000000000E+00 -0.00000000000E+00 -0.20776814981E+03  0.20776814981E+03  0.00000000000E+00 0. -1.
         25    2    1    2    0    0  0.78113512411E+02 -0.14739064649E+03  0.10058033778E+03  0.23144747566E+03  0.12500322454E+03 0.  0.
          2    1    1    2  501    0 -0.11573833422E+03  0.15035040964E+03 -0.78303411606E+02  0.20526088755E+03  0.00000000000E+00 0. -1.
          1    1    1    2  502    0  0.37624821809E+02 -0.29597631461E+01  0.64404691769E+03  0.64515178028E+03  0.00000000000E+00 0. -1.
         22    1    3    3    0    0  0.54702043991E+02 -0.15592086949E+03  0.46113878477E+02  0.17155209398E+03  0.00000000000E+00 0.  1.
         22    1    3    3    0    0  0.23411468420E+02  0.85302229967E+01  0.54466459304E+02  0.59895381684E+02  0.00000000000E+00 0.  1.
</event>
<event>
 7    1  0.6146596E-006  0.9122052E+02  0.7818608E-02  0.1336341E+00
          2   -1    0    0  502    0  0.00000000000E+00  0.00000000000E+00  0.26551911227E+04  0.26551911227E+04  0.00000000000E+00 0. -1.
          1   -1    0    0  501    0 -0.00000000000E+00 -0.00000000000E+00 -0.87494918500E+02  0.87494918500E+02  0.00000000000E+00 0. -1.
         25    2    1    2    0    0 -0.54691616460E+01  0.33727875800E+02  0.33925119806E+03  0.36315726094E+03  0.12499735777E+03 0.  0.
          2    1    1    2  501    0 -0.44364254372E+02  0.48620990115E+02 -0.59998566694E+02  0.89061864741E+02  0.00000000000E+00 0. -1.
          1    1    1    2  502    0  0.49833416018E+02 -0.82348865915E+02  0.22884435728E+04  0.22904669155E+04  0.00000000000E+00 0. -1.
         22    1    3    3    0    0 -0.98801219600E+01  0.79632791192E+02  0.17435886807E+03  0.19193752400E+03  0.00000000000E+00 0. -1.
         22    1    3    3    0    0  0.44109603140E+01 -0.45904915392E+02  0.16489232999E+03  0.17121973694E+03  0.00000000000E+00 0. -1.
</event>
<event>
 7    1  0.6146596E-006  0.1289579E+03  0.7818608E-02  0.1249295E+00
          2   -1    0    0  502    0  0.00000000000E+00  0.00000000000E+00  0.11277232857E+04  0.11277232857E+04  0.00000000000E+00 0. -1.
          1   -1    0    0  501    0 -0.00000000000E+00 -0.00000000000E+00 -0.15400289174E+03  0.15400289174E+03  0.00000000000E+00 0. -1.
         25    2    1    2    0    0 -0.14034514640E+03 -0.97478256808E+02  0.57470988640E+03  0.61246645991E+03  0.12499976127E+03 0.  0.
          2    1    1    2  501    0  0.10325127495E+03 -0.18638288601E+02 -0.10635698478E+03  0.14939886142E+03  0.00000000000E+00 0. -1.
          1    1    1    2  502    0  0.37093871450E+02  0.11611654541E+03  0.50536749237E+03  0.51986085616E+03  0.00000000000E+00 0. -1.
         22    1    3    3    0    0 -0.12123997249E+03 -0.11348667729E+03  0.55866106565E+03  0.58282119310E+03  0.00000000000E+00 0. -1.
         22    1    3    3    0    0 -0.19105173919E+02  0.16008420481E+02  0.16048820746E+02  0.29645266808E+02  0.00000000000E+00 0. -1.
</event>
<event>
 7    1  0.6146596E-006  0.1251192E+03  0.7818608E-02  0.1330223E+00
          2   -1    0    0  502    0  0.00000000000E+00  0.00000000000E+00  0.59214860801E+03  0.59214860801E+03  0.00000000000E+00 0. -1.
          1   -1    0    0  501    0 -0.00000000000E+00 -0.00000000000E+00 -0.64662775952E+03  0.64662775952E+03  0.00000000000E+00 0. -1.
         25    2    1    2    0    0 -0.13100553293E+03  0.28884379033E+02 -0.30855182933E+03  0.35891806517E+03  0.12498475552E+03 0.  0.
          2    1    1    2  501    0  0.10198152638E+03 -0.70365032248E+02 -0.29942635908E+03  0.32404878336E+03  0.00000000000E+00 0. -1.
          1    1    1    2  502    0  0.29024006549E+02  0.41480653215E+02  0.55349903691E+03  0.55580951899E+03  0.00000000000E+00 0. -1.
         22    1    3    3    0    0 -0.30134265510E+02 -0.46676562738E+02 -0.72648596552E+02  0.91458154627E+02  0.00000000000E+00 0. -1.
         22    1    3    3    0    0 -0.10087126742E+03  0.75560941771E+02 -0.23590323278E+03  0.26745991054E+03  0.00000000000E+00 0. -1.
</event>
<event>
 7    1  0.6146596E-006  0.4587481E+02  0.7818608E-02  0.1578296E+00
          2   -1    0    0  502    0  0.00000000000E+00  0.00000000000E+00  0.27588133463E+03  0.27588133463E+03  0.00000000000E+00 0. -1.
          1   -1    0    0  501    0 -0.00000000000E+00 -0.00000000000E+00 -0.71091922228E+03  0.71091922228E+03  0.00000000000E+00 0. -1.
         25    2    1    2    0    0  0.48524016023E+02  0.77770191116E+01 -0.73294016481E+02  0.15301649104E+03  0.12500788584E+03 0.  0.
          2    1    1    2  501    0 -0.11270722181E+02  0.19056730081E+02 -0.59532353156E+03  0.59573508824E+03  0.00000000000E+00 0. -1.
          1    1    1    2  502    0 -0.37253293842E+02 -0.26833749193E+02  0.23357966039E+03  0.23804897762E+03  0.00000000000E+00 0. -1.
         22    1    3    3    0    0  0.85119371090E+02 -0.19392572888E+02 -0.58533859462E+02  0.10510752552E+03  0.00000000000E+00 0. -1.
         22    1    3    3    0    0 -0.36595355067E+02  0.27169592000E+02 -0.14760157019E+02  0.47908965520E+02  0.00000000000E+00 0. -1.
</event>
<event>
 7    1  0.6146596E-006  0.4822568E+02  0.7818608E-02  0.1459597E+00
          2   -1    0    0  502    0  0.00000000000E+00  0.00000000000E+00  0.46721566159E+03  0.46721566159E+03  0.00000000000E+00 0. -1.
          1   -1    0    0  501    0 -0.00000000000E+00 -0.00000000000E+00 -0.34284945890E+03  0.34284945890E+03  0.00000000000E+00 0. -1.
         25    2    1    2    0    0 -0.38534677371E+02 -0.86361580529E+01 -0.18945859204E+03  0.23038907453E+03  0.12500025192E+03 0.  0.
          2    1    1    2  501    0  0.26687338977E+02 -0.38309044758E+02 -0.12746063681E+03  0.13574244328E+03  0.00000000000E+00 0. -1.
          1    1    1    2  502    0  0.11847338394E+02  0.46945202811E+02  0.44128543155E+03  0.44393360268E+03  0.00000000000E+00 0. -1.
         22    1    3    3    0    0  0.27212612334E+02  0.94905053419E+01  0.22125007267E+00  0.28820911042E+02  0.00000000000E+00 0. -1.
         22    1    3    3    0    0 -0.65747289705E+02 -0.18126663395E+02 -0.18967984211E+03  0.20156816349E+03  0.00000000000E+00 0. -1.
</event>
<event>
 7    1  0.6146596E-006  0.1093395E+03  0.7818608E-02  0.1317390E+00
          2   -1    0    0  502    0  0.00000000000E+00  0.00000000000E+00  0.90377400934E+03  0.90377400934E+03  0.00000000000E+00 0. -1.
          1   -1    0    0  501    0 -0.00000000000E+00 -0.00000000000E+00 -0.10209810749E+04  0.10209810749E+04  0.00000000000E+00 0. -1.
         25    2    1    2    0    0 -0.53006327297E+02 -0.81466521674E+02 -0.13551045206E+03  0.20840545940E+03  0.12499315182E+03 0.  0.
          2    1    1    2  501    0  0.10425781725E+03  0.41607527404E+02 -0.84408707413E+03  0.85151856556E+03  0.00000000000E+00 0. -1.
          1    1    1    2  502    0 -0.51251489949E+02  0.39858994270E+02  0.86239046059E+03  0.86483105932E+03  0.00000000000E+00 0. -1.
         22    1    3    3    0    0  0.27620036785E+02  0.11409378335E+02 -0.73432757614E+01  0.30772780909E+02  0.00000000000E+00 0.  1.
         22    1    3    3    0    0 -0.80626364081E+02 -0.92875900009E+02 -0.12816717630E+03  0.17763267849E+03  0.00000000000E+00 0.  1.
</event>
<event>
 7    1  0.6146596E-006  0.4467585E+02  0.7818608E-02  0.1499353E+00
          2   -1    0    0  502    0  0.00000000000E+00  0.00000000000E+00  0.23543542607E+04  0.23543542607E+04  0.00000000000E+00 0. -1.
          1   -1    0    0  501    0 -0.00000000000E+00 -0.00000000000E+00 -0.11659552292E+04  0.11659552292E+04  0.00000000000E+00 0. -1.
         25    2    1    2    0    0 -0.20383598131E+02 -0.28873751646E+02  0.31317810676E+02  0.13361943866E+03  0.12499665801E+03 0.  0.
          2    1    1    2  501    0 -0.15284839785E+02  0.42121798757E+02 -0.11141947334E+04  0.11150954113E+04  0.00000000000E+00 0. -1.
          1    1    1    2  502    0  0.35668437916E+02 -0.13248047111E+02  0.22712759542E+04  0.22715946400E+04  0.00000000000E+00 0. -1.
         22    1    3    3    0    0  0.40293841884E+02 -0.10881698756E+02 -0.25211220751E+02  0.48760749721E+02  0.00000000000E+00 0.  1.
         22    1    3    3    0    0 -0.60677440015E+02 -0.17992052890E+02  0.56529031427E+02  0.84858688937E+02  0.00000000000E+00 0.  1.
</event>
<event>
 7    1  0.6146596E-006  0.8495011E+02  0.7818608E-02  0.1339926E+00
          2   -1    0    0  502    0  0.00000000000E+00  0.00000000000E+00  0.45504487262E+03  0.45504487262E+03  0.00000000000E+00 0. -1.
          1   -1    0    0  501    0 -0.00000000000E+00 -0.00000000000E+00 -0.23580994224E+03  0.23580994224E+03  0.00000000000E+00 0. -1.
         25    2    1    2    0    0  0.36378583204E+02  0.95658835394E+02  0.27948827990E+03  0.32282113561E+03  0.12500309152E+03 0.  0.
          2    1    1    2  501    0 -0.66368938113E+02 -0.16994731248E+02 -0.19637457214E+03  0.20798228151E+03  0.00000000000E+00 0. -1.
          1    1    1    2  502    0  0.29990354909E+02 -0.78664104145E+02  0.13612122263E+03  0.16005139774E+03  0.00000000000E+00 0. -1.
         22    1    3    3    0    0  0.36967948948E+02  0.41978122612E+02  0.22509537508E+02  0.60294869651E+02  0.00000000000E+00 0. -1.
         22    1    3    3    0    0 -0.58936574396E+00  0.53680712782E+02  0.25697874239E+03  0.26252626596E+03  0.00000000000E+00 0. -1.
</event>
<event>
 7    1  0.6146596E-006  0.8377774E+02  0.7818608E-02  0.1432708E+00
          2   -1    0    0  502    0  0.00000000000E+00  0.00000000000E+00  0.32624522136E+03  0.32624522136E+03  0.00000000000E+00 0. -1.
          1   -1    0    0  501    0 -0.00000000000E+00 -0.00000000000E+00 -0.68739407153E+02  0.68739407153E+02  0.00000000000E+00 0. -1.
         25    2    1    2    0    0 -0.63026158645E+02 -0.79384713546E+02  0.13228125563E+03  0.20832198695E+03  0.12500196093E+03 0.  0.
          2    1    1    2  501    0  0.46217462702E+02  0.51219282052E+02  0.13570062365E+03  0.15223050933E+03  0.00000000000E+00 0. -1.
          1    1    1    2  502    0  0.16808695943E+02  0.28165431494E+02 -0.10476065076E+02  0.34432132232E+02  0.00000000000E+00 0. -1.
         22    1    3    3    0    0 -0.46597646162E+02 -0.72243670609E+02  0.12102677699E+02  0.86815686246E+02  0.00000000000E+00 0. -1.
         22    1    3    3    0    0 -0.16428512483E+02 -0.71410429367E+01  0.12017857793E+03  0.12150630070E+03  0.00000000000E+00 0. -1.
</event>
<event>
 7    1  0.6146596E-006  0.6572194E+02  0.7818608E-02  0.1393593E+00
          2   -1    0    0  502    0  0.00000000000E+00  0.00000000000E+00  0.48482258820E+03  0.48482258820E+03  0.00000000000E+00 0. -1.
          1   -1    0    0  501    0 -0.00000000000E+00 -0.00000000000E+00 -0.22125580961E+04  0.22125580961E+04  0.00000000000E+00 0. -1.
         25    2    1    2    0    0  0.33657309656E+01  0.54357369025E+02 -0.24217044614E+03  0.27791560730E+03  0.12499803231E+03 0.  0.
          2    1    1    2  501    0 -0.55076136873E+02 -0.13294593404E+02 -0.19497671333E+04  0.19505901674E+04  0.00000000000E+00 0. -1.
          1    1    1    2  502    0  0.51710405908E+02 -0.41062775621E+02  0.46420207155E+03  0.46887490960E+03  0.00000000000E+00 0. -1.
         22    1    3    3    0    0  0.31332643695E+02  0.73780748377E+02 -0.22681599484E+03  0.24056356521E+03  0.00000000000E+00 0. -1.
         22    1    3    3    0    0 -0.27966912729E+02 -0.19423379352E+02 -0.15354451300E+02  0.37352042083E+02  0.00000000000E+00 0. -1.
</event>
<event>
 7    1  0.6146596E-006  0.1606752E+03  0.7818608E-02  0.1192376E+00
          2   -1    0    0  502    0  0.00000000000E+00  0.00000000000E+00  0.40567875755E+04  0.40567875755E+04  0.00000000000E+00 0. -1.
          1   -1    0    0  501    0 -0.00000000000E+00 -0.00000000000E+00 -0.15484478085E+04  0.15484478085E+04  0.00000000000E+00 0. -1.
         25    2    1    2    0    0 -0.33341921060E+02 -0.31556256327E+01 -0.84169457202E+02  0.15437506567E+03  0.12500208679E+03 0.  0.
          2    1    1    2  501    0  0.17043759527E+03 -0.64739193474E+02 -0.14218980186E+04  0.14335390166E+04  0.00000000000E+00 0. -1.
          1    1    1    2  502    0 -0.13709567421E+03  0.67894819107E+02  0.40144072428E+04  0.40173213017E+04  0.00000000000E+00 0. -1.
         22    1    3    3    0    0 -0.40229037701E+02  0.55557564587E+01  0.22973207378E+02  0.46658441480E+02  0.00000000000E+00 0.  1.
         22    1    3    3    0    0  0.68871166411E+01 -0.87113820914E+01 -0.10714266458E+03  0.10771662419E+03  0.00000000000E+00 0.  1.
</event>
<event>
 7    1  0.6146596E-006  0.5623384E+02  0.7818608E-02  0.1478945E+00
          2   -1    0    0  502    0  0.00000000000E+00  0.00000000000E+00  0.84087313165E+02  0.84087313165E+02  0.00000000000E+00 0. -1.
          1   -1    0    0  501    0 -0.00000000000E+00 -0.00000000000E+00 -0.42854243113E+03  0.42854243113E+03  0.00000000000E+00 0. -1.
         25    2    1    2    0    0  0.17887910703E+02  0.20928064786E+02 -0.63912263183E+02  0.14305884772E+03  0.12499238089E+03 0.  0.
          2    1    1    2  501    0 -0.52434123371E+02 -0.25542747781E+02 -0.31512225798E+03  0.32047434645E+03  0.00000000000E+00 0. -1.
          1    1    1    2  502    0  0.34546212668E+02  0.46146829950E+01  0.34579403198E+02  0.49096550127E+02  0.00000000000E+00 0. -1.
         22    1    3    3    0    0 -0.41653010359E+02 -0.16347592722E+02 -0.57011068053E+02  0.72473988026E+02  0.00000000000E+00 0.  1.
         22    1    3    3    0    0  0.59540921062E+02  0.37275657508E+02 -0.69011951303E+01  0.70584859692E+02  0.00000000000E+00 0.  1.
</event>
<event>
 7    1  0.6146596E-006  0.8054264E+02  0.7818608E-02  0.1380793E+00
          2   -1    0    0  502    0  0.00000000000E+00  0.00000000000E+00  0.52693755632E+03  0.52693755632E+03  0.00000000000E+00 0. -1.
          1   -1    0    0  501    0 -0.00000000000E+00 -0.00000000000E+00 -0.62671145371E+03  0.62671145371E+03  0.00000000000E+00 0. -1.
         25    2    1    2    0    0 -0.81349166172E+02  0.46787300169E+02 -0.16109282135E+03  0.22446161598E+03  0.12500152665E+03 0.  0.
          2    1    1    2  501    0  0.80440783579E+02  0.44671126653E+01 -0.42884660935E+03  0.43634858669E+03  0.00000000000E+00 0. -1.
          1    1    1    2  502    0  0.90838259368E+00 -0.51254412835E+02  0.49016553331E+03  0.49283880736E+03  0.00000000000E+00 0. -1.
         22    1    3    3    0    0 -0.55831433459E+02 -0.68802286848E+01 -0.38741421756E+01  0.56387015229E+02  0.00000000000E+00 0. -1.
         22    1    3    3    0    0 -0.25517732713E+02  0.53667528854E+02 -0.15721867918E+03  0.16807460075E+03  0.00000000000E+00 0. -1.
</event>
<event>
 7    1  0.6146596E-006  0.4418587E+02  0.7818608E-02  0.1520621E+00
          2   -1    0    0  502    0  0.00000000000E+00  0.00000000000E+00  0.74329800480E+03  0.74329800480E+03  0.00000000000E+00 0. -1.
          1   -1    0    0  501    0 -0.00000000000E+00 -0.00000000000E+00 -0.12625471722E+04  0.12625471722E+04  0.00000000000E+00 0. -1.
         25    2    1    2    0    0  0.13812461893E+02  0.19154908379E+02 -0.24042364115E+03  0.27200222465E+03  0.12499595342E+03 0.  0.
          2    1    1    2  501    0  0.79562364183E+01 -0.44362726776E+02 -0.10054479397E+04  0.10064576060E+04  0.00000000000E+00 0. -1.
          1    1    1    2  502    0 -0.21768698311E+02  0.25207818397E+02  0.72662241346E+03  0.72738534634E+03  0.00000000000E+00 0. -1.
         22    1    3    3    0    0 -0.21518337134E+02 -0.43377038033E+02 -0.55685405770E+02  0.73793432481E+02  0.00000000000E+00 0. -1.
         22    1    3    3    0    0  0.35330799027E+02  0.62531946412E+02 -0.18473823538E+03  0.19820879217E+03  0.00000000000E+00 0. -1.
</event>
<event>
 7    1  0.6146596E-006  0.3407797E+02  0.7818608E-02  0.1588541E+00
          2   -1    0    0  502    0  0.00000000000E+00  0.00000000000E+00  0.20056485872E+04  0.20056485872E+04  0.00000000000E+00 0. -1.
          1   -1    0    0  501    0 -0.00000000000E+00 -0.00000000000E+00 -0.33398924271E+03  0.33398924271E+03  0.00000000000E+00 0. -1.
         25    2    1    2    0    0 -0.65788443415E+01  0.12386652755E+02  0.18879156877E+03  0.22685838171E+03  0.12500303417E+03 0.  0.
          2    1    1    2  501    0  0.33729799957E+02 -0.56035858524E+01 -0.31391856462E+03  0.31577518077E+03  0.00000000000E+00 0. -1.
          1    1    1    2  502    0 -0.27150955615E+02 -0.67830669023E+01  0.17967863403E+04  0.17970042674E+04  0.00000000000E+00 0. -1.
         22    1    3    3    0    0  0.35199376288E+02  0.12172514512E+02  0.18045186918E+03  0.18425537520E+03  0.00000000000E+00 0. -1.
         22    1    3    3    0    0 -0.41778220629E+02  0.21413824300E+00  0.83396995973E+01  0.42603006508E+02  0.00000000000E+00 0. -1.
</event>
<event>
 7    1  0.6146596E-006  0.8326608E+02  0.7818608E-02  0.1348320E+00
          2   -1    0    0  502    0  0.00000000000E+00  0.00000000000E+00  0.17946511582E+04  0.17946511582E+04  0.00000000000E+00 0. -1.
          1   -1    0    0  501    0 -0.00000000000E+00 -0.00000000000E+00 -0.93126145701E+02  0.93126145701E+02  0.00000000000E+00 0. -1.
         25    2    1    2    0    0  0.39943258474E+02  0.11270218027E+03  0.38570484254E+03  0.42271739480E+03  0.12499809986E+03 0.  0.
          2    1    1    2  501    0 -0.63483037374E+02 -0.52089042672E+02 -0.51018131445E+02  0.96675819815E+02  0.00000000000E+00 0. -1.
          1    1    1    2  502    0  0.23539778900E+02 -0.60613137595E+02  0.13668383014E+04  0.13683840893E+04  0.00000000000E+00 0. -1.
         22    1    3    3    0    0 -0.43298132039E+02  0.23725167477E+02  0.14020451236E+03  0.14864359083E+03  0.00000000000E+00 0. -1.
         22    1    3    3    0    0  0.83241390513E+02  0.88977012790E+02  0.24550033018E+03  0.27407380397E+03  0.00000000000E+00 0. -1.
</event>
<event>
 7    1  0.6146596E-006  0.7844375E+02  0.7818608E-02  0.1338813E+00
          2   -1    0    0  502    0  0.00000000000E+00  0.00000000000E+00  0.13158136350E+04  0.13158136350E+04  0.00000000000E+00 0. -1.
          1   -1    0    0  501    0 -0.00000000000E+00 -0.00000000000E+00 -0.35146315528E+02  0.35146315528E+02  0.00000000000E+00 0. -1.
         25    2    1    2    0    0 -0.26931310657E+02  0.47211459330E+02  0.27526099437E+03  0.30716206024E+03  0.12500279535E+03 0.  0.
          2    1    1    2  501    0 -0.53025517583E+02 -0.57807581818E+02  0.70652578398E+02  0.10557087129E+03  0.00000000000E+00 0. -1.
          1    1    1    2  502    0  0.79956828240E+02  0.10596122487E+02  0.93475374672E+03  0.93822701901E+03  0.00000000000E+00 0. -1.
         22    1    3    3    0    0  0.31154890371E+01  0.84337176749E+01 -0.12417638321E+02  0.15330740596E+02  0.00000000000E+00 0. -1.
         22    1    3    3    0    0 -0.30046799694E+02  0.38777741655E+02  0.28767863269E+03  0.29183131964E+03  0.00000000000E+00 0. -1.
</event>
<event>
 7    1  0.6146596E-006  0.5907101E+02  0.7818608E-02  0.1506477E+00
          2   -1    0    0  502    0  0.00000000000E+00  0.00000000000E+00  0.47752427100E+03  0.47752427100E+03  0.00000000000E+00 0. -1.
          1   -1    0    0  501    0 -0.00000000000E+00 -0.00000000000E+00 -0.14267549549E+03  0.14267549549E+03  0.00000000000E+00 0. -1.
         25    2    1    2    0    0  0.65051083432E+02  0.20930202490E+02  0.16417778793E+03  0.21736946197E+03  0.12500168044E+03 0.  0.
          2    1    1    2  501    0 -0.44304126370E+02 -0.38839268625E+02 -0.10788734344E+03  0.12292690216E+03  0.00000000000E+00 0. -1.
          1    1    1    2  502    0 -0.20746957062E+02  0.17909066135E+02  0.27855833102E+03  0.27990340237E+03  0.00000000000E+00 0. -1.
         22    1    3    3    0    0  0.16224801903E+02 -0.40676312650E+02  0.11877410637E+03  0.12659026405E+03  0.00000000000E+00 0.  1.
         22    1    3    3    0    0  0.48826281529E+02  0.61606515140E+02  0.45403681563E+02  0.90779197921E+02  0.00000000000E+00 0.  1.
</event>
<event>
 7    1  0.6146596E-006  0.3347105E+02  0.7818608E-02  0.1593852E+00
          2   -1    0    0  502    0  0.00000000000E+00  0.00000000000E+00  0.56503807488E+01  0.56503807488E+01  0.00000000000E+00 0. -1.
          1   -1    0    0  501    0 -0.00000000000E+00 -0.00000000000E+00 -0.17174288148E+04  0.17174288148E+04  0.00000000000E+00 0. -1.
         25    2    1    2    0    0 -0.23507106103E+01 -0.22362468356E+02 -0.11417077914E+04  0.11487503954E+04  0.12500073654E+03 0.  0.
          2    1    1    2  501    0 -0.24570812878E+02  0.28384435285E+02 -0.42526031888E+03  0.42691420663E+03  0.00000000000E+00 0. -1.
          1    1    1    2  502    0  0.26921523489E+02 -0.60219669293E+01 -0.14481032369E+03  0.14741459344E+03  0.00000000000E+00 0. -1.
         22    1    3    3    0    0  0.55676259081E+02  0.10575928686E+02 -0.66252749650E+03  0.66494689992E+03  0.00000000000E+00 0.  1.
         22    1    3    3    0    0 -0.58026969691E+02 -0.32938397042E+02 -0.47918029494E+03  0.48380349551E+03  0.00000000000E+00 0.  1.
</event>
<event>
 7    1  0.6146596E-006  0.5538163E+02  0.7818608E-02  0.1427035E+00
          2   -1    0    0  502    0  0.00000000000E+00  0.00000000000E+00  0.74193792911E+03  0.74193792911E+03  0.00000000000E+00 0. -1.
          1   -1    0    0  501    0 -0.00000000000E+00 -0.00000000000E+00 -0.73150163346E+03  0.73150163346E+03  0.00000000000E+00 0. -1.
         25    2    1    2    0    0  0.65023961289E+02 -0.41909569901E+02  0.15499929891E+01  0.14701111103E+03  0.12500134678E+03 0.  0.
          2    1    1    2  501    0 -0.50506342716E+02 -0.11494578714E+02 -0.65660251925E+03  0.65864245557E+03  0.00000000000E+00 0. -1.
          1    1    1    2  502    0 -0.14517618572E+02  0.53404148615E+02  0.66548882191E+03  0.66778599598E+03  0.00000000000E+00 0. -1.
         22    1    3    3    0    0  0.78817774218E+02  0.16817884451E+02 -0.19852700572E+02  0.83001280051E+02  0.00000000000E+00 0. -1.
         22    1    3    3    0    0 -0.13793812929E+02 -0.58727454352E+02  0.21402693561E+02  0.64009830975E+02  0.00000000000E+00 0. -1.
</event>
<event>
 7    1  0.6146596E-006  0.5751699E+02  0.7818608E-02  0.1517415E+00
          2   -1    0    0  502    0  0.00000000000E+00  0.00000000000E+00  0.80859314525E+03  0.80859314525E+03  0.00000000000E+00 0. -1.
          1   -1    0    0  501    0 -0.00000000000E+00 -0.00000000000E+00 -0.11622259827E+04  0.11622259827E+04  0.00000000000E+00 0. -1.
         25    2    1    2    0    0 -0.11998003250E+02  0.37830874266E+02 -0.11284214990E+03  0.17301533946E+03  0.12500331902E+03 0.  0.
          2    1    1    2  501    0 -0.25433083828E+02  0.60455793925E+01 -0.10180610743E+04  0.10183966525E+04  0.00000000000E+00 0. -1.
          1    1    1    2  502    0  0.37431087079E+02 -0.43876453659E+02  0.77727038677E+03  0.77940713598E+03  0.00000000000E+00 0. -1.
         22    1    3    3    0    0  0.26686608941E+02  0.26444749448E+02  0.13864462988E+02  0.40046513008E+02  0.00000000000E+00 0. -1.
         22    1    3    3    0    0 -0.38684612192E+02  0.11386124819E+02 -0.12670661289E+03  0.13296882646E+03  0.00000000000E+00 0. -1.
</event>
<event>
 7    1  0.6220446E-006  0.6944664E+02  0.7818608E-02  0.1509973E+00
          2   -1    0    0  502    0  0.00000000000E+00  0.00000000000E+00  0.68290436491E+03  0.68290436491E+03  0.00000000000E+00 0. -1.
          1   -1    0    0  501    0 -0.00000000000E+00 -0.00000000000E+00 -0.14204575306E+04  0.14204575306E+04  0.00000000000E+00 0. -1.
         25    2    1    2    0    0 -0.52613800808E+02  0.21351542314E+02 -0.49041167130E+03  0.50926796530E+03  0.12500461088E+03 0.  0.
          2    1    1    2  501    0 -0.16643442103E+02 -0.15532664932E+02 -0.91868322880E+03  0.91896525654E+03  0.00000000000E+00 0. -1.
          1    1    1    2  502    0  0.69257242911E+02 -0.58188773816E+01  0.67154173438E+03  0.67512867370E+03  0.00000000000E+00 0. -1.
         22    1    3    3    0    0  0.12180141021E+02  0.52066134212E+02 -0.11184153460E+03  0.12396679809E+03  0.00000000000E+00 0. -1.
         22    1    3    3    0    0 -0.64793941829E+02 -0.30714591899E+02 -0.37857013670E+03  0.38530116721E+03  0.00000000000E+00 0. -1.
</event>
<event>
 7    1  0.6146596E-006  0.9998080E+02  0.7818608E-02  0.1374059E+00
          2   -1    0    0  502    0  0.00000000000E+00  0.00000000000E+00  0.15128840368E+03  0.15128840368E+03  0.00000000000E+00 0. -1.
          1   -1    0    0  501    0 -0.00000000000E+00 -0.00000000000E+00 -0.13883966004E+04  0.13883966004E+04  0.00000000000E+00 0. -1.
         25    2    1    2    0    0 -0.13477846103E+02 -0.90936613141E+02 -0.23473305202E+03  0.28139088566E+03  0.12502041785E+03 0.  0.
          2    1    1    2  501    0  0.43242274455E+02 -0.58527922054E+01 -0.11098046032E+04  0.11106621479E+04  0.00000000000E+00 0. -1.
          1    1    1    2  502    0 -0.29764428352E+02  0.96789405346E+02  0.10742945847E+03  0.14763197056E+03  0.00000000000E+00 0. -1.
         22    1    3    3    0    0  0.44636696400E+02  0.20593171650E+01 -0.81732949662E+02  0.93150150366E+02  0.00000000000E+00 0. -1.
         22    1    3    3    0    0 -0.58114542503E+02 -0.92995930306E+02 -0.15300010236E+03  0.18824073530E+03  0.00000000000E+00 0. -1.
</event>
<event>
 7    1  0.6146596E-006  0.5675287E+02  0.7818608E-02  0.1413771E+00
          2   -1    0    0  502    0  0.00000000000E+00  0.00000000000E+00  0.31691327640E+03  0.31691327640E+03  0.00000000000E+00 0. -1.
          1   -1    0    0  501    0 -0.00000000000E+00 -0.00000000000E+00 -0.22468747784E+03  0.22468747784E+03  0.00000000000E+00 0. -1.
         25    2    1    2    0    0  0.81406189338E+02  0.10060385649E+02  0.97505687450E+02  0.17853104950E+03  0.12505117963E+03 0.  0.
          2    1    1    2  501    0 -0.45873162331E+02  0.33185389399E+02 -0.17522482431E+03  0.18414493244E+03  0.00000000000E+00 0. -1.
          1    1    1    2  502    0 -0.35533027007E+02 -0.43245775049E+02  0.16994493541E+03  0.17892477229E+03  0.00000000000E+00 0. -1.
         22    1    3    3    0    0  0.80195511803E+02  0.52857198405E+02  0.33893162958E+02  0.10185258972E+03  0.00000000000E+00 0.  1.
         22    1    3    3    0    0  0.12106775353E+01 -0.42796812755E+02  0.63612524493E+02  0.76678459782E+02  0.00000000000E+00 0.  1.
</event>
<event>
 7    1  0.6146596E-006  0.4297606E+02  0.7818608E-02  0.1562387E+00
          2   -1    0    0  502    0  0.00000000000E+00  0.00000000000E+00  0.71164561878E+02  0.71164561878E+02  0.00000000000E+00 0. -1.
          1   -1    0    0  501    0 -0.00000000000E+00 -0.00000000000E+00 -0.94957130045E+03  0.94957130045E+03  0.00000000000E+00 0. -1.
         25    2    1    2    0    0 -0.68536998981E+01 -0.24557088701E+02 -0.29101391948E+03  0.31774828261E+03  0.12499938385E+03 0.  0.
          2    1    1    2  501    0 -0.25742960177E+02 -0.43357327442E+01 -0.63667770575E+03  0.63721268001E+03  0.00000000000E+00 0. -1.
          1    1    1    2  502    0  0.32596660076E+02  0.28892821446E+02  0.49284886650E+02  0.65774899706E+02  0.00000000000E+00 0. -1.
         22    1    3    3    0    0  0.30514734803E+02  0.34682255908E+02 -0.56406454522E+02  0.72908819951E+02  0.00000000000E+00 0. -1.
         22    1    3    3    0    0 -0.37368434701E+02 -0.59239344609E+02 -0.23460746495E+03  0.24483946266E+03  0.00000000000E+00 0. -1.
</event>
<event>
 7    1  0.6146596E-006  0.1508866E+03  0.7818608E-02  0.1328879E+00
          2   -1    0    0  502    0  0.00000000000E+00  0.00000000000E+00  0.15098499168E+04  0.15098499168E+04  0.00000000000E+00 0. -1.
          1   -1    0    0  501    0 -0.00000000000E+00 -0.00000000000E+00 -0.28088820163E+03  0.28088820163E+03  0.00000000000E+00 0. -1.
         25    2    1    2    0    0  0.11415772383E+03  0.11695854435E+03  0.18739717303E+03  0.27830934085E+03  0.12500840666E+03 0.  0.
          2    1    1    2  501    0 -0.40207110342E+02  0.13710659622E+02 -0.22905912511E+03  0.23296496884E+03  0.00000000000E+00 0. -1.
          1    1    1    2  502    0 -0.73950613487E+02 -0.13066920398E+03  0.12706236672E+04  0.12794638087E+04  0.00000000000E+00 0. -1.
         22    1    3    3    0    0  0.77056736832E+01  0.18352339636E+02  0.11395059244E+03  0.11567594087E+03  0.00000000000E+00 0. -1.
         22    1    3    3    0    0  0.10645205015E+03  0.98606204718E+02  0.73446580585E+02  0.16263339998E+03  0.00000000000E+00 0. -1.
</event>
<event>
 7    1  0.6146596E-006  0.8139929E+02  0.7818608E-02  0.1416244E+00
          2   -1    0    0  502    0  0.00000000000E+00  0.00000000000E+00  0.60894102412E+03  0.60894102412E+03  0.00000000000E+00 0. -1.
          1   -1    0    0  501    0 -0.00000000000E+00 -0.00000000000E+00 -0.51992194461E+02  0.51992194461E+02  0.00000000000E+00 0. -1.
         25    2    1    2    0    0  0.59938979080E+02  0.87319999519E+02  0.20075397821E+03  0.25912770688E+03  0.12501018030E+03 0.  0.
          2    1    1    2  501    0 -0.36129262774E+02 -0.12661940182E+02  0.12403303314E+01  0.38303874179E+02  0.00000000000E+00 0. -1.
          1    1    1    2  502    0 -0.23809716306E+02 -0.74658059337E+02  0.35495452112E+03  0.36350163752E+03  0.00000000000E+00 0. -1.
         22    1    3    3    0    0  0.38279347302E+02 -0.26529184413E+02  0.73470617486E+02  0.86988721621E+02  0.00000000000E+00 0.  1.
         22    1    3    3    0    0  0.21659631778E+02  0.11384918393E+03  0.12728336072E+03  0.17213898526E+03  0.00000000000E+00 0.  1.
</event>
<event>
 7    1  0.6146596E-006  0.1060333E+03  0.7818608E-02  0.1326668E+00
          2   -1    0    0  502    0  0.00000000000E+00  0.00000000000E+00  0.95941033977E+03  0.95941033977E+03  0.00000000000E+00 0. -1.
          1   -1    0    0  501    0 -0.00000000000E+00 -0.00000000000E+00 -0.84431308109E+03  0.84431308109E+03  0.00000000000E+00 0. -1.
         25    2    1    2    0    0  0.13376395971E+03  0.92694569112E+02  0.36699685297E+03  0.42047166186E+03  0.12499859308E+03 0.  0.
          2    1    1    2  501    0 -0.95949072785E+02 -0.44014969034E+02 -0.81247166707E+03  0.81930077008E+03  0.00000000000E+00 0. -1.
          1    1    1    2  502    0 -0.37814886925E+02 -0.48679600078E+02  0.56057207277E+03  0.56395098892E+03  0.00000000000E+00 0. -1.
         22    1    3    3    0    0  0.30079197145E+02 -0.24084361017E+02  0.29279629778E+02  0.48395364100E+02  0.00000000000E+00 0.  1.
         22    1    3    3    0    0  0.10368476257E+03  0.11677893013E+03  0.33771722319E+03  0.37207629776E+03  0.00000000000E+00 0.  1.
</event>
<event>
 7    1  0.6146596E-006  0.2025404E+03  0.7818608E-02  0.1245860E+00
          2   -1    0    0  502    0  0.00000000000E+00  0.00000000000E+00  0.14700814486E+03  0.14700814486E+03  0.00000000000E+00 0. -1.
          1   -1    0    0  501    0 -0.00000000000E+00 -0.00000000000E+00 -0.12593164628E+04  0.12593164628E+04  0.00000000000E+00 0. -1.
         25    2    1    2    0    0 -0.36050133205E+02  0.14485876137E+03 -0.65706113730E+03  0.68530101273E+03  0.12499786821E+03 0.  0.
          2    1    1    2  501    0 -0.52437523189E+02  0.45069467464E+02 -0.50166999199E+03  0.50641261003E+03  0.00000000000E+00 0. -1.
          1    1    1    2  502    0  0.88487656394E+02 -0.18992822883E+03  0.46422811308E+02  0.21461098493E+03  0.00000000000E+00 0. -1.
         22    1    3    3    0    0 -0.32163489274E+02  0.40566509353E+02 -0.45446079693E+03  0.45739998652E+03  0.00000000000E+00 0. -1.
         22    1    3    3    0    0 -0.38866439314E+01  0.10429225202E+03 -0.20260034036E+03  0.22790102621E+03  0.00000000000E+00 0. -1.
</event>
<event>
 7    1  0.6146596E-006  0.1007742E+03  0.7818608E-02  0.1296071E+00
          2   -1    0    0  502    0  0.00000000000E+00  0.00000000000E+00  0.18298244767E+04  0.18298244767E+04  0.00000000000E+00 0. -1.
          1   -1    0    0  501    0 -0.00000000000E+00 -0.00000000000E+00 -0.51175487589E+03  0.51175487589E+03  0.00000000000E+00 0. -1.
         25    2    1    2    0    0  0.86769146811E+02 -0.11127905883E+02  0.14757115017E+03  0.21226066858E+03  0.12499852774E+03 0.  0.
          2    1    1    2  501    0 -0.50727963245E+02  0.88734080142E+02 -0.47283647300E+03  0.48375757713E+03  0.00000000000E+00 0. -1.
          1    1    1    2  502    0 -0.36041183566E+02 -0.77606174260E+02  0.16433349236E+04  0.16455611068E+04  0.00000000000E+00 0. -1.
         22    1    3    3    0    0  0.74733655257E+02 -0.26748954719E+02  0.16679617515E+03  0.18472030168E+03  0.00000000000E+00 0. -1.
         22    1    3    3    0    0  0.12035491554E+02  0.15621048836E+02 -0.19225024983E+02  0.27540366905E+02  0.00000000000E+00 0. -1.
</event>
<event>
 7    1  0.6146596E-006  0.1771746E+03  0.7818608E-02  0.1351291E+00
          2   -1    0    0  502    0  0.00000000000E+00  0.00000000000E+00  0.71240630382E+03  0.71240630382E+03  0.00000000000E+00 0. -1.
          1   -1    0    0  501    0 -0.00000000000E+00 -0.00000000000E+00 -0.61418776422E+03  0.61418776422E+03  0.00000000000E+00 0. -1.
         25    2    1    2    0    0 -0.42761316905E+02 -0.14402135979E+03  0.16076881179E+03  0.25306106355E+03  0.12499043461E+03 0.  0.
          2    1    1    2  501    0  0.58930783808E+02  0.16904570758E+03 -0.55347362270E+03  0.58170640322E+03  0.00000000000E+00 0. -1.
          1    1    1    2  502    0 -0.16169466903E+02 -0.25024347791E+02  0.49092335050E+03  0.49182660126E+03  0.00000000000E+00 0. -1.
         22    1    3    3    0    0 -0.73738562287E+02 -0.34421966513E+02  0.61960159503E+02  0.10228053927E+03  0.00000000000E+00 0. -1.
         22    1    3    3    0    0  0.30977245382E+02 -0.10959939328E+03  0.98808652283E+02  0.15078052429E+03  0.00000000000E+00 0. -1.
</event>
<event>
 7    1  0.6146596E-006  0.4865736E+02  0.7818608E-02  0.1507609E+00
          2   -1    0    0  502    0  0.00000000000E+00  0.00000000000E+00  0.10598506761E+04  0.10598506761E+04  0.00000000000E+00 0. -1.
          1   -1    0    0  501    0 -0.00000000000E+00 -0.00000000000E+00 -0.36244119331E+02  0.36244119331E+02  0.00000000000E+00 0. -1.
         25    2    1    2    0    0 -0.53250755941E+02  0.38230547130E+02  0.40314338540E+03  0.42713718698E+03  0.12499747824E+03 0.  0.
          2    1    1    2  501    0  0.47777723474E+02 -0.56694150077E+01  0.49968597894E+00  0.48115515304E+02  0.00000000000E+00 0. -1.
          1    1    1    2  502    0  0.54730324672E+01 -0.32561132122E+02  0.61996348539E+03  0.62084209315E+03  0.00000000000E+00 0. -1.
         22    1    3    3    0    0  0.26438572055E+02 -0.26069766981E+02  0.80841001593E+02  0.88960094319E+02  0.00000000000E+00 0.  1.
         22    1    3    3    0    0 -0.79689327996E+02  0.64300314110E+02  0.32230238381E+03  0.33817709266E+03  0.00000000000E+00 0.  1.
</event>
<event>
 7    1  0.6146596E-006  0.4852510E+02  0.7818608E-02  0.1475997E+00
          2   -1    0    0  502    0  0.00000000000E+00  0.00000000000E+00  0.88807102384E+03  0.88807102384E+03  0.00000000000E+00 0. -1.
          1   -1    0    0  501    0 -0.00000000000E+00 -0.00000000000E+00 -0.17556660415E+02  0.17556660415E+02  0.00000000000E+00 0. -1.
         25    2    1    2    0    0  0.17371848874E+02  0.58490296010E+02  0.38991915366E+03  0.41398644475E+03  0.12499973674E+03 0.  0.
          2    1    1    2  501    0 -0.37078391024E+02 -0.22260365066E+02  0.38640136573E+03  0.38881402543E+03  0.00000000000E+00 0. -1.
          1    1    1    2  502    0  0.19706542150E+02 -0.36229930945E+02  0.94193844042E+02  0.10282721408E+03  0.00000000000E+00 0. -1.
         22    1    3    3    0    0 -0.41784827072E+02 -0.15004445664E+02  0.11135046407E+03  0.11987506418E+03  0.00000000000E+00 0. -1.
         22    1    3    3    0    0  0.59156675946E+02  0.73494741674E+02  0.27856868959E+03  0.29411138057E+03  0.00000000000E+00 0. -1.
</event>
<event>
 7    1  0.6146596E-006  0.7726893E+02  0.7818608E-02  0.1494432E+00
          2   -1    0    0  502    0  0.00000000000E+00  0.00000000000E+00  0.11294149972E+04  0.11294149972E+04  0.00000000000E+00 0. -1.
          1   -1    0    0  501    0 -0.00000000000E+00 -0.00000000000E+00 -0.12950681775E+04  0.12950681775E+04  0.00000000000E+00 0. -1.
         25    2    1    2    0    0  0.61323611231E+02  0.38751552053E+02 -0.14311303583E+03  0.20339838519E+03  0.12500917563E+03 0.  0.
          2    1    1    2  501    0 -0.50619667044E+02 -0.58836825156E+02 -0.11203518805E+04  0.11230371582E+04  0.00000000000E+00 0. -1.
          1    1    1    2  502    0 -0.10703944187E+02  0.20085273104E+02  0.10978117360E+04  0.10980476312E+04  0.00000000000E+00 0. -1.
         22    1    3    3    0    0  0.16202578787E+02 -0.43676887800E+02 -0.26359134161E+02  0.53525676464E+02  0.00000000000E+00 0.  1.
         22    1    3    3    0    0  0.45121032444E+02  0.82428439852E+02 -0.11675390167E+03  0.14987270872E+03  0.00000000000E+00 0.  1.
</event>
<event>
 7    1  0.1278034E-005  0.1056875E+03  0.7818608E-02  0.1297938E+00
          2   -1    0    0  502    0  0.00000000000E+00  0.00000000000E+00  0.19223807266E+04  0.19223807266E+04  0.00000000000E+00 0. -1.
          1   -1    0    0  501    0 -0.00000000000E+00 -0.00000000000E+00 -0.12150839505E+04  0.12150839505E+04  0.00000000000E+00 0. -1.
         25    2    1    2    0    0  0.14783655147E+02  0.21341548923E+02 -0.41564173099E+03  0.43480728689E+03  0.12500124008E+03 0.  0.
          2    1    1    2  501    0  0.54338369013E+02  0.58972861454E+02 -0.78635124847E+03  0.79042946725E+03  0.00000000000E+00 0. -1.
          1    1    1    2  502    0 -0.69122024160E+02 -0.80314410377E+02  0.19092897555E+04  0.19122279229E+04  0.00000000000E+00 0. -1.
         22    1    3    3    0    0  0.69857621720E+02  0.83543604113E+01 -0.25317191061E+03  0.26276586340E+03  0.00000000000E+00 0.  1.
         22    1    3    3    0    0 -0.55073966573E+02  0.12987188512E+02 -0.16246982039E+03  0.17204142349E+03  0.00000000000E+00 0.  1.
</event>
<event>
 7    1  0.6146596E-006  0.1144797E+03  0.7818608E-02  0.1363815E+00
          2   -1    0    0  502    0  0.00000000000E+00  0.00000000000E+00  0.18724066170E+04  0.18724066170E+04  0.00000000000E+00 0. -1.
          1   -1    0    0  501    0 -0.00000000000E+00 -0.00000000000E+00 -0.11908391500E+04  0.11908391500E+04  0.00000000000E+00 0. -1.
         25    2    1    2    0    0  0.13126930761E+03  0.10852212418E+02  0.34223102731E+02  0.18479231045E+03  0.12501030200E+03 0.  0.
          2    1    1    2  501    0 -0.10559349304E+03 -0.43440808109E+02 -0.11123877435E+04  0.11182323468E+04  0.00000000000E+00 0. -1.
          1    1    1    2  502    0 -0.25675814570E+02  0.32588595691E+02  0.17597321078E+04  0.17602211097E+04  0.00000000000E+00 0. -1.
         22    1    3    3    0    0  0.80131787920E+02  0.26011492040E+02 -0.40105562793E+02  0.93306791394E+02  0.00000000000E+00 0. -1.
         22    1    3    3    0    0  0.51137519691E+02 -0.15159279623E+02  0.74328665523E+02  0.91485519058E+02  0.00000000000E+00 0. -1.
</event>
<event>
 7    1  0.6146596E-006  0.7016689E+02  0.7818608E-02  0.1470021E+00
          2   -1    0    0  502    0  0.00000000000E+00  0.00000000000E+00  0.14477795306E+04  0.14477795306E+04  0.00000000000E+00 0. -1.
          1   -1    0    0  501    0 -0.00000000000E+00 -0.00000000000E+00 -0.25166414197E+03  0.25166414197E+03  0.00000000000E+00 0. -1.
         25    2    1    2    0    0 -0.65482214193E+02  0.14148955529E+02 -0.66405252375E+02  0.15659712968E+03  0.12499956064E+03 0.  0.
          2    1    1    2  501    0 -0.30360971023E+01 -0.29608887547E+02 -0.13769248870E+03  0.14087272820E+03  0.00000000000E+00 0. -1.
          1    1    1    2  502    0  0.68518311296E+02  0.15459932018E+02  0.14002131297E+04  0.14019738147E+04  0.00000000000E+00 0. -1.
         22    1    3    3    0    0  0.82118303152E+01  0.48413907728E+02 -0.56291216159E+02  0.74699676273E+02  0.00000000000E+00 0.  1.
         22    1    3    3    0    0 -0.73694044509E+02 -0.34264952199E+02 -0.10114036216E+02  0.81897453402E+02  0.00000000000E+00 0.  1.
</event>
<event>
 7    1  0.6146596E-006  0.1140024E+03  0.7818608E-02  0.1268814E+00
          2   -1    0    0  502    0  0.00000000000E+00  0.00000000000E+00  0.20919168375E+03  0.20919168375E+03  0.00000000000E+00 0. -1.
          1   -1    0    0  501    0 -0.00000000000E+00 -0.00000000000E+00 -0.95711565631E+03  0.95711565631E+03  0.00000000000E+00 0. -1.
         25    2    1    2    0    0  0.99688932829E+02  0.17786760378E+03 -0.22300230124E+02  0.24020146430E+03  0.12499870153E+03 0.  0.
          2    1    1    2  501    0 -0.33308955493E+02 -0.10585700199E+03 -0.79714529960E+03  0.80483279012E+03  0.00000000000E+00 0. -1.
          1    1    1    2  502    0 -0.66379977336E+02 -0.72010601790E+02  0.71521557165E+02  0.12127308564E+03  0.00000000000E+00 0. -1.
         22    1    3    3    0    0  0.88092778125E+02  0.99329937323E+02 -0.67402082586E+02  0.14889531471E+03  0.00000000000E+00 0.  1.
         22    1    3    3    0    0  0.11596154705E+02  0.78537666461E+02  0.45101852463E+02  0.91306149588E+02  0.00000000000E+00 0.  1.
</event>
<event>
 7    1  0.6146596E-006  0.3436411E+03  0.7818608E-02  0.1204633E+00
          2   -1    0    0  502    0  0.00000000000E+00  0.00000000000E+00  0.24195480194E+03  0.24195480194E+03  0.00000000000E+00 0. -1.
          1   -1    0    0  501    0 -0.00000000000E+00 -0.00000000000E+00 -0.26306587963E+04  0.26306587963E+04  0.00000000000E+00 0. -1.
         25    2    1    2    0    0 -0.98458295927E+02  0.37267021156E+03 -0.28218659850E+03  0.49379350543E+03  0.12500250802E+03 0.  0.
          2    1    1    2  501    0  0.13290701746E+02 -0.61168445808E+02 -0.20500260784E+04  0.20509815074E+04  0.00000000000E+00 0. -1.
          1    1    1    2  502    0  0.85167594181E+02 -0.31150176575E+03 -0.56491317491E+02  0.32783858546E+03  0.00000000000E+00 0. -1.
         22    1    3    3    0    0 -0.74470708652E+02  0.73399183487E+02 -0.63123934626E+02  0.12213909164E+03  0.00000000000E+00 0.  1.
         22    1    3    3    0    0 -0.23987587275E+02  0.29927102807E+03 -0.21906266387E+03  0.37165441379E+03  0.00000000000E+00 0.  1.
</event>
<event>
 7    1  0.6146596E-006  0.5397941E+02  0.7818608E-02  0.1459907E+00
          2   -1    0    0  502    0  0.00000000000E+00  0.00000000000E+00  0.15526951732E+03  0.15526951732E+03  0.00000000000E+00 0. -1.
          1   -1    0    0  501    0 -0.00000000000E+00 -0.00000000000E+00 -0.19741563031E+03  0.19741563031E+03  0.00000000000E+00 0. -1.
         25    2    1    2    0    0 -0.84352126016E+02  0.12443662919E+02 -0.84544031332E+02  0.17332988644E+03  0.12500172155E+03 0.  0.
          2    1    1    2  501    0  0.43541513245E+02 -0.20601849938E+02 -0.55195315867E+02  0.73258600111E+02  0.00000000000E+00 0. -1.
          1    1    1    2  502    0  0.40810612771E+02  0.81581870189E+01  0.97593234201E+02  0.10609666108E+03  0.00000000000E+00 0. -1.
         22    1    3    3    0    0 -0.90288920872E+02  0.64052067490E+01 -0.21907098536E+01  0.90542338800E+02  0.00000000000E+00 0.  1.
         22    1    3    3    0    0  0.59367948561E+01  0.60384561701E+01 -0.82353321478E+02  0.82787547642E+02  0.00000000000E+00 0.  1.
</event>
<event>
 7    1  0.6146596E-006  0.8270395E+02  0.7818608E-02  0.1347483E+00
          2   -1    0    0  502    0  0.00000000000E+00  0.00000000000E+00  0.28068755039E+04  0.28068755039E+04  0.00000000000E+00 0. -1.
          1   -1    0    0  501    0 -0.00000000000E+00 -0.00000000000E+00 -0.29670460419E+03  0.29670460419E+03  0.00000000000E+00 0. -1.
         25    2    1    2    0    0 -0.13321595925E+03 -0.60477689051E+02  0.14478083216E+04  0.14605402015E+04  0.12499880619E+03 0.  0.
          2    1    1    2  501    0  0.69139786999E+02  0.44925714220E+02 -0.28366128657E+03  0.29540202342E+03  0.00000000000E+00 0. -1.
          1    1    1    2  502    0  0.64076172249E+02  0.15551974831E+02  0.13460238647E+04  0.13476378831E+04  0.00000000000E+00 0. -1.
         22    1    3    3    0    0 -0.21630095698E+02 -0.76302680202E+02  0.64586645977E+03  0.65071763762E+03  0.00000000000E+00 0.  1.
         22    1    3    3    0    0 -0.11158586355E+03  0.15824991151E+02  0.80194186181E+03  0.80982256391E+03  0.00000000000E+00 0.  1.
</event>
<event>
 7    1  0.6146596E-006  0.1696326E+03  0.7818608E-02  0.1237541E+00
          2   -1    0    0  502    0  0.00000000000E+00  0.00000000000E+00  0.18207548969E+03  0.18207548969E+03  0.00000000000E+00 0. -1.
          1   -1    0    0  501    0 -0.00000000000E+00 -0.00000000000E+00 -0.31790763920E+03  0.31790763920E+03  0.00000000000E+00 0. -1.
         25    2    1    2    0    0  0.12502948549E+03  0.42634451850E+02 -0.14031429598E+02  0.18240938909E+03  0.12500494184E+03 0.  0.
          2    1    1    2  501    0 -0.15632622645E+03 -0.12681952745E+03 -0.10173081630E+03  0.22554432071E+03  0.00000000000E+00 0. -1.
          1    1    1    2  502    0  0.31296740959E+02  0.84185075600E+02 -0.20069903617E+02  0.92029419098E+02  0.00000000000E+00 0. -1.
         22    1    3    3    0    0  0.10818583003E+03  0.53991602858E+02 -0.57905134751E+02  0.13406070129E+03  0.00000000000E+00 0. -1.
         22    1    3    3    0    0  0.16843655457E+02 -0.11357151008E+02  0.43873705154E+02  0.48348687801E+02  0.00000000000E+00 0. -1.
</event>
<event>
 7    1  0.6146596E-006  0.1307529E+03  0.7818608E-02  0.1350034E+00
          2   -1    0    0  502    0  0.00000000000E+00  0.00000000000E+00  0.15549370519E+04  0.15549370519E+04  0.00000000000E+00 0. -1.
          1   -1    0    0  501    0 -0.00000000000E+00 -0.00000000000E+00 -0.23434817285E+03  0.23434817285E+03  0.00000000000E+00 0. -1.
         25    2    1    2    0    0 -0.83922412739E+02 -0.14764349373E+03  0.53674141186E+03  0.57667758880E+03  0.12499650241E+03 0.  0.
          2    1    1    2  501    0  0.59776705027E+02  0.11474719175E+03 -0.19439429903E+03  0.23351513007E+03  0.00000000000E+00 0. -1.
          1    1    1    2  502    0  0.24145707712E+02  0.32896301988E+02  0.97824176622E+03  0.97909250587E+03  0.00000000000E+00 0. -1.
         22    1    3    3    0    0 -0.59819897128E+02 -0.22597689888E+02  0.31088138618E+03  0.31738984223E+03  0.00000000000E+00 0.  1.
         22    1    3    3    0    0 -0.24102515611E+02 -0.12504580385E+03  0.22586002568E+03  0.25928774657E+03  0.00000000000E+00 0.  1.
</event>
<event>
 7    1  0.6146596E-006  0.2424921E+03  0.7818608E-02  0.1316777E+00
          2   -1    0    0  502    0  0.00000000000E+00  0.00000000000E+00  0.14478393395E+04  0.14478393395E+04  0.00000000000E+00 0. -1.
          1   -1    0    0  501    0 -0.00000000000E+00 -0.00000000000E+00 -0.32342388427E+03  0.32342388427E+03  0.00000000000E+00 0. -1.
         25    2    1    2    0    0  0.26165985404E+03 -0.41079084223E+02  0.41969326868E+03  0.51178162146E+03  0.12499847166E+03 0.  0.
          2    1    1    2  501    0 -0.23433881786E+03  0.52037670115E+02 -0.22516839027E+03  0.32912521120E+03  0.00000000000E+00 0. -1.
          1    1    1    2  502    0 -0.27321036173E+02 -0.10958585891E+02  0.92989057683E+03  0.93035639113E+03  0.00000000000E+00 0. -1.
         22    1    3    3    0    0  0.18191367882E+03 -0.54174197704E+02  0.19119038965E+03  0.26940897412E+03  0.00000000000E+00 0.  1.
         22    1    3    3    0    0  0.79746175216E+02  0.13095113481E+02  0.22850287903E+03  0.24237264735E+03  0.00000000000E+00 0.  1.
</event>
<event>
 7    1  0.6146596E-006  0.4963486E+02  0.7818608E-02  0.1477668E+00
          2   -1    0    0  502    0  0.00000000000E+00  0.00000000000E+00  0.34677951055E+03  0.34677951055E+03  0.00000000000E+00 0. -1.
          1   -1    0    0  501    0 -0.00000000000E+00 -0.00000000000E+00 -0.55604797121E+03  0.55604797121E+03  0.00000000000E+00 0. -1.
         25    2    1    2    0    0  0.96283419454E+01  0.81868622977E+02 -0.39437194819E+03  0.42183679518E+03  0.12498748676E+03 0.  0.
          2    1    1    2  501    0 -0.21207242943E+02 -0.33732943212E+02 -0.14337160470E+03  0.14880549602E+03  0.00000000000E+00 0. -1.
          1    1    1    2  502    0  0.11578900998E+02 -0.48135679765E+02  0.32847509224E+03  0.33218519057E+03  0.00000000000E+00 0. -1.
         22    1    3    3    0    0  0.29107473068E+02  0.80847681125E+02 -0.39299836817E+03  0.40228262443E+03  0.00000000000E+00 0.  1.
         22    1    3    3    0    0 -0.19479131123E+02  0.10209418519E+01 -0.13735800221E+01  0.19554170748E+02  0.00000000000E+00 0.  1.
</event>
<event>
 7    1  0.6146596E-006  0.8431719E+02  0.7818608E-02  0.1353661E+00
          2   -1    0    0  502    0  0.00000000000E+00  0.00000000000E+00  0.11725923043E+03  0.11725923043E+03  0.00000000000E+00 0. -1.
          1   -1    0    0  501    0 -0.00000000000E+00 -0.00000000000E+00 -0.25193642962E+04  0.25193642962E+04  0.00000000000E+00 0. -1.
         25    2    1    2    0    0  0.39943993067E+02  0.22305622078E+02 -0.14042599327E+03  0.19348899924E+03  0.12500187952E+03 0.  0.
          2    1    1    2  501    0  0.49877130377E+02 -0.35734193003E+02 -0.23291733507E+04  0.23299813643E+04  0.00000000000E+00 0. -1.
          1    1    1    2  502    0 -0.89821123445E+02  0.13428570925E+02  0.67494278135E+02  0.11315316308E+03  0.00000000000E+00 0. -1.
         22    1    3    3    0    0  0.24850521650E+02 -0.50632733309E+02 -0.78286387605E+02  0.96488240698E+02  0.00000000000E+00 0. -1.
         22    1    3    3    0    0  0.15093471417E+02  0.72938355388E+02 -0.62139605661E+02  0.97000758542E+02  0.00000000000E+00 0. -1.
</event>
<event>
 7    1  0.6146596E-006  0.1037164E+03  0.7818608E-02  0.1382293E+00
          2   -1    0    0  502    0  0.00000000000E+00  0.00000000000E+00  0.14460387695E+04  0.14460387695E+04  0.00000000000E+00 0. -1.
          1   -1    0    0  501    0 -0.00000000000E+00 -0.00000000000E+00 -0.13877675428E+03  0.13877675428E+03  0.00000000000E+00 0. -1.
         25    2    1    2    0    0 -0.44565512193E+02 -0.13022893295E+03  0.48176257185E+03  0.51639670755E+03  0.12499889631E+03 0.  0.
          2    1    1    2  501    0  0.16915855847E+02  0.35501607070E+02 -0.11562777687E+03  0.12213227693E+03  0.00000000000E+00 0. -1.
          1    1    1    2  502    0  0.27649656345E+02  0.94727325880E+02  0.94112722020E+03  0.94628653925E+03  0.00000000000E+00 0. -1.
         22    1    3    3    0    0 -0.59878535110E+02 -0.61261208305E+02  0.11787770316E+03  0.14571728625E+03  0.00000000000E+00 0.  1.
         22    1    3    3    0    0  0.15313022917E+02 -0.68967724645E+02  0.36388486869E+03  0.37067942130E+03  0.00000000000E+00 0.  1.
</event>
<event>
 7    1  0.6146596E-006  0.1527424E+03  0.7818608E-02  0.1238515E+00
          2   -1    0    0  502    0  0.00000000000E+00  0.00000000000E+00  0.81647795102E+03  0.81647795102E+03  0.00000000000E+00 0. -1.
          1   -1    0    0  501    0 -0.00000000000E+00 -0.00000000000E+00 -0.17999129117E+04  0.17999129117E+04  0.00000000000E+00 0. -1.
         25    2    1    2    0    0 -0.60771970411E+02 -0.20777095117E+03 -0.19481459610E+03  0.31692169581E+03  0.12499853551E+03 0.  0.
          2    1    1    2  501    0  0.95701678713E+02  0.11539358406E+03 -0.15371546746E+04  0.15444477926E+04  0.00000000000E+00 0. -1.
          1    1    1    2  502    0 -0.34929708302E+02  0.92377367109E+02  0.74853430997E+03  0.75502137432E+03  0.00000000000E+00 0. -1.
         22    1    3    3    0    0 -0.23305494276E+02 -0.32128360784E+02  0.13457311842E+02  0.41910343259E+02  0.00000000000E+00 0. -1.
         22    1    3    3    0    0 -0.37466476135E+02 -0.17564259039E+03 -0.20827190794E+03  0.27501135255E+03  0.00000000000E+00 0. -1.
</event>
<event>
 7    1  0.6146596E-006  0.9215290E+02  0.7818608E-02  0.1382585E+00
          2   -1    0    0  502    0  0.00000000000E+00  0.00000000000E+00  0.13951598520E+03  0.13951598520E+03  0.00000000000E+00 0. -1.
          1   -1    0    0  501    0 -0.00000000000E+00 -0.00000000000E+00 -0.14958738916E+04  0.14958738916E+04  0.00000000000E+00 0. -1.
         25    2    1    2    0    0 -0.14715220126E+02  0.80213776471E+02 -0.11111644531E+03  0.18607244203E+03  0.12500120649E+03 0.  0.
          2    1    1    2  501    0 -0.28657776910E+02 -0.88489629644E+02 -0.13408146925E+04  0.13440370986E+04  0.00000000000E+00 0. -1.
          1    1    1    2  502    0  0.43372997036E+02  0.82758531723E+01  0.95573231438E+02  0.10528033617E+03  0.00000000000E+00 0. -1.
         22    1    3    3    0    0  0.50234654163E+02  0.15530093298E+02 -0.64557736637E+02  0.83261069153E+02  0.00000000000E+00 0. -1.
         22    1    3    3    0    0 -0.64949874289E+02  0.64683683173E+02 -0.46558708676E+02  0.10281137288E+03  0.00000000000E+00 0. -1.
</event>
<event>
 7    1  0.6146596E-006  0.1581489E+03  0.7818608E-02  0.1356227E+00
          2   -1    0    0  502    0  0.00000000000E+00  0.00000000000E+00  0.38478832520E+03  0.38478832520E+03  0.00000000000E+00 0. -1.
          1   -1    0    0  501    0 -0.00000000000E+00 -0.00000000000E+00 -0.72441527656E+03  0.72441527656E+03  0.00000000000E+00 0. -1.
         25    2    1    2    0    0 -0.55948519341E+02  0.13028989124E+03 -0.33325961435E+03  0.38313595608E+03  0.12500199081E+03 0.  0.
          2    1    1    2  501    0 -0.31927313519E+02  0.22926365916E+01 -0.34786977209E+03  0.34933935917E+03  0.00000000000E+00 0. -1.
          1    1    1    2  502    0  0.87875832861E+02 -0.13258252784E+03  0.34150243508E+03  0.37672828651E+03  0.00000000000E+00 0. -1.
         22    1    3    3    0    0 -0.94118770936E+02  0.11293718997E+03 -0.25449507521E+03  0.29390626946E+03  0.00000000000E+00 0. -1.
         22    1    3    3    0    0  0.38170251595E+02  0.17352701277E+02 -0.78764539139E+02  0.89229686620E+02  0.00000000000E+00 0. -1.
</event>
<event>
 7    1  0.6146596E-006  0.5394811E+02  0.7818608E-02  0.1539217E+00
          2   -1    0    0  502    0  0.00000000000E+00  0.00000000000E+00  0.17493108272E+04  0.17493108272E+04  0.00000000000E+00 0. -1.
          1   -1    0    0  501    0 -0.00000000000E+00 -0.00000000000E+00 -0.44505218534E+03  0.44505218534E+03  0.00000000000E+00 0. -1.
         25    2    1    2    0    0 -0.98877622226E+01  0.55046989499E+02  0.17172133453E+03  0.21964065472E+03  0.12500344627E+03 0.  0.
          2    1    1    2  501    0  0.31320162018E+02 -0.43961634291E+02 -0.41926857335E+03  0.42272888999E+03  0.00000000000E+00 0. -1.
          1    1    1    2  502    0 -0.21432399795E+02 -0.11085355208E+02  0.15518058807E+04  0.15519934678E+04  0.00000000000E+00 0. -1.
         22    1    3    3    0    0 -0.61889627941E+02  0.31850589759E+02  0.51399700583E+02  0.86525807334E+02  0.00000000000E+00 0. -1.
         22    1    3    3    0    0  0.52001865719E+02  0.23196399740E+02  0.12032163394E+03  0.13311484738E+03  0.00000000000E+00 0. -1.
</event>
<event>
 7    1  0.6146596E-006  0.8638214E+02  0.7818608E-02  0.1332809E+00
          2   -1    0    0  502    0  0.00000000000E+00  0.00000000000E+00  0.72860118284E+03  0.72860118284E+03  0.00000000000E+00 0. -1.
          1   -1    0    0  501    0 -0.00000000000E+00 -0.00000000000E+00 -0.56209752907E+03  0.56209752907E+03  0.00000000000E+00 0. -1.
         25    2    1    2    0    0  0.64606870233E+02 -0.93847933837E+02  0.15344410656E+03  0.22836639643E+03  0.12499853925E+03 0.  0.
          2    1    1    2  501    0  0.17800948103E+02  0.69438552413E+02 -0.51872121555E+03  0.52365091978E+03  0.00000000000E+00 0. -1.
          1    1    1    2  502    0 -0.82407818335E+02  0.24409381424E+02  0.53178076277E+03  0.53868139570E+03  0.00000000000E+00 0. -1.
         22    1    3    3    0    0  0.55578946529E+01 -0.10339355508E+03  0.67303134424E+02  0.12349424816E+03  0.00000000000E+00 0.  1.
         22    1    3    3    0    0  0.59048975580E+02  0.95456212461E+01  0.86140972134E+02  0.10487214827E+03  0.00000000000E+00 0.  1.
</event>
<event>
 7    1  0.6146596E-006  0.9966870E+02  0.7818608E-02  0.1373734E+00
          2   -1    0    0  502    0  0.00000000000E+00  0.00000000000E+00  0.17065948242E+04  0.17065948242E+04  0.00000000000E+00 0. -1.
          1   -1    0    0  501    0 -0.00000000000E+00 -0.00000000000E+00 -0.19821064299E+03  0.19821064299E+03  0.00000000000E+00 0. -1.
         25    2    1    2    0    0  0.37326850461E+02 -0.74165969595E+02 -0.60350298563E+02  0.16174413756E+03  0.12500049074E+03 0.  0.
          2    1    1    2  501    0 -0.16486390088E+02  0.11279304113E+03 -0.49468928399E+02  0.12426281046E+03  0.00000000000E+00 0. -1.
          1    1    1    2  502    0 -0.20840460373E+02 -0.38627071536E+02  0.16182034082E+04  0.16187985192E+04  0.00000000000E+00 0. -1.
         22    1    3    3    0    0  0.73274032989E+02 -0.13109501125E+02 -0.10643962829E+02  0.75194659883E+02  0.00000000000E+00 0. -1.
         22    1    3    3    0    0 -0.35947182527E+02 -0.61056468470E+02 -0.49706335733E+02  0.86549477675E+02  0.00000000000E+00 0. -1.
</event>
<event>
 7    1  0.6146596E-006  0.8762316E+02  0.7818608E-02  0.1424970E+00
          2   -1    0    0  502    0  0.00000000000E+00  0.00000000000E+00  0.42258712634E+04  0.42258712634E+04  0.00000000000E+00 0. -1.
          1   -1    0    0  501    0 -0.00000000000E+00 -0.00000000000E+00 -0.94854573704E+03  0.94854573704E+03  0.00000000000E+00 0. -1.
         25    2    1    2    0    0  0.93580342625E+02 -0.58146326686E+02  0.68155369687E+02  0.18002474511E+03  0.12500191439E+03 0.  0.
          2    1    1    2  501    0 -0.10228580152E+02  0.31646086672E+02 -0.89183481179E+03  0.89245472164E+03  0.00000000000E+00 0. -1.
          1    1    1    2  502    0 -0.83351762474E+02  0.26500240014E+02  0.41010049685E+04  0.41019375337E+04  0.00000000000E+00 0. -1.
         22    1    3    3    0    0  0.48114130299E+02 -0.18697816888E+02 -0.33746740477E+02  0.61671876764E+02  0.00000000000E+00 0.  1.
         22    1    3    3    0    0  0.45466212327E+02 -0.39448509798E+02  0.10190211016E+03  0.11835286834E+03  0.00000000000E+00 0.  1.
</event>
<event>
 7    1  0.6146596E-006  0.1557048E+03  0.7818608E-02  0.1291584E+00
          2   -1    0    0  502    0  0.00000000000E+00  0.00000000000E+00  0.21645481067E+04  0.21645481067E+04  0.00000000000E+00 0. -1.
          1   -1    0    0  501    0 -0.00000000000E+00 -0.00000000000E+00 -0.11907895922E+03  0.11907895922E+03  0.00000000000E+00 0. -1.
         25    2    1    2    0    0 -0.15023795713E+03 -0.11678964931E+03  0.31115180368E+03  0.38555487733E+03  0.12500341017E+03 0.  0.
          2    1    1    2  501    0  0.91977435514E+01  0.57004697035E+02 -0.68027333474E+02  0.89229210856E+02  0.00000000000E+00 0. -1.
          1    1    1    2  502    0  0.14104021358E+03  0.59784952274E+02  0.18023446773E+04  0.18088429777E+04  0.00000000000E+00 0. -1.
         22    1    3    3    0    0 -0.54560707122E+02 -0.11290154163E+03  0.22068732109E+03  0.25382380218E+03  0.00000000000E+00 0.  1.
         22    1    3    3    0    0 -0.95677250010E+02 -0.38881076770E+01  0.90464482591E+02  0.13173107515E+03  0.00000000000E+00 0.  1.
</event>
<event>
 7    1  0.6146596E-006  0.3653590E+02  0.7818608E-02  0.1547366E+00
          2   -1    0    0  502    0  0.00000000000E+00  0.00000000000E+00  0.26092616761E+03  0.26092616761E+03  0.00000000000E+00 0. -1.
          1   -1    0    0  501    0 -0.00000000000E+00 -0.00000000000E+00 -0.11683360025E+03  0.11683360025E+03  0.00000000000E+00 0. -1.
         25    2    1    2    0    0 -0.37797229847E+02 -0.54331171029E+01 -0.31423535474E+02  0.13442209947E+03  0.12499485148E+03 0.  0.
          2    1    1    2  501    0  0.19406356745E+02  0.33787460848E+02 -0.20776263365E+02  0.44157132064E+02  0.00000000000E+00 0. -1.
          1    1    1    2  502    0  0.18390873102E+02 -0.28354343745E+02  0.19629236621E+03  0.19918053633E+03  0.00000000000E+00 0. -1.
         22    1    3    3    0    0 -0.51864392567E+02 -0.55970795560E+02 -0.72146521498E+01  0.76646567944E+02  0.00000000000E+00 0.  1.
         22    1    3    3    0    0  0.14067162720E+02  0.50537678457E+02 -0.24208883324E+02  0.57775531522E+02  0.00000000000E+00 0.  1.
</event>
<event>
 7    1  0.6146596E-006  0.6510968E+02  0.7818608E-02  0.1440180E+00
          2   -1    0    0  502    0  0.00000000000E+00  0.00000000000E+00  0.61859829405E+03  0.61859829405E+03  0.00000000000E+00 0. -1.
          1   -1    0    0  501    0 -0.00000000000E+00 -0.00000000000E+00 -0.62793312695E+03  0.62793312695E+03  0.00000000000E+00 0. -1.
         25    2    1    2    0    0  0.22664302534E+02 -0.20116579208E+02  0.10467401816E+03  0.16583279735E+03  0.12500207690E+03 0.  0.
          2    1    1    2  501    0  0.12899209855E+02 -0.37757934272E+02 -0.59429484996E+03  0.59563278949E+03  0.00000000000E+00 0. -1.
          1    1    1    2  502    0 -0.35563512389E+02  0.57874513479E+02  0.48028599890E+03  0.48506583416E+03  0.00000000000E+00 0. -1.
         22    1    3    3    0    0 -0.20854240898E+02 -0.59837436435E+02  0.28370908535E+02  0.69428572027E+02  0.00000000000E+00 0.  1.
         22    1    3    3    0    0  0.43518543432E+02  0.39720857227E+02  0.76303109628E+02  0.96404225323E+02  0.00000000000E+00 0.  1.
</event>
<event>
 7    1  0.6146596E-006  0.1093977E+03  0.7818608E-02  0.1301234E+00
          2   -1    0    0  502    0  0.00000000000E+00  0.00000000000E+00  0.12962668925E+04  0.12962668925E+04  0.00000000000E+00 0. -1.
          1   -1    0    0  501    0 -0.00000000000E+00 -0.00000000000E+00 -0.82018865555E+03  0.82018865555E+03  0.00000000000E+00 0. -1.
         25    2    1    2    0    0 -0.16918298587E+02 -0.46604281425E+02  0.98186791786E+02  0.16650975306E+03  0.12500665546E+03 0.  0.
          2    1    1    2  501    0 -0.25875327345E+02  0.10838076148E+03 -0.78085490278E+03  0.78876504817E+03  0.00000000000E+00 0. -1.
          1    1    1    2  502    0  0.42793625931E+02 -0.61776480059E+02  0.11587463479E+04  0.11611807468E+04  0.00000000000E+00 0. -1.
         22    1    3    3    0    0  0.43427182023E+02 -0.26067527917E+02  0.14644486189E+01  0.50671301146E+02  0.00000000000E+00 0. -1.
         22    1    3    3    0    0 -0.60345480609E+02 -0.20536753508E+02  0.96722343167E+02  0.11583845192E+03  0.00000000000E+00 0. -1.
</event>
<event>
 7    1  0.6146596E-006  0.6346132E+02  0.7818608E-02  0.1509927E+00
          2   -1    0    0  502    0  0.00000000000E+00  0.00000000000E+00  0.25335378286E+04  0.25335378286E+04  0.00000000000E+00 0. -1.
          1   -1    0    0  501    0 -0.00000000000E+00 -0.00000000000E+00 -0.72553237170E+02  0.72553237170E+02  0.00000000000E+00 0. -1.
         25    2    1    2    0    0  0.48177167552E+02  0.70299204084E+02  0.47083684887E+03  0.49454476991E+03  0.12499669444E+03 0.  0.
          2    1    1    2  501    0 -0.57494691425E+01 -0.24248123109E+02 -0.57642592947E+02  0.62798856609E+02  0.00000000000E+00 0. -1.
          1    1    1    2  502    0 -0.42427698410E+02 -0.46051080975E+02  0.20477903355E+04  0.20487474393E+04  0.00000000000E+00 0. -1.
         22    1    3    3    0    0  0.56385077912E+01  0.98808633287E+02  0.33752918477E+03  0.35173980348E+03  0.00000000000E+00 0.  1.
         22    1    3    3    0    0  0.42538659761E+02 -0.28509429204E+02  0.13330766410E+03  0.14280496643E+03  0.00000000000E+00 0.  1.
</event>
<event>
 7    1  0.6146596E-006  0.1768392E+03  0.7818608E-02  0.1183393E+00
          2   -1    0    0  502    0  0.00000000000E+00  0.00000000000E+00  0.25797758068E+04  0.25797758068E+04  0.00000000000E+00 0. -1.
          1   -1    0    0  501    0 -0.00000000000E+00 -0.00000000000E+00 -0.22903098491E+04  0.22903098491E+04  0.00000000000E+00 0. -1.
         25    2    1    2    0    0  0.20022817485E+03 -0.20667556477E+03 -0.85721087561E+02  0.32523713988E+03  0.12499992490E+03 0.  0.
          2    1    1    2  501    0 -0.14857029587E+03  0.38832496438E+02 -0.20788610555E+04  0.20845249779E+04  0.00000000000E+00 0. -1.
          1    1    1    2  502    0 -0.51657878986E+02  0.16784306833E+03  0.24540481006E+04  0.24603235381E+04  0.00000000000E+00 0. -1.
         22    1    3    3    0    0 -0.65483691283E+01 -0.52262289570E+02  0.18805149379E+01  0.52704500622E+02  0.00000000000E+00 0. -1.
         22    1    3    3    0    0  0.20677654398E+03 -0.15441327520E+03 -0.87601602499E+02  0.27253263925E+03  0.00000000000E+00 0. -1.
</event>
<event>
 7    1  0.6146596E-006  0.8824904E+02  0.7818608E-02  0.1404054E+00
          2   -1    0    0  502    0  0.00000000000E+00  0.00000000000E+00  0.11613167656E+04  0.11613167656E+04  0.00000000000E+00 0. -1.
          1   -1    0    0  501    0 -0.00000000000E+00 -0.00000000000E+00 -0.47862427329E+02  0.47862427329E+02  0.00000000000E+00 0. -1.
         25    2    1    2    0    0  0.10360208283E+03  0.62202250537E+02  0.46959096806E+03  0.50074225417E+03  0.12499846514E+03 0.  0.
          2    1    1    2  501    0 -0.65859539196E+02 -0.53054462514E+02  0.24765973435E+02  0.88122689110E+02  0.00000000000E+00 0. -1.
          1    1    1    2  502    0 -0.37742543631E+02 -0.91477880229E+01  0.61909739673E+03  0.62031424960E+03  0.00000000000E+00 0. -1.
         22    1    3    3    0    0  0.11759812822E+03  0.20637679221E+02  0.25302595303E+03  0.27978092585E+03  0.00000000000E+00 0.  1.
         22    1    3    3    0    0 -0.13996045393E+02  0.41564571316E+02  0.21656501503E+03  0.22096132832E+03  0.00000000000E+00 0.  1.
</event>
<event>
 7    1  0.6146596E-006  0.1327037E+03  0.7818608E-02  0.1308705E+00
          2   -1    0    0  502    0  0.00000000000E+00  0.00000000000E+00  0.47485142461E+03  0.47485142461E+03  0.00000000000E+00 0. -1.
          1   -1    0    0  501    0 -0.00000000000E+00 -0.00000000000E+00 -0.32211340961E+03  0.32211340961E+03  0.00000000000E+00 0. -1.
         25    2    1    2    0    0  0.93385653256E+02  0.61662636729E+02  0.10080714060E+03  0.19572904827E+03  0.12499847894E+03 0.  0.
          2    1    1    2  501    0 -0.13453538923E+03 -0.20986722896E+02 -0.25490471571E+03  0.28899243517E+03  0.00000000000E+00 0. -1.
          1    1    1    2  502    0  0.41149735978E+02 -0.40675913832E+02  0.30683559012E+03  0.31224335078E+03  0.00000000000E+00 0. -1.
         22    1    3    3    0    0  0.94963784271E+02 -0.42400090415E+01  0.85949597422E+02  0.12815393594E+03  0.00000000000E+00 0. -1.
         22    1    3    3    0    0 -0.15781310147E+01  0.65902645770E+02  0.14857543177E+02  0.67575112329E+02  0.00000000000E+00 0. -1.
</event>
<event>
 7    1  0.6146596E-006  0.6589690E+02  0.7818608E-02  0.1496270E+00
          2   -1    0    0  502    0  0.00000000000E+00  0.00000000000E+00  0.21026971835E+04  0.21026971835E+04  0.00000000000E+00 0. -1.
          1   -1    0    0  501    0 -0.00000000000E+00 -0.00000000000E+00 -0.53923919436E+02  0.53923919436E+02  0.00000000000E+00 0. -1.
         25    2    1    2    0    0  0.21464945822E+02 -0.82291550207E+02  0.21152373207E+03  0.26000147879E+03  0.12500334640E+03 0.  0.
          2    1    1    2  501    0 -0.28090669020E+02  0.56788104722E+02  0.43225196945E+01  0.63503218032E+02  0.00000000000E+00 0. -1.
          1    1    1    2  502    0  0.66257231987E+01  0.25503445485E+02  0.18329270123E+04  0.18331164061E+04  0.00000000000E+00 0. -1.
         22    1    3    3    0    0  0.53590568532E+02 -0.94832039875E+02  0.19097905234E+03  0.21985918961E+03  0.00000000000E+00 0.  1.
         22    1    3    3    0    0 -0.32125622710E+02  0.12540489668E+02  0.20544679728E+02  0.40142289182E+02  0.00000000000E+00 0.  1.
</event>
<event>
 7    1  0.6146596E-006  0.1379729E+03  0.7818608E-02  0.1322089E+00
          2   -1    0    0  502    0  0.00000000000E+00  0.00000000000E+00  0.14313629045E+04  0.14313629045E+04  0.00000000000E+00 0. -1.
          1   -1    0    0  501    0 -0.00000000000E+00 -0.00000000000E+00 -0.11721813349E+04  0.11721813349E+04  0.00000000000E+00 0. -1.
         25    2    1    2    0    0  0.18659299767E+02  0.17348966398E+03 -0.55919741514E+03  0.59897096631E+03  0.12497054215E+03 0.  0.
          2    1    1    2  501    0 -0.20017159486E+02 -0.12417187909E+03 -0.58599099061E+03  0.59933695306E+03  0.00000000000E+00 0. -1.
          1    1    1    2  502    0  0.13578597182E+01 -0.49317784887E+02  0.14043699753E+04  0.14052363201E+04  0.00000000000E+00 0. -1.
         22    1    3    3    0    0  0.47587480719E+02  0.11308579603E+02 -0.10541237718E+03  0.11620766566E+03  0.00000000000E+00 0.  1.
         22    1    3    3    0    0 -0.28928180952E+02  0.16218108437E+03 -0.45378503796E+03  0.48276330065E+03  0.00000000000E+00 0.  1.
</event>
<event>
 7    1  0.6146596E-006  0.5389917E+02  0.7818608E-02  0.1487242E+00
          2   -1    0    0  502    0  0.00000000000E+00  0.00000000000E+00  0.73380569585E+03  0.73380569585E+03  0.00000000000E+00 0. -1.
          1   -1    0    0  501    0 -0.00000000000E+00 -0.00000000000E+00 -0.12376211083E+04  0.12376211083E+04  0.00000000000E+00 0. -1.
         25    2    1    2    0    0 -0.12018344610E+02 -0.25997315039E+02 -0.72523598672E+03  0.73648654721E+03  0.12499958715E+03 0.  0.
          2    1    1    2  501    0 -0.34258431843E+02 -0.17162147445E+01 -0.50517852883E+03  0.50634171420E+03  0.00000000000E+00 0. -1.
          1    1    1    2  502    0  0.46276776453E+02  0.27713529784E+02  0.72659910313E+03  0.72859854271E+03  0.00000000000E+00 0. -1.
         22    1    3    3    0    0 -0.24911984684E+02 -0.28861675405E+02 -0.72184374488E+03  0.72284991202E+03  0.00000000000E+00 0.  1.
         22    1    3    3    0    0  0.12893640074E+02  0.28643603657E+01 -0.33922418490E+01  0.13636635195E+02  0.00000000000E+00 0.  1.
</event>
<event>
 7    1  0.6146596E-006  0.3239211E+03  0.7818608E-02  0.1240608E+00
          2   -1    0    0  502    0  0.00000000000E+00  0.00000000000E+00  0.21930159556E+04  0.21930159556E+04  0.00000000000E+00 0. -1.
          1   -1    0    0  501    0 -0.00000000000E+00 -0.00000000000E+00 -0.98139713662E+03  0.98139713662E+03  0.00000000000E+00 0. -1.
         25    2    1    2    0    0 -0.12863740629E+03 -0.32639043029E+03  0.67033571856E+03  0.76684676632E+03  0.12500276854E+03 0.  0.
          2    1    1    2  501    0 -0.11071537424E+02  0.44224765943E+02 -0.91575881941E+03  0.91689291861E+03  0.00000000000E+00 0. -1.
          1    1    1    2  502    0  0.13970894371E+03  0.28216566435E+03  0.14570419198E+04  0.14906734073E+04  0.00000000000E+00 0. -1.
         22    1    3    3    0    0 -0.13988726701E+03 -0.32010341606E+03  0.59142193090E+03  0.68688757799E+03  0.00000000000E+00 0.  1.
         22    1    3    3    0    0  0.11249860725E+02 -0.62870142288E+01  0.78913787662E+02  0.79959188324E+02  0.00000000000E+00 0.  1.
</event>
<event>
 7    1  0.6146596E-006  0.4462678E+02  0.7818608E-02  0.1571079E+00
          2   -1    0    0  502    0  0.00000000000E+00  0.00000000000E+00  0.57270499620E+02  0.57270499620E+02  0.00000000000E+00 0. -1.
          1   -1    0    0  501    0 -0.00000000000E+00 -0.00000000000E+00 -0.66774972800E+03  0.66774972800E+03  0.00000000000E+00 0. -1.
         25    2    1    2    0    0 -0.21216541016E+02 -0.95542725017E+01 -0.45268349229E+02  0.13496449738E+03  0.12499906550E+03 0.  0.
          2    1    1    2  501    0  0.33918855407E+02  0.29685679189E+02 -0.56444260015E+03  0.56623950512E+03  0.00000000000E+00 0. -1.
          1    1    1    2  502    0 -0.12702314391E+02 -0.20131406687E+02 -0.76827900662E+00  0.23816225115E+02  0.00000000000E+00 0. -1.
         22    1    3    3    0    0  0.40354854752E+02 -0.28165785689E+02 -0.50394889161E+02  0.70437707509E+02  0.00000000000E+00 0.  1.
         22    1    3    3    0    0 -0.61571395768E+02  0.18611513188E+02  0.51265399321E+01  0.64526789875E+02  0.00000000000E+00 0.  1.
</event>
<event>
 7    1  0.6146596E-006  0.3560111E+02  0.7818608E-02  0.1565193E+00
          2   -1    0    0  502    0  0.00000000000E+00  0.00000000000E+00  0.52581567020E+03  0.52581567020E+03  0.00000000000E+00 0. -1.
          1   -1    0    0  501    0 -0.00000000000E+00 -0.00000000000E+00 -0.28352091399E+03  0.28352091399E+03  0.00000000000E+00 0. -1.
         25    2    1    2    0    0 -0.50390143534E+02 -0.68344388294E+01  0.52889707755E+02  0.14494260891E+03  0.12500065029E+03 0.  0.
          2    1    1    2  501    0  0.25110034612E+02 -0.18111923212E+02 -0.23574182129E+03  0.23776619168E+03  0.00000000000E+00 0. -1.
          1    1    1    2  502    0  0.25280108923E+02  0.24946362041E+02  0.42514686975E+03  0.42662778360E+03  0.00000000000E+00 0. -1.
         22    1    3    3    0    0 -0.84547117281E+02 -0.23075942764E+02  0.10714018074E+02  0.88292153435E+02  0.00000000000E+00 0. -1.
         22    1    3    3    0    0  0.34156973746E+02  0.16241503934E+02  0.42175689680E+02  0.56650455475E+02  0.00000000000E+00 0. -1.
</event>
<event>
 7    1  0.6146596E-006  0.1084830E+03  0.7818608E-02  0.1322256E+00
          2   -1    0    0  502    0  0.00000000000E+00  0.00000000000E+00  0.13512453249E+04  0.13512453249E+04  0.00000000000E+00 0. -1.
          1   -1    0    0  501    0 -0.00000000000E+00 -0.00000000000E+00 -0.91017240507E+02  0.91017240507E+02  0.00000000000E+00 0. -1.
         25    2    1    2    0    0 -0.28899009130E+02  0.44283545363E+02  0.51430985702E+03  0.53191659784E+03  0.12499781165E+03 0.  0.
          2    1    1    2  501    0  0.82237484121E+02 -0.77155886975E+02 -0.41708167770E+02  0.12023146821E+03  0.00000000000E+00 0. -1.
          1    1    1    2  502    0 -0.53338474991E+02  0.32872341612E+02  0.78762639517E+03  0.79011449938E+03  0.00000000000E+00 0. -1.
         22    1    3    3    0    0  0.48166210287E+02  0.22257906988E+02  0.15687471704E+03  0.16560517831E+03  0.00000000000E+00 0. -1.
         22    1    3    3    0    0 -0.77065219417E+02  0.22025638375E+02  0.35743513998E+03  0.36631141953E+03  0.00000000000E+00 0. -1.
</event>
<event>
 7    1  0.6146596E-006  0.6734436E+02  0.7818608E-02  0.1421735E+00
          2   -1    0    0  502    0  0.00000000000E+00  0.00000000000E+00  0.54640983045E+03  0.54640983045E+03  0.00000000000E+00 0. -1.
          1   -1    0    0  501    0 -0.00000000000E+00 -0.00000000000E+00 -0.15411799494E+03  0.15411799494E+03  0.00000000000E+00 0. -1.
         25    2    1    2    0    0  0.58425532716E+02 -0.88621292911E+02  0.22737648020E+03  0.28034503371E+03  0.12500399092E+03 0.  0.
          2    1    1    2  501    0 -0.19351615690E+02  0.39913507293E+02 -0.12029719172E+03  0.12821461472E+03  0.00000000000E+00 0. -1.
          1    1    1    2  502    0 -0.39073917025E+02  0.48707785618E+02  0.28521254703E+03  0.29196817696E+03  0.00000000000E+00 0. -1.
         22    1    3    3    0    0 -0.31456207916E+02 -0.43415483160E+02  0.12870592794E+03  0.13942601293E+03  0.00000000000E+00 0. -1.
         22    1    3    3    0    0  0.89881740631E+02 -0.45205809751E+02  0.98670552263E+02  0.14091902078E+03  0.00000000000E+00 0. -1.
</event>
<event>
 7    1  0.6146596E-006  0.5762726E+02  0.7818608E-02  0.1474413E+00
          2   -1    0    0  502    0  0.00000000000E+00  0.00000000000E+00  0.16143083816E+04  0.16143083816E+04  0.00000000000E+00 0. -1.
          1   -1    0    0  501    0 -0.00000000000E+00 -0.00000000000E+00 -0.93724301716E+02  0.93724301716E+02  0.00000000000E+00 0. -1.
         25    2    1    2    0    0 -0.82783126692E+02  0.21945843790E+02  0.22448218323E+03  0.27083561404E+03  0.12500005247E+03 0.  0.
          2    1    1    2  501    0  0.48402892453E+02 -0.29124370614E+02 -0.58975243570E+02  0.81664853613E+02  0.00000000000E+00 0. -1.
          1    1    1    2  502    0  0.34380234238E+02  0.71785268237E+01  0.13550771403E+04  0.13555322157E+04  0.00000000000E+00 0. -1.
         22    1    3    3    0    0 -0.34073494347E+02 -0.26940916192E+02  0.87180783511E+01  0.44303734294E+02  0.00000000000E+00 0. -1.
         22    1    3    3    0    0 -0.48709632345E+02  0.48886759982E+02  0.21576410488E+03  0.22653187974E+03  0.00000000000E+00 0. -1.
</event>
<event>
 7    1  0.6146596E-006  0.8118725E+02  0.7818608E-02  0.1397475E+00
          2   -1    0    0  502    0  0.00000000000E+00  0.00000000000E+00  0.37615508301E+03  0.37615508301E+03  0.00000000000E+00 0. -1.
          1   -1    0    0  501    0 -0.00000000000E+00 -0.00000000000E+00 -0.10192182493E+04  0.10192182493E+04  0.00000000000E+00 0. -1.
         25    2    1    2    0    0 -0.72113017413E+02 -0.13213905995E+02  0.17124292210E+03  0.22433177161E+03  0.12500284313E+03 0.  0.
          2    1    1    2  501    0  0.59768831519E+01 -0.44064169416E+02 -0.98141109660E+03  0.98241799388E+03  0.00000000000E+00 0. -1.
          1    1    1    2  502    0  0.66136134261E+02  0.57278075412E+02  0.16710500824E+03  0.18862356681E+03  0.00000000000E+00 0. -1.
         22    1    3    3    0    0 -0.10625646007E+02  0.48494773670E+02  0.28889433064E+02  0.57439070058E+02  0.00000000000E+00 0. -1.
         22    1    3    3    0    0 -0.61487371406E+02 -0.61708679666E+02  0.14235348904E+03  0.16689270155E+03  0.00000000000E+00 0. -1.
</event>
<event>
 7    1  0.8972957E-006  0.1137682E+03  0.7818608E-02  0.1329188E+00
          2   -1    0    0  502    0  0.00000000000E+00  0.00000000000E+00  0.16970883002E+04  0.16970883002E+04  0.00000000000E+00 0. -1.
          1   -1    0    0  501    0 -0.00000000000E+00 -0.00000000000E+00 -0.11048759156E+04  0.11048759156E+04  0.00000000000E+00 0. -1.
         25    2    1    2    0    0  0.29004906039E+02  0.64867086927E+02 -0.20183121335E+03  0.24781312085E+03  0.12500592243E+03 0.  0.
          2    1    1    2  501    0 -0.26950285134E+02  0.49301696123E+02 -0.87720677096E+03  0.87900437663E+03  0.00000000000E+00 0. -1.
          1    1    1    2  502    0 -0.20546209047E+01 -0.11416878305E+03  0.16712503689E+04  0.16751467183E+04  0.00000000000E+00 0. -1.
         22    1    3    3    0    0  0.68502499768E+02  0.48833521092E+02 -0.70579010660E+02  0.10981212138E+03  0.00000000000E+00 0. -1.
         22    1    3    3    0    0 -0.39497593729E+02  0.16033565835E+02 -0.13125220269E+03  0.13800099947E+03  0.00000000000E+00 0. -1.
</event>
<event>
 7    1  0.6146596E-006  0.5978972E+02  0.7818608E-02  0.1537128E+00
          2   -1    0    0  502    0  0.00000000000E+00  0.00000000000E+00  0.15701735760E+04  0.15701735760E+04  0.00000000000E+00 0. -1.
          1   -1    0    0  501    0 -0.00000000000E+00 -0.00000000000E+00 -0.42025412711E+02  0.42025412711E+02  0.00000000000E+00 0. -1.
         25    2    1    2    0    0  0.51871732817E+02 -0.46931590966E+02  0.23643741411E+03  0.27644299660E+03  0.12499931475E+03 0.  0.
          2    1    1    2  501    0 -0.53086225494E+02  0.24894266113E+02  0.17269583058E+02  0.61123729611E+02  0.00000000000E+00 0. -1.
          1    1    1    2  502    0  0.12144926778E+01  0.22037324852E+02  0.12744411661E+04  0.12746322625E+04  0.00000000000E+00 0. -1.
         22    1    3    3    0    0  0.68798003305E+01 -0.47168064035E+01  0.20858486721E+03  0.20875159100E+03  0.00000000000E+00 0.  1.
         22    1    3    3    0    0  0.44991932486E+02 -0.42214784562E+02  0.27852546896E+02  0.67691405607E+02  0.00000000000E+00 0.  1.
</event>
<event>
 7    1  0.6146596E-006  0.9203972E+02  0.7818608E-02  0.1419118E+00
          2   -1    0    0  502    0  0.00000000000E+00  0.00000000000E+00  0.25069208214E+04  0.25069208214E+04  0.00000000000E+00 0. -1.
          1   -1    0    0  501    0 -0.00000000000E+00 -0.00000000000E+00 -0.62279954254E+03  0.62279954254E+03  0.00000000000E+00 0. -1.
         25    2    1    2    0    0  0.12056100673E+03  0.25579768783E+02  0.18257467394E+03  0.25327287621E+03  0.12499742936E+03 0.  0.
          2    1    1    2  501    0 -0.33111940947E+02  0.47068649295E+00 -0.58607349845E+03  0.58700832001E+03  0.00000000000E+00 0. -1.
          1    1    1    2  502    0 -0.87449065786E+02 -0.26050455276E+02  0.22876201033E+04  0.22894391677E+04  0.00000000000E+00 0. -1.
         22    1    3    3    0    0  0.52444649157E+02  0.16442034258E+02 -0.33388396062E+01  0.55062960015E+02  0.00000000000E+00 0. -1.
         22    1    3    3    0    0  0.68116357576E+02  0.91377345243E+01  0.18591351354E+03  0.19820991620E+03  0.00000000000E+00 0. -1.
</event>
<event>
 7    1  0.6146596E-006  0.1360164E+03  0.7818608E-02  0.1351790E+00
          2   -1    0    0  502    0  0.00000000000E+00  0.00000000000E+00  0.81731244405E+03  0.81731244405E+03  0.00000000000E+00 0. -1.
          1   -1    0    0  501    0 -0.00000000000E+00 -0.00000000000E+00 -0.10121328355E+03  0.10121328355E+03  0.00000000000E+00 0. -1.
         25    2    1    2    0    0 -0.44121625804E+01 -0.16876609077E+03  0.81250235986E+02  0.22522995509E+03  0.12500188499E+03 0.  0.
          2    1    1    2  501    0  0.13734180888E+02  0.36122215859E+02 -0.57244897388E+01  0.39066763188E+02  0.00000000000E+00 0. -1.
          1    1    1    2  502    0 -0.93220183073E+01  0.13264387491E+03  0.64057341426E+03  0.65422900931E+03  0.00000000000E+00 0. -1.
         22    1    3    3    0    0  0.13457386680E+02 -0.16014654659E+03  0.21341833713E+02  0.16212184155E+03  0.00000000000E+00 0.  1.
         22    1    3    3    0    0 -0.17869549260E+02 -0.86195441843E+01  0.59908402272E+02  0.63108113547E+02  0.00000000000E+00 0.  1.
</event>
<event>
 7    1  0.6146596E-006  0.4352625E+02  0.7818608E-02  0.1539738E+00
          2   -1    0    0  502    0  0.00000000000E+00  0.00000000000E+00  0.18228992950E+04  0.18228992950E+04  0.00000000000E+00 0. -1.
          1   -1    0    0  501    0 -0.00000000000E+00 -0.00000000000E+00 -0.12371739455E+02  0.12371739455E+02  0.00000000000E+00 0. -1.
         25    2    1    2    0    0  0.25087472440E+02  0.59763577352E+01  0.13844860806E+04  0.13903567015E+04  0.12499980768E+03 0.  0.
          2    1    1    2  501    0  0.29713290616E+02 -0.23441968926E+01  0.21720433720E+02  0.36880240500E+02  0.00000000000E+00 0. -1.
          1    1    1    2  502    0 -0.54800763056E+02 -0.36321608427E+01  0.40432104120E+03  0.40803409242E+03  0.00000000000E+00 0. -1.
         22    1    3    3    0    0  0.56156755369E+02 -0.22431246300E+02  0.11817323349E+04  0.11832785189E+04  0.00000000000E+00 0.  1.
         22    1    3    3    0    0 -0.31069282929E+02  0.28407604036E+02  0.20275374575E+03  0.20707818263E+03  0.00000000000E+00 0.  1.
</event>
<event>
 7    1  0.6146596E-006  0.6215282E+02  0.7818608E-02  0.1424692E+00
          2   -1    0    0  502    0  0.00000000000E+00  0.00000000000E+00  0.35191507938E+04  0.35191507938E+04  0.00000000000E+00 0. -1.
          1   -1    0    0  501    0 -0.00000000000E+00 -0.00000000000E+00 -0.27230915788E+03  0.27230915788E+03  0.00000000000E+00 0. -1.
         25    2    1    2    0    0  0.30705167725E+02 -0.13334012591E+02  0.68774810998E+02  0.14654792598E+03  0.12500286702E+03 0.  0.
          2    1    1    2  501    0 -0.58925872837E+02 -0.24234231576E+02 -0.22890972271E+03  0.23761148462E+03  0.00000000000E+00 0. -1.
          1    1    1    2  502    0  0.28220705112E+02  0.37568244167E+02  0.34069765476E+04  0.34073005411E+04  0.00000000000E+00 0. -1.
         22    1    3    3    0    0 -0.48333252248E+02 -0.87738528366E+01  0.35805839632E+02  0.60787679000E+02  0.00000000000E+00 0.  1.
         22    1    3    3    0    0  0.79038419973E+02 -0.45601597545E+01  0.32968971366E+02  0.85760246978E+02  0.00000000000E+00 0.  1.
</event>
<event>
 7    1  0.6146596E-006  0.9495107E+02  0.7818608E-02  0.1330457E+00
          2   -1    0    0  502    0  0.00000000000E+00  0.00000000000E+00  0.26944545357E+04  0.26944545357E+04  0.00000000000E+00 0. -1.
          1   -1    0    0  501    0 -0.00000000000E+00 -0.00000000000E+00 -0.32419384524E+03  0.32419384524E+03  0.00000000000E+00 0. -1.
         25    2    1    2    0    0  0.43430623076E+02 -0.99894038887E+02  0.49331538901E+02  0.17298352875E+03  0.12499864985E+03 0.  0.
          2    1    1    2  501    0 -0.66141356878E+02  0.75821867822E+01 -0.25725444062E+03  0.26572921530E+03  0.00000000000E+00 0. -1.
          1    1    1    2  502    0  0.22710733801E+02  0.92311852105E+02  0.25781835922E+04  0.25799356369E+04  0.00000000000E+00 0. -1.
         22    1    3    3    0    0  0.90818527901E+01 -0.11569300765E+03  0.70492360915E+01  0.11626282208E+03  0.00000000000E+00 0.  1.
         22    1    3    3    0    0  0.34348770286E+02  0.15798968763E+02  0.42282302810E+02  0.56720706669E+02  0.00000000000E+00 0.  1.
</event>
<event>
 7    1  0.6146596E-006  0.1180227E+03  0.7818608E-02  0.1380464E+00
          2   -1    0    0  502    0  0.00000000000E+00  0.00000000000E+00  0.84542286422E+03  0.84542286422E+03  0.00000000000E+00 0. -1.
          1   -1    0    0  501    0 -0.00000000000E+00 -0.00000000000E+00 -0.22315284508E+03  0.22315284508E+03  0.00000000000E+00 0. -1.
         25    2    1    2    0    0 -0.64691287357E+02  0.62859915468E+02 -0.15116887761E+02  0.15488884563E+03  0.12500281026E+03 0.  0.
          2    1    1    2  501    0 -0.34914363848E+02  0.33733742184E+01 -0.13122021163E+03  0.13582759807E+03  0.00000000000E+00 0. -1.
          1    1    1    2  502    0  0.99605651205E+02 -0.66233289686E+02  0.76860711853E+03  0.77785926560E+03  0.00000000000E+00 0. -1.
         22    1    3    3    0    0 -0.19103425646E+02  0.69384292206E+02 -0.57642529708E+02  0.92205108902E+02  0.00000000000E+00 0.  1.
         22    1    3    3    0    0 -0.45587861711E+02 -0.65243767384E+01  0.42525641948E+02  0.62683736729E+02  0.00000000000E+00 0.  1.
</event>
<event>
 7    1  0.6146596E-006  0.1023071E+03  0.7818608E-02  0.1324082E+00
          2   -1    0    0  502    0  0.00000000000E+00  0.00000000000E+00  0.42714744930E+03  0.42714744930E+03  0.00000000000E+00 0. -1.
          1   -1    0    0  501    0 -0.00000000000E+00 -0.00000000000E+00 -0.42449208397E+03  0.42449208397E+03  0.00000000000E+00 0. -1.
         25    2    1    2    0    0 -0.40099200150E+02  0.10974577850E+03  0.13547677936E+02  0.17164145375E+03  0.12500066926E+03 0.  0.
          2    1    1    2  501    0  0.64588633625E+02 -0.10060716814E+02 -0.33433101197E+03  0.34066132035E+03  0.00000000000E+00 0. -1.
          1    1    1    2  502    0 -0.24489433475E+02 -0.99685061691E+02  0.32343869937E+03  0.33933675917E+03  0.00000000000E+00 0. -1.
         22    1    3    3    0    0 -0.75904210126E+01  0.22064445760E+02  0.62053914175E+02  0.66295871081E+02  0.00000000000E+00 0. -1.
         22    1    3    3    0    0 -0.32508779137E+02  0.87681332745E+02 -0.48506236240E+02  0.10534558267E+03  0.00000000000E+00 0. -1.
</event>
<event>
 7    1  0.6146596E-006  0.7090781E+02  0.7818608E-02  0.1373784E+00
          2   -1    0    0  502    0  0.00000000000E+00  0.00000000000E+00  0.42110592679E+03  0.42110592679E+03  0.00000000000E+00 0. -1.
          1   -1    0    0  501    0 -0.00000000000E+00 -0.00000000000E+00 -0.22314311202E+03  0.22314311202E+03  0.00000000000E+00 0. -1.
         25    2    1    2    0    0  0.98467302636E+02 -0.68828888633E+02  0.53647717108E+02  0.18148406203E+03  0.12500064649E+03 0.  0.
          2    1    1    2  501    0 -0.32063995183E+02  0.52676064680E+02 -0.14917738821E+03  0.16142106656E+03  0.00000000000E+00 0. -1.
          1    1    1    2  502    0 -0.66403307453E+02  0.16152823953E+02  0.29349248587E+03  0.30134391021E+03  0.00000000000E+00 0. -1.
         22    1    3    3    0    0 -0.29622101201E+02 -0.62032924766E+01  0.14898783267E+02  0.33733121112E+02  0.00000000000E+00 0. -1.
         22    1    3    3    0    0  0.12808940384E+03 -0.62625596157E+02  0.38748933841E+02  0.14775094092E+03  0.00000000000E+00 0. -1.
</event>
<event>
 7    1  0.6146596E-006  0.1060541E+03  0.7818608E-02  0.1289330E+00
          2   -1    0    0  502    0  0.00000000000E+00  0.00000000000E+00  0.52565702751E+03  0.52565702751E+03  0.00000000000E+00 0. -1.
          1   -1    0    0  501    0 -0.00000000000E+00 -0.00000000000E+00 -0.73825207759E+03  0.73825207759E+03  0.00000000000E+00 0. -1.
         25    2    1    2    0    0  0.42866740644E+02  0.76018738562E+02  0.20741602110E+03  0.25741931350E+03  0.12500756412E+03 0.  0.
          2    1    1    2  501    0  0.77482038829E+02 -0.38638147098E+02 -0.69690734589E+03  0.70226506499E+03  0.00000000000E+00 0. -1.
          1    1    1    2  502    0 -0.12034877947E+03 -0.37380591464E+02  0.27689627470E+03  0.30422472661E+03  0.00000000000E+00 0. -1.
         22    1    3    3    0    0 -0.10184064133E+02 -0.21255426213E+02  0.10128218646E+03  0.10398841089E+03  0.00000000000E+00 0.  1.
         22    1    3    3    0    0  0.53050804777E+02  0.97274164776E+02  0.10613383465E+03  0.15343090261E+03  0.00000000000E+00 0.  1.
</event>
<event>
 7    1  0.6146596E-006  0.1144036E+03  0.7818608E-02  0.1321090E+00
          2   -1    0    0  502    0  0.00000000000E+00  0.00000000000E+00  0.88517391931E+03  0.88517391931E+03  0.00000000000E+00 0. -1.
          1   -1    0    0  501    0 -0.00000000000E+00 -0.00000000000E+00 -0.47405479633E+03  0.47405479633E+03  0.00000000000E+00 0. -1.
         25    2    1    2    0    0  0.56546713748E+02  0.17581287569E+02  0.39795847358E+02  0.14391425972E+03  0.12498388766E+03 0.  0.
          2    1    1    2  501    0  0.55807425704E+02  0.22124571776E+02 -0.41535049104E+03  0.41966652934E+03  0.00000000000E+00 0. -1.
          1    1    1    2  502    0 -0.11235413945E+03 -0.39705859345E+02  0.78667376666E+03  0.79564792658E+03  0.00000000000E+00 0. -1.
         22    1    3    3    0    0  0.23995816359E+01 -0.34020066077E+02  0.57680476441E+02  0.67008658025E+02  0.00000000000E+00 0.  1.
         22    1    3    3    0    0  0.54147132112E+02  0.51601353646E+02 -0.17884629083E+02  0.76905601691E+02  0.00000000000E+00 0.  1.
</event>
<event>
 7    1  0.6146596E-006  0.5020011E+02  0.7818608E-02  0.1551757E+00
          2   -1    0    0  502    0  0.00000000000E+00  0.00000000000E+00  0.36334626656E+03  0.36334626656E+03  0.00000000000E+00 0. -1.
          1   -1    0    0  501    0 -0.00000000000E+00 -0.00000000000E+00 -0.79395997828E+03  0.79395997828E+03  0.00000000000E+00 0. -1.
         25    2    1    2    0    0  0.54344818181E+02 -0.44953748814E+02 -0.25782169985E+03  0.29508116484E+03  0.12500666435E+03 0.  0.
          2    1    1    2  501    0 -0.31657719181E+02  0.37396224254E+02 -0.51593177427E+03  0.51825310850E+03  0.00000000000E+00 0. -1.
          1    1    1    2  502    0 -0.22687099001E+02  0.75575245602E+01  0.34313976240E+03  0.34397197150E+03  0.00000000000E+00 0. -1.
         22    1    3    3    0    0  0.10228146316E+02  0.42400081449E+02 -0.57873061577E+02  0.72468428576E+02  0.00000000000E+00 0. -1.
         22    1    3    3    0    0  0.44116671866E+02 -0.87353830262E+02 -0.19994863827E+03  0.22261273626E+03  0.00000000000E+00 0. -1.
</event>
<event>
 7    1  0.6146596E-006  0.5961164E+02  0.7818608E-02  0.1454798E+00
          2   -1    0    0  502    0  0.00000000000E+00  0.00000000000E+00  0.14822654503E+04  0.14822654503E+04  0.00000000000E+00 0. -1.
          1   -1    0    0  501    0 -0.00000000000E+00 -0.00000000000E+00 -0.13990395861E+03  0.13990395861E+03  0.00000000000E+00 0. -1.
         25    2    1    2    0    0 -0.31106629897E+02 -0.51682226613E+02  0.29401772711E+03  0.32513008739E+03  0.12499789957E+03 0.  0.
          2    1    1    2  501    0  0.55917266055E+02  0.21441459798E+02 -0.11678990780E+03  0.13124922630E+03  0.00000000000E+00 0. -1.
          1    1    1    2  502    0 -0.24810636158E+02  0.30240766815E+02  0.11651336724E+04  0.11657900952E+04  0.00000000000E+00 0. -1.
         22    1    3    3    0    0 -0.23651523849E+02 -0.45854032571E+01  0.27120105373E+03  0.27226904350E+03  0.00000000000E+00 0. -1.
         22    1    3    3    0    0 -0.74551060478E+01 -0.47096823356E+02  0.22816673378E+02  0.52861043884E+02  0.00000000000E+00 0. -1.
</event>
<event>
 7    1  0.6146596E-006  0.4163300E+02  0.7818608E-02  0.1582145E+00
          2   -1    0    0  502    0  0.00000000000E+00  0.00000000000E+00  0.88609336591E+03  0.88609336591E+03  0.00000000000E+00 0. -1.
          1   -1    0    0  501    0 -0.00000000000E+00 -0.00000000000E+00 -0.19846268498E+03  0.19846268498E+03  0.00000000000E+00 0. -1.
         25    2    1    2    0    0 -0.20314703098E+02  0.58830686053E+02 -0.25930790340E+02  0.14202325346E+03  0.12499784739E+03 0.  0.
          2    1    1    2  501    0  0.56888610892E+01 -0.40025738136E+02 -0.11073914213E+03  0.11788799961E+03  0.00000000000E+00 0. -1.
          1    1    1    2  502    0  0.14625842008E+02 -0.18804947917E+02  0.82430061340E+03  0.82464479782E+03  0.00000000000E+00 0. -1.
         22    1    3    3    0    0  0.11156211208E+02 -0.36481138723E+02  0.78012552825E+00  0.38156822809E+02  0.00000000000E+00 0.  1.
         22    1    3    3    0    0 -0.31470914306E+02  0.95311824776E+02 -0.26710915868E+02  0.10386643065E+03  0.00000000000E+00 0.  1.
</event>
<event>
 7    1  0.6146596E-006  0.1091301E+03  0.7818608E-02  0.1401613E+00
          2   -1    0    0  502    0  0.00000000000E+00  0.00000000000E+00  0.61572480719E+03  0.61572480719E+03  0.00000000000E+00 0. -1.
          1   -1    0    0  501    0 -0.00000000000E+00 -0.00000000000E+00 -0.84722928089E+03  0.84722928089E+03  0.00000000000E+00 0. -1.
         25    2    1    2    0    0 -0.76606794573E+02  0.26430140282E+02  0.56702912788E+02  0.15938290059E+03  0.12498214029E+03 0.  0.
          2    1    1    2  501    0  0.98038259403E+02 -0.50213324770E+02 -0.79156720352E+03  0.79919429176E+03  0.00000000000E+00 0. -1.
          1    1    1    2  502    0 -0.21431464830E+02  0.23783184489E+02  0.50335981703E+03  0.50437689573E+03  0.00000000000E+00 0. -1.
         22    1    3    3    0    0  0.80080012304E+01  0.29229050415E+01 -0.32860481027E+02  0.33948235166E+02  0.00000000000E+00 0.  1.
         22    1    3    3    0    0 -0.84614795804E+02  0.23507235240E+02  0.89563393815E+02  0.12543466542E+03  0.00000000000E+00 0.  1.
</event>
<event>
 7    1  0.6146596E-006  0.5144515E+02  0.7818608E-02  0.1464988E+00
          2   -1    0    0  502    0  0.00000000000E+00  0.00000000000E+00  0.70215258683E+03  0.70215258683E+03  0.00000000000E+00 0. -1.
          1   -1    0    0  501    0 -0.00000000000E+00 -0.00000000000E+00 -0.59563840528E+03  0.59563840528E+03  0.00000000000E+00 0. -1.
         25    2    1    2    0    0 -0.57177306620E+02  0.71262146096E+02  0.94773419648E+02  0.18153586877E+03  0.12500293084E+03 0.  0.
          2    1    1    2  501    0  0.31609553310E+02 -0.27794078655E+02 -0.55032461256E+03  0.55193192865E+03  0.00000000000E+00 0. -1.
          1    1    1    2  502    0  0.25567753310E+02 -0.43468067441E+02  0.56206537446E+03  0.56432319469E+03  0.00000000000E+00 0. -1.
         22    1    3    3    0    0 -0.36833009129E+02  0.23613304443E+02 -0.25455605908E+02  0.50618638665E+02  0.00000000000E+00 0. -1.
         22    1    3    3    0    0 -0.20344297491E+02  0.47648841653E+02  0.12022902556E+03  0.13091723010E+03  0.00000000000E+00 0. -1.
</event>
<event>
 7    1  0.6146596E-006  0.1152835E+03  0.7818608E-02  0.1319521E+00
          2   -1    0    0  502    0  0.00000000000E+00  0.00000000000E+00  0.77383417622E+03  0.77383417622E+03  0.00000000000E+00 0. -1.
          1   -1    0    0  501    0 -0.00000000000E+00 -0.00000000000E+00 -0.15161425133E+04  0.15161425133E+04  0.00000000000E+00 0. -1.
         25    2    1    2    0    0  0.47920794081E+02  0.79415606993E+02 -0.28148342647E+02  0.15817833576E+03  0.12499926228E+03 0.  0.
          2    1    1    2  501    0 -0.47217432883E+02  0.37689744330E+02 -0.14174943559E+04  0.14187812558E+04  0.00000000000E+00 0. -1.
          1    1    1    2  502    0 -0.70336119859E+00 -0.11710535132E+03  0.70333436144E+03  0.71301709798E+03  0.00000000000E+00 0. -1.
         22    1    3    3    0    0  0.89059548732E+02  0.69674851176E+02 -0.24844451779E+02  0.11577320455E+03  0.00000000000E+00 0. -1.
         22    1    3    3    0    0 -0.41138754650E+02  0.97407558170E+01 -0.33038908673E+01  0.42405131210E+02  0.00000000000E+00 0. -1.
</event>
<event>
 7    1  0.6146596E-006  0.2890401E+03  0.7818608E-02  0.1284831E+00
          2   -1    0    0  502    0  0.00000000000E+00  0.00000000000E+00  0.10689871289E+04  0.10689871289E+04  0.00000000000E+00 0. -1.
          1   -1    0    0  501    0 -0.00000000000E+00 -0.00000000000E+00 -0.77794295187E+03  0.77794295187E+03  0.00000000000E+00 0. -1.
         25    2    1    2    0    0 -0.24567538672E+03  0.10257637407E+03 -0.46144471726E+03  0.54720560970E+03  0.12499777614E+03 0.  0.
          2    1    1    2  501    0 -0.11737135683E+02  0.30993994199E+02 -0.25202056883E+03  0.25419039153E+03  0.00000000000E+00 0. -1.
          1    1    1    2  502    0  0.25741252241E+03 -0.13357036826E+03  0.10045094631E+04  0.10455340796E+04  0.00000000000E+00 0. -1.
         22    1    3    3    0    0 -0.91223720709E+02  0.99289174349E+02 -0.16647203775E+03  0.21422662466E+03  0.00000000000E+00 0. -1.
         22    1    3    3    0    0 -0.15445166601E+03  0.32871997164E+01 -0.29497267951E+03  0.33297898504E+03  0.00000000000E+00 0. -1.
</event>
<event>
 7    1  0.6146596E-006  0.1356745E+03  0.7818608E-02  0.1378708E+00
          2   -1    0    0  502    0  0.00000000000E+00  0.00000000000E+00  0.32338983282E+04  0.32338983282E+04  0.00000000000E+00 0. -1.
          1   -1    0    0  501    0 -0.00000000000E+00 -0.00000000000E+00 -0.58524716919E+02  0.58524716919E+02  0.00000000000E+00 0. -1.
         25    2    1    2    0    0  0.72925002643E+02 -0.14057397931E+03  0.68027275368E+03  0.70955922856E+03  0.12499671903E+03 0.  0.
          2    1    1    2  501    0 -0.26618711087E+02  0.15797990314E+02 -0.36448322225E+02  0.47818536896E+02  0.00000000000E+00 0. -1.
          1    1    1    2  502    0 -0.46306291556E+02  0.12477598899E+03  0.25315491798E+04  0.25350452797E+04  0.00000000000E+00 0. -1.
         22    1    3    3    0    0  0.10378012534E+03 -0.76682349511E+02  0.39240535410E+03  0.41307681982E+03  0.00000000000E+00 0. -1.
         22    1    3    3    0    0 -0.30855122697E+02 -0.63891629797E+02  0.28786739958E+03  0.29648240874E+03  0.00000000000E+00 0. -1.
</event>
<event>
 7    1  0.6146596E-006  0.1220036E+03  0.7818608E-02  0.1433912E+00
          2   -1    0    0  502    0  0.00000000000E+00  0.00000000000E+00  0.92564142099E+03  0.92564142099E+03  0.00000000000E+00 0. -1.
          1   -1    0    0  501    0 -0.00000000000E+00 -0.00000000000E+00 -0.12027597613E+03  0.12027597613E+03  0.00000000000E+00 0. -1.
         25    2    1    2    0    0 -0.11230303122E+03  0.43891813860E+02  0.67510267889E+02  0.18635154253E+03  0.12502319379E+03 0.  0.
          2    1    1    2  501    0  0.10489421307E+03 -0.64945565994E+02  0.20165074746E+01  0.12338877088E+03  0.00000000000E+00 0. -1.
          1    1    1    2  502    0  0.74088181557E+01  0.21053752135E+02  0.73583866949E+03  0.73617708371E+03  0.00000000000E+00 0. -1.
         22    1    3    3    0    0 -0.13715633953E+03  0.39309008898E+02  0.73327833164E+02  0.16041829936E+03  0.00000000000E+00 0. -1.
         22    1    3    3    0    0  0.24853308310E+02  0.45828049612E+01 -0.58175652745E+01  0.25933243163E+02  0.00000000000E+00 0. -1.
</event>
<event>
 7    1  0.6146596E-006  0.3103487E+02  0.7818608E-02  0.1597981E+00
          2   -1    0    0  502    0  0.00000000000E+00  0.00000000000E+00  0.79057309411E+03  0.79057309411E+03  0.00000000000E+00 0. -1.
          1   -1    0    0  501    0 -0.00000000000E+00 -0.00000000000E+00 -0.46343554567E+03  0.46343554567E+03  0.00000000000E+00 0. -1.
         25    2    1    2    0    0  0.41386875717E+02 -0.48569705846E+01 -0.48361266915E+02  0.14036197475E+03  0.12500483260E+03 0.  0.
          2    1    1    2  501    0 -0.16730240436E+02  0.23710080419E+02 -0.36817931226E+03  0.36932109991E+03  0.00000000000E+00 0. -1.
          1    1    1    2  502    0 -0.24656635281E+02 -0.18853109835E+02  0.74367812761E+03  0.74432556513E+03  0.00000000000E+00 0. -1.
         22    1    3    3    0    0  0.62826095647E+02  0.16373143479E+02 -0.75642834778E+02  0.99684685759E+02  0.00000000000E+00 0. -1.
         22    1    3    3    0    0 -0.21439219930E+02 -0.21230114064E+02  0.27281567862E+02  0.40677288988E+02  0.00000000000E+00 0. -1.
</event>
<event>
 7    1  0.6146596E-006  0.4032385E+02  0.7818608E-02  0.1506043E+00
          2   -1    0    0  502    0  0.00000000000E+00  0.00000000000E+00  0.17497243678E+04  0.17497243678E+04  0.00000000000E+00 0. -1.
          1   -1    0    0  501    0 -0.00000000000E+00 -0.00000000000E+00 -0.13142463802E+04  0.13142463802E+04  0.00000000000E+00 0. -1.
         25    2    1    2    0    0 -0.24288590209E+01  0.57385465101E+02 -0.25723869089E+01  0.13758948534E+03  0.12500103335E+03 0.  0.
          2    1    1    2  501    0  0.29455424688E+02 -0.27533694867E+02 -0.12435976777E+04  0.12442511444E+04  0.00000000000E+00 0. -1.
          1    1    1    2  502    0 -0.27026565667E+02 -0.29851770234E+02  0.16816480522E+04  0.16821301183E+04  0.00000000000E+00 0. -1.
         22    1    3    3    0    0 -0.33470432895E+02 -0.23456691947E+02  0.23508700772E+02  0.47150241646E+02  0.00000000000E+00 0. -1.
         22    1    3    3    0    0  0.31041573874E+02  0.80842157048E+02 -0.26081087681E+02  0.90439243691E+02  0.00000000000E+00 0. -1.
</event>
<event>
 7    1  0.6146596E-006  0.7613839E+02  0.7818608E-02  0.1378274E+00
          2   -1    0    0  502    0  0.00000000000E+00  0.00000000000E+00  0.12704735860E+04  0.12704735860E+04  0.00000000000E+00 0. -1.
          1   -1    0    0  501    0 -0.00000000000E+00 -0.00000000000E+00 -0.55786086700E+03  0.55786086700E+03  0.00000000000E+00 0. -1.
         25    2    1    2    0    0  0.44194546693E+02  0.87097714102E+02  0.28763002554E+03  0.32847336089E+03  0.12499818983E+03 0.  0.
          2    1    1    2  501    0 -0.54031340922E+02 -0.12027413610E+02 -0.53451868752E+03  0.53737721555E+03  0.00000000000E+00 0. -1.
          1    1    1    2  502    0  0.98367942286E+01 -0.75070300492E+02  0.95950138103E+03  0.96248387661E+03  0.00000000000E+00 0. -1.
         22    1    3    3    0    0  0.92698544665E+01  0.90935617728E+02  0.91911449006E+02  0.12962612095E+03  0.00000000000E+00 0.  1.
         22    1    3    3    0    0  0.34924692227E+02 -0.38379036262E+01  0.19571857653E+03  0.19884723994E+03  0.00000000000E+00 0.  1.
</event>
<event>
 7    1  0.6146596E-006  0.4447662E+02  0.7818608E-02  0.1598336E+00
          2   -1    0    0  502    0  0.00000000000E+00  0.00000000000E+00  0.16676010071E+03  0.16676010071E+03  0.00000000000E+00 0. -1.
          1   -1    0    0  501    0 -0.00000000000E+00 -0.00000000000E+00 -0.19252821588E+03  0.19252821588E+03  0.00000000000E+00 0. -1.
         25    2    1    2    0    0  0.14625427487E+00 -0.30571895515E+02 -0.24715594538E+02  0.13103544349E+03  0.12499905861E+03 0.  0.
          2    1    1    2  501    0 -0.16371880987E+02 -0.11841117250E+02 -0.10915001964E+03  0.11100440231E+03  0.00000000000E+00 0. -1.
          1    1    1    2  502    0  0.16225626712E+02  0.42413012766E+02  0.10809749900E+03  0.11724847079E+03  0.00000000000E+00 0. -1.
         22    1    3    3    0    0 -0.61122198181E+02 -0.22837098946E+02 -0.23235766571E+02  0.69262955806E+02  0.00000000000E+00 0. -1.
         22    1    3    3    0    0  0.61268452456E+02 -0.77347965694E+01 -0.14798279673E+01  0.61772487688E+02  0.00000000000E+00 0. -1.
</event>
<event>
 7    1  0.6146596E-006  0.4504395E+02  0.7818608E-02  0.1498579E+00
          2   -1    0    0  502    0  0.00000000000E+00  0.00000000000E+00  0.31384763791E+03  0.31384763791E+03  0.00000000000E+00 0. -1.
          1   -1    0    0  501    0 -0.00000000000E+00 -0.00000000000E+00 -0.10278925427E+03  0.10278925427E+03  0.00000000000E+00 0. -1.
         25    2    1    2    0    0  0.11007080269E+02  0.96115457125E+01  0.41073680124E+02  0.13238357057E+03  0.12499929973E+03 0.  0.
          2    1    1    2  501    0 -0.12646870797E+02 -0.47515927149E+02 -0.44573558190E+02  0.66366473188E+02  0.00000000000E+00 0. -1.
          1    1    1    2  502    0  0.16397905271E+01  0.37904381436E+02  0.21455826171E+03  0.21788684842E+03  0.00000000000E+00 0. -1.
         22    1    3    3    0    0  0.60638987453E+02  0.35090831518E+02  0.22993138577E+02  0.73736949202E+02  0.00000000000E+00 0. -1.
         22    1    3    3    0    0 -0.49631907184E+02 -0.25479285806E+02  0.18080541547E+02  0.58646621373E+02  0.00000000000E+00 0. -1.
</event>
<event>
 7    1  0.6146596E-006  0.3686658E+02  0.7818608E-02  0.1554464E+00
          2   -1    0    0  502    0  0.00000000000E+00  0.00000000000E+00  0.18755065070E+04  0.18755065070E+04  0.00000000000E+00 0. -1.
          1   -1    0    0  501    0 -0.00000000000E+00 -0.00000000000E+00 -0.82977183226E+03  0.82977183226E+03  0.00000000000E+00 0. -1.
         25    2    1    2    0    0 -0.54427320600E+02  0.38733455047E+02  0.19732249517E+03  0.24294855950E+03  0.12500088678E+03 0.  0.
          2    1    1    2  501    0  0.34009039638E+02 -0.14091116306E+02 -0.80638416941E+03  0.80722401043E+03  0.00000000000E+00 0. -1.
          1    1    1    2  502    0  0.20418280962E+02 -0.24642338741E+02  0.16547963490E+04  0.16551057694E+04  0.00000000000E+00 0. -1.
         22    1    3    3    0    0 -0.78834247352E+02  0.36502286283E+02  0.65325064651E+02  0.10869507593E+03  0.00000000000E+00 0. -1.
         22    1    3    3    0    0  0.24406926752E+02  0.22311687640E+01  0.13199743052E+03  0.13425348357E+03  0.00000000000E+00 0. -1.
</event>
<event>
 7    1  0.6146596E-006  0.1280451E+03  0.7818608E-02  0.1418673E+00
          2   -1    0    0  502    0  0.00000000000E+00  0.00000000000E+00  0.13757393242E+04  0.13757393242E+04  0.00000000000E+00 0. -1.
          1   -1    0    0  501    0 -0.00000000000E+00 -0.00000000000E+00 -0.57578331706E+03  0.57578331706E+03  0.00000000000E+00 0. -1.
         25    2    1    2    0    0 -0.11191540426E+03  0.87952041759E+02  0.51732910316E+03  0.55092229792E+03  0.12500143205E+03 0.  0.
          2    1    1    2  501    0  0.88439027975E+02 -0.92351890110E+02 -0.55150104371E+03  0.56613049246E+03  0.00000000000E+00 0. -1.
          1    1    1    2  502    0  0.23476376282E+02  0.43998483513E+01  0.83412794772E+03  0.83446985091E+03  0.00000000000E+00 0. -1.
         22    1    3    3    0    0 -0.42718088157E+02  0.35023133165E+02  0.40509520570E+03  0.40884420089E+03  0.00000000000E+00 0.  1.
         22    1    3    3    0    0 -0.69197316100E+02  0.52928908594E+02  0.11223389745E+03  0.14207809704E+03  0.00000000000E+00 0.  1.
</event>
<event>
 7    1  0.6146596E-006  0.5497025E+02  0.7818608E-02  0.1458643E+00
          2   -1    0    0  502    0  0.00000000000E+00  0.00000000000E+00  0.21715511908E+04  0.21715511908E+04  0.00000000000E+00 0. -1.
          1   -1    0    0  501    0 -0.00000000000E+00 -0.00000000000E+00 -0.21182005108E+03  0.21182005108E+03  0.00000000000E+00 0. -1.
         25    2    1    2    0    0  0.71785529198E+02  0.12203170046E+02  0.11546710053E+02  0.14513210327E+03  0.12501168475E+03 0.  0.
          2    1    1    2  501    0 -0.32146830385E+02  0.25840517824E+02 -0.14172654704E+03  0.14760611505E+03  0.00000000000E+00 0. -1.
          1    1    1    2  502    0 -0.39638698813E+02 -0.38043687870E+02  0.20899109767E+04  0.20906330235E+04  0.00000000000E+00 0. -1.
         22    1    3    3    0    0  0.10476722019E+03  0.26850587957E+02  0.37880477394E+01  0.10821956295E+03  0.00000000000E+00 0. -1.
         22    1    3    3    0    0 -0.32981690987E+02 -0.14647417912E+02  0.77586623135E+01  0.36912540318E+02  0.00000000000E+00 0. -1.
</event>
<event>
 7    1  0.8041512E-006  0.7163689E+02  0.7818608E-02  0.1405287E+00
          2   -1    0    0  502    0  0.00000000000E+00  0.00000000000E+00  0.17680362618E+04  0.17680362618E+04  0.00000000000E+00 0. -1.
          1   -1    0    0  501    0 -0.00000000000E+00 -0.00000000000E+00 -0.19922648869E+04  0.19922648869E+04  0.00000000000E+00 0. -1.
         25    2    1    2    0    0 -0.81253383912E+02 -0.63129957143E+02 -0.23567882178E+03  0.28593555236E+03  0.12500851644E+03 0.  0.
          2    1    1    2  501    0  0.11787180671E+02  0.45889758788E+02 -0.17303985012E+04  0.17310470185E+04  0.00000000000E+00 0. -1.
          1    1    1    2  502    0  0.69466203241E+02  0.17240198355E+02  0.17418486978E+04  0.17433185779E+04  0.00000000000E+00 0. -1.
         22    1    3    3    0    0 -0.10607922760E+03 -0.74644079285E+02 -0.21697034542E+03  0.25278582218E+03  0.00000000000E+00 0.  1.
         22    1    3    3    0    0  0.24825843691E+02  0.11514122142E+02 -0.18708476357E+02  0.33149730184E+02  0.00000000000E+00 0.  1.
</event>
<event>
 7    1  0.6146596E-006  0.3676756E+02  0.7818608E-02  0.1587094E+00
          2   -1    0    0  502    0  0.00000000000E+00  0.00000000000E+00  0.52329577926E+03  0.52329577926E+03  0.00000000000E+00 0. -1.
          1   -1    0    0  501    0 -0.00000000000E+00 -0.00000000000E+00 -0.20197166398E+03  0.20197166398E+03  0.00000000000E+00 0. -1.
         25    2    1    2    0    0  0.20004696683E+02  0.30908194440E+02  0.44092432385E+02  0.13756699938E+03  0.12500012940E+03 0.  0.
          2    1    1    2  501    0  0.55443281459E+01 -0.36568878206E+02 -0.15262766331E+03  0.15704529931E+03  0.00000000000E+00 0. -1.
          1    1    1    2  502    0 -0.25549024829E+02  0.56606837660E+01  0.42985934620E+03  0.43065514455E+03  0.00000000000E+00 0. -1.
         22    1    3    3    0    0 -0.96086728904E+01  0.28201368738E+02 -0.39135793901E+02  0.49185914220E+02  0.00000000000E+00 0.  1.
         22    1    3    3    0    0  0.29613369574E+02  0.27068257017E+01  0.83228226286E+02  0.88381085157E+02  0.00000000000E+00 0.  1.
</event>
<event>
 7    1  0.6146596E-006  0.1195099E+03  0.7818608E-02  0.1354308E+00
          2   -1    0    0  502    0  0.00000000000E+00  0.00000000000E+00  0.14297232328E+04  0.14297232328E+04  0.00000000000E+00 0. -1.
          1   -1    0    0  501    0 -0.00000000000E+00 -0.00000000000E+00 -0.52411748437E+03  0.52411748437E+03  0.00000000000E+00 0. -1.
         25    2    1    2    0    0  0.14310489633E+03  0.31110384449E+02 -0.64870715700E+02  0.20317383753E+03  0.12499812449E+03 0.  0.
          2    1    1    2  501    0 -0.36747242744E+02  0.22430642510E+02 -0.38629181178E+03  0.38868349260E+03  0.00000000000E+00 0. -1.
          1    1    1    2  502    0 -0.10635765359E+03 -0.53541026958E+02  0.13567682759E+04  0.13619833870E+04  0.00000000000E+00 0. -1.
         22    1    3    3    0    0  0.12920249535E+02  0.33950496819E+02  0.25751851601E+02  0.44527822125E+02  0.00000000000E+00 0.  1.
         22    1    3    3    0    0  0.13018464679E+03 -0.28401123707E+01 -0.90622567300E+02  0.15864601540E+03  0.00000000000E+00 0.  1.
</event>
<event>
 7    1  0.6146596E-006  0.9594869E+02  0.7818608E-02  0.1432739E+00
          2   -1    0    0  502    0  0.00000000000E+00  0.00000000000E+00  0.40397220227E+02  0.40397220227E+02  0.00000000000E+00 0. -1.
          1   -1    0    0  501    0 -0.00000000000E+00 -0.00000000000E+00 -0.25580009920E+04  0.25580009920E+04  0.00000000000E+00 0. -1.
         25    2    1    2    0    0  0.37130139510E+02 -0.59056551253E+02 -0.90868093911E+03  0.91988681209E+03  0.12499749782E+03 0.  0.
          2    1    1    2  501    0  0.98228858804E+01 -0.26894641635E+02 -0.15744073841E+04  0.15746677179E+04  0.00000000000E+00 0. -1.
          1    1    1    2  502    0 -0.46953025391E+02  0.85951192888E+02 -0.34515448650E+02  0.10384368227E+03  0.00000000000E+00 0. -1.
         22    1    3    3    0    0 -0.24056749195E+02  0.45853821811E+01 -0.41229503623E+02  0.47954404184E+02  0.00000000000E+00 0.  1.
         22    1    3    3    0    0  0.61186888705E+02 -0.63641933434E+02 -0.86745143548E+03  0.87193240791E+03  0.00000000000E+00 0.  1.
</event>
<event>
 7    1  0.6146596E-006  0.1464792E+03  0.7818608E-02  0.1220465E+00
          2   -1    0    0  502    0  0.00000000000E+00  0.00000000000E+00  0.46197156508E+04  0.46197156508E+04  0.00000000000E+00 0. -1.
          1   -1    0    0  501    0 -0.00000000000E+00 -0.00000000000E+00 -0.85655973707E+03  0.85655973707E+03  0.00000000000E+00 0. -1.
         25    2    1    2    0    0  0.21195833609E+03  0.42073871859E+02 -0.13195064179E+03  0.28236907618E+03  0.12499910551E+03 0.  0.
          2    1    1    2  501    0 -0.10810231852E+03  0.60948479653E+02 -0.64228145872E+03  0.65416076056E+03  0.00000000000E+00 0. -1.
          1    1    1    2  502    0 -0.10385601758E+03 -0.10302235151E+03  0.45373880143E+04  0.45397455512E+04  0.00000000000E+00 0. -1.
         22    1    3    3    0    0  0.15415007708E+03  0.85540553018E+02 -0.10494256223E+03  0.20516426063E+03  0.00000000000E+00 0. -1.
         22    1    3    3    0    0  0.57808259015E+02 -0.43466681159E+02 -0.27008079562E+02  0.77204815543E+02  0.00000000000E+00 0. -1.
</event>
<event>
 7    1  0.6146596E-006  0.1364787E+03  0.7818608E-02  0.1344540E+00
          2   -1    0    0  502    0  0.00000000000E+00  0.00000000000E+00  0.89134088056E+02  0.89134088056E+02  0.00000000000E+00 0. -1.
          1   -1    0    0  501    0 -0.00000000000E+00 -0.00000000000E+00 -0.59405544158E+03  0.59405544158E+03  0.00000000000E+00 0. -1.
         25    2    1    2    0    0  0.20156203397E+02 -0.16802151423E+03 -0.18419352318E+03  0.27962334885E+03  0.12499784582E+03 0.  0.
          2    1    1    2  501    0 -0.17916648439E+02  0.12710427916E+03 -0.33611710822E+03  0.35979329414E+03  0.00000000000E+00 0. -1.
          1    1    1    2  502    0 -0.22395549584E+01  0.40917235063E+02  0.15389277875E+02  0.43772886644E+02  0.00000000000E+00 0. -1.
         22    1    3    3    0    0  0.93037518883E+01 -0.56933615658E+02  0.71238680415E+01  0.58126980715E+02  0.00000000000E+00 0.  1.
         22    1    3    3    0    0  0.10852451509E+02 -0.11108789857E+03 -0.19131739122E+03  0.22149636813E+03  0.00000000000E+00 0.  1.
</event>
<event>
 7    1  0.6146596E-006  0.1226917E+03  0.7818608E-02  0.1338062E+00
          2   -1    0    0  502    0  0.00000000000E+00  0.00000000000E+00  0.35701063812E+03  0.35701063812E+03  0.00000000000E+00 0. -1.
          1   -1    0    0  501    0 -0.00000000000E+00 -0.00000000000E+00 -0.32746904298E+03  0.32746904298E+03  0.00000000000E+00 0. -1.
         25    2    1    2    0    0 -0.53906394899E+02 -0.14462055369E+03 -0.16365786115E+03  0.25735188649E+03  0.12500037601E+03 0.  0.
          2    1    1    2  501    0  0.36458863338E+02  0.99679444985E+02 -0.90425639151E+02  0.13943470402E+03  0.00000000000E+00 0. -1.
          1    1    1    2  502    0  0.17447531560E+02  0.44941108703E+02  0.28362509544E+03  0.28769309059E+03  0.00000000000E+00 0. -1.
         22    1    3    3    0    0 -0.36609831259E+02 -0.72715233926E+02 -0.41312957582E+01  0.81515965272E+02  0.00000000000E+00 0.  1.
         22    1    3    3    0    0 -0.17296563640E+02 -0.71905319762E+02 -0.15952656539E+03  0.17583592122E+03  0.00000000000E+00 0.  1.
</event>
<event>
 7    1  0.6146596E-006  0.1401579E+03  0.7818608E-02  0.1307106E+00
          2   -1    0    0  502    0  0.00000000000E+00  0.00000000000E+00  0.18630360670E+04  0.18630360670E+04  0.00000000000E+00 0. -1.
          1   -1    0    0  501    0 -0.00000000000E+00 -0.00000000000E+00 -0.21583263190E+04  0.21583263190E+04  0.00000000000E+00 0. -1.
         25    2    1    2    0    0 -0.17113468092E+03  0.60278466003E+02 -0.40240949009E+03  0.45878057191E+03  0.12500257186E+03 0.  0.
          2    1    1    2  501    0  0.11660077097E+03 -0.71045600062E+02 -0.17246113667E+04  0.17300079720E+04  0.00000000000E+00 0. -1.
          1    1    1    2  502    0  0.54533909950E+02  0.10767134059E+02  0.18317306047E+04  0.18325738421E+04  0.00000000000E+00 0. -1.
         22    1    3    3    0    0 -0.60531246668E+02  0.65732786936E+02 -0.27905125671E+03  0.29300927455E+03  0.00000000000E+00 0.  1.
         22    1    3    3    0    0 -0.11060343425E+03 -0.54543209330E+01 -0.12335823337E+03  0.16577129735E+03  0.00000000000E+00 0.  1.
</event>
<event>
 7    1  0.6146596E-006  0.7402970E+02  0.7818608E-02  0.1406916E+00
          2   -1    0    0  502    0  0.00000000000E+00  0.00000000000E+00  0.20793565273E+03  0.20793565273E+03  0.00000000000E+00 0. -1.
          1   -1    0    0  501    0 -0.00000000000E+00 -0.00000000000E+00 -0.24107883329E+03  0.24107883329E+03  0.00000000000E+00 0. -1.
         25    2    1    2    0    0 -0.99019139333E+02  0.43141009184E+01  0.39628495874E+01  0.15957461393E+03  0.12499980726E+03 0.  0.
          2    1    1    2  501    0  0.35236783182E+02  0.28413692903E+02 -0.14945935425E+03  0.15616359181E+03  0.00000000000E+00 0. -1.
          1    1    1    2  502    0  0.63782356151E+02 -0.32727793822E+02  0.11235332411E+03  0.13327628027E+03  0.00000000000E+00 0. -1.
         22    1    3    3    0    0 -0.53721134209E+02 -0.50339119696E+02 -0.31675389854E+02  0.80145602217E+02  0.00000000000E+00 0. -1.
         22    1    3    3    0    0 -0.45298005125E+02  0.54653220614E+02  0.35638239441E+02  0.79429011716E+02  0.00000000000E+00 0. -1.
</event>
<event>
 7    1  0.6146596E-006  0.5472178E+02  0.7818608E-02  0.1423365E+00
          2   -1    0    0  502    0  0.00000000000E+00  0.00000000000E+00  0.20766357107E+04  0.20766357107E+04  0.00000000000E+00 0. -1.
          1   -1    0    0  501    0 -0.00000000000E+00 -0.00000000000E+00 -0.19033238556E+03  0.19033238556E+03  0.00000000000E+00 0. -1.
         25    2    1    2    0    0 -0.11411540905E+02 -0.35045550016E+02  0.59331511925E+03  0.60746050292E+03  0.12500807188E+03 0.  0.
          2    1    1    2  501    0 -0.45981615651E+02  0.28145243887E+02 -0.17871500588E+03  0.18666953972E+03  0.00000000000E+00 0. -1.
          1    1    1    2  502    0  0.57393156556E+02  0.69003061295E+01  0.14717032118E+04  0.14728380537E+04  0.00000000000E+00 0. -1.
         22    1    3    3    0    0  0.27139302584E+02 -0.37113741771E+02  0.76845661011E+02  0.89550137852E+02  0.00000000000E+00 0. -1.
         22    1    3    3    0    0 -0.38550843489E+02  0.20681917552E+01  0.51646945824E+03  0.51791036506E+03  0.00000000000E+00 0. -1.
</event>
<event>
 7    1  0.6146596E-006  0.5341262E+02  0.7818608E-02  0.1478023E+00
          2   -1    0    0  502    0  0.00000000000E+00  0.00000000000E+00  0.10378292407E+04  0.10378292407E+04  0.00000000000E+00 0. -1.
          1   -1    0    0  501    0 -0.00000000000E+00 -0.00000000000E+00 -0.16340602591E+04  0.16340602591E+04  0.00000000000E+00 0. -1.
         25    2    1    2    0    0  0.86657476386E+02 -0.25024600130E+02  0.16802248681E+03  0.22801972092E+03  0.12500275290E+03 0.  0.
          2    1    1    2  501    0 -0.50739936791E+02  0.16419059904E+02 -0.16032119634E+04  0.16040987271E+04  0.00000000000E+00 0. -1.
          1    1    1    2  502    0 -0.35917539595E+02  0.86055402264E+01  0.83895845811E+03  0.83977105178E+03  0.00000000000E+00 0. -1.
         22    1    3    3    0    0 -0.11602528736E+02  0.32256344195E+02  0.69707165837E+02  0.77679980580E+02  0.00000000000E+00 0. -1.
         22    1    3    3    0    0  0.98260005121E+02 -0.57280944325E+02  0.98315320969E+02  0.15033974034E+03  0.00000000000E+00 0. -1.
</event>
<event>
 7    1  0.6146596E-006  0.3466775E+02  0.7818608E-02  0.1624454E+00
          2   -1    0    0  502    0  0.00000000000E+00  0.00000000000E+00  0.22019778985E+04  0.22019778985E+04  0.00000000000E+00 0. -1.
          1   -1    0    0  501    0 -0.00000000000E+00 -0.00000000000E+00 -0.12951584567E+03  0.12951584567E+03  0.00000000000E+00 0. -1.
         25    2    1    2    0    0 -0.21146400992E+02 -0.51174466231E+02  0.38183362062E+03  0.40557271114E+03  0.12500525556E+03 0.  0.
          2    1    1    2  501    0  0.13471827248E+02  0.17648968947E+02 -0.11643363110E+03  0.11853171173E+03  0.00000000000E+00 0. -1.
          1    1    1    2  502    0  0.76745737449E+01  0.33525497284E+02  0.18070620633E+04  0.18073893213E+04  0.00000000000E+00 0. -1.
         22    1    3    3    0    0  0.13122567006E+02 -0.73997936440E+02  0.12808037388E+03  0.14850076947E+03  0.00000000000E+00 0. -1.
         22    1    3    3    0    0 -0.34268967998E+02  0.22823470209E+02  0.25375324674E+03  0.25707194167E+03  0.00000000000E+00 0. -1.
</event>
<event>
 7    1  0.6146596E-006  0.1998415E+03  0.7818608E-02  0.1158329E+00
          2   -1    0    0  502    0  0.00000000000E+00  0.00000000000E+00  0.19631565769E+03  0.19631565769E+03  0.00000000000E+00 0. -1.
          1   -1    0    0  501    0 -0.00000000000E+00 -0.00000000000E+00 -0.23937041774E+04  0.23937041774E+04  0.00000000000E+00 0. -1.
         25    2    1    2    0    0  0.38027561024E+02 -0.19385240627E+02 -0.48343247018E+03  0.50115337602E+03  0.12500348042E+03 0.  0.
          2    1    1    2  501    0  0.17965880470E+03 -0.21337681241E+02 -0.18299459027E+04  0.18388677466E+04  0.00000000000E+00 0. -1.
          1    1    1    2  502    0 -0.21768636573E+03  0.40722921868E+02  0.11598985317E+03  0.24999871245E+03  0.00000000000E+00 0. -1.
         22    1    3    3    0    0 -0.18639121015E+02 -0.19016230977E+02 -0.39643038050E+03  0.39732364699E+03  0.00000000000E+00 0. -1.
         22    1    3    3    0    0  0.56666682039E+02 -0.36900964999E+00 -0.87002089677E+02  0.10382972903E+03  0.00000000000E+00 0. -1.
</event>
<event>
 7    1  0.6146596E-006  0.8108272E+02  0.7818608E-02  0.1368513E+00
          2   -1    0    0  502    0  0.00000000000E+00  0.00000000000E+00  0.10216529304E+03  0.10216529304E+03  0.00000000000E+00 0. -1.
          1   -1    0    0  501    0 -0.00000000000E+00 -0.00000000000E+00 -0.10240205847E+04  0.10240205847E+04  0.00000000000E+00 0. -1.
         25    2    1    2    0    0 -0.93456911859E+02 -0.82855033835E+02 -0.13891051984E+03  0.22476191537E+03  0.12499053992E+03 0.  0.
          2    1    1    2  501    0  0.38777479480E+02  0.69319360785E+02 -0.82644485785E+03  0.83025295529E+03  0.00000000000E+00 0. -1.
          1    1    1    2  502    0  0.54679432379E+02  0.13535673050E+02  0.43500086009E+02  0.71171007110E+02  0.00000000000E+00 0. -1.
         22    1    3    3    0    0  0.22760366981E+02 -0.23221662627E+02 -0.69754571644E+02  0.76960900369E+02  0.00000000000E+00 0. -1.
         22    1    3    3    0    0 -0.11621727884E+03 -0.59633371208E+02 -0.69155948198E+02  0.14780101500E+03  0.00000000000E+00 0. -1.
</event>
<event>
 7    1  0.6146596E-006  0.5401600E+02  0.7818608E-02  0.1482411E+00
          2   -1    0    0  502    0  0.00000000000E+00  0.00000000000E+00  0.32203305063E+04  0.32203305063E+04  0.00000000000E+00 0. -1.
          1   -1    0    0  501    0 -0.00000000000E+00 -0.00000000000E+00 -0.11970323081E+02  0.11970323081E+02  0.00000000000E+00 0. -1.
         25    2    1    2    0    0  0.20339782106E+02  0.79746002248E+02  0.58744660313E+03  0.60621191819E+03  0.12500498634E+03 0.  0.
          2    1    1    2  501    0  0.78243978250E+01 -0.34532045115E+02  0.13382107221E+03  0.13842601890E+03  0.00000000000E+00 0. -1.
          1    1    1    2  502    0 -0.28164179931E+02 -0.45213957132E+02  0.24870925079E+04  0.24876628923E+04  0.00000000000E+00 0. -1.
         22    1    3    3    0    0 -0.17682308826E+02  0.10492963220E+02  0.90844712283E+01  0.22478744183E+02  0.00000000000E+00 0.  1.
         22    1    3    3    0    0  0.38022090932E+02  0.69253039028E+02  0.57836213190E+03  0.58373317400E+03  0.00000000000E+00 0.  1.
</event>
<event>
 7    1  0.6146596E-006  0.5182677E+02  0.7818608E-02  0.1465742E+00
          2   -1    0    0  502    0  0.00000000000E+00  0.00000000000E+00  0.39570807493E+03  0.39570807493E+03  0.00000000000E+00 0. -1.
          1   -1    0    0  501    0 -0.00000000000E+00 -0.00000000000E+00 -0.62993639396E+03  0.62993639396E+03  0.00000000000E+00 0. -1.
         25    2    1    2    0    0  0.11628422118E+02  0.18436932062E+02  0.69435659819E+02  0.14464860024E+03  0.12500706393E+03 0.  0.
          2    1    1    2  501    0 -0.22932773331E+02  0.34653626020E+02 -0.58903972991E+03  0.59050367425E+03  0.00000000000E+00 0. -1.
          1    1    1    2  502    0  0.11304351213E+02 -0.53090558082E+02  0.28537575106E+03  0.29049219440E+03  0.00000000000E+00 0. -1.
         22    1    3    3    0    0  0.24523447431E+01  0.61675215157E+02 -0.72165108228E+00  0.61728169742E+02  0.00000000000E+00 0. -1.
         22    1    3    3    0    0  0.91760773752E+01 -0.43238283095E+02  0.70157310901E+02  0.82920430497E+02  0.00000000000E+00 0. -1.
</event>
<event>
 7    1  0.6146596E-006  0.7486381E+02  0.7818608E-02  0.1384355E+00
          2   -1    0    0  502    0  0.00000000000E+00  0.00000000000E+00  0.34760389732E+03  0.34760389732E+03  0.00000000000E+00 0. -1.
          1   -1    0    0  501    0 -0.00000000000E+00 -0.00000000000E+00 -0.66383903421E+03  0.66383903421E+03  0.00000000000E+00 0. -1.
         25    2    1    2    0    0  0.26629765694E+02 -0.34824786617E+02  0.55970233549E+01  0.13258812904E+03  0.12500550031E+03 0.  0.
          2    1    1    2  501    0  0.76697325802E+01  0.75984727062E+02 -0.59530459917E+03  0.60018336310E+03  0.00000000000E+00 0. -1.
          1    1    1    2  502    0 -0.34299498274E+02 -0.41159940445E+02  0.27347243892E+03  0.27867143939E+03  0.00000000000E+00 0. -1.
         22    1    3    3    0    0 -0.15700848510E+02  0.15740723723E+02 -0.44518384743E+02  0.49761165656E+02  0.00000000000E+00 0. -1.
         22    1    3    3    0    0  0.42330614204E+02 -0.50565510341E+02  0.50115408098E+02  0.82826963386E+02  0.00000000000E+00 0. -1.
</event>
<event>
 7    1  0.6146596E-006  0.5403651E+02  0.7818608E-02  0.1478974E+00
          2   -1    0    0  502    0  0.00000000000E+00  0.00000000000E+00  0.63760501622E+02  0.63760501622E+02  0.00000000000E+00 0. -1.
          1   -1    0    0  501    0 -0.00000000000E+00 -0.00000000000E+00 -0.25771136221E+03  0.25771136221E+03  0.00000000000E+00 0. -1.
         25    2    1    2    0    0 -0.56389480297E+02 -0.55977136856E+02 -0.90582998321E+02  0.17361882565E+03  0.12500001479E+03 0.  0.
          2    1    1    2  501    0  0.46252370661E+02  0.21159983253E+02 -0.99034471196E+02  0.11133217490E+03  0.00000000000E+00 0. -1.
          1    1    1    2  502    0  0.10137109636E+02  0.34817153603E+02 -0.43333910738E+01  0.36520863284E+02  0.00000000000E+00 0. -1.
         22    1    3    3    0    0 -0.61160326610E+01 -0.26743289614E+02 -0.10917098822E+03  0.11256515475E+03  0.00000000000E+00 0.  1.
         22    1    3    3    0    0 -0.50273447636E+02 -0.29233847242E+02  0.18587989901E+02  0.61053670899E+02  0.00000000000E+00 0.  1.
</event>
<event>
 7    1  0.6146596E-006  0.4917284E+02  0.7818608E-02  0.1503518E+00
          2   -1    0    0  502    0  0.00000000000E+00  0.00000000000E+00  0.73219264166E+03  0.73219264166E+03  0.00000000000E+00 0. -1.
          1   -1    0    0  501    0 -0.00000000000E+00 -0.00000000000E+00 -0.57469001120E+02  0.57469001120E+02  0.00000000000E+00 0. -1.
         25    2    1    2    0    0  0.52561312691E+02 -0.11778552600E+02  0.25153291405E+03  0.28599780602E+03  0.12499804920E+03 0.  0.
          2    1    1    2  501    0 -0.31652255455E+02  0.38075128868E+02 -0.24132076150E+02  0.55081192916E+02  0.00000000000E+00 0. -1.
          1    1    1    2  502    0 -0.20909057236E+02 -0.26296576269E+02  0.44732280264E+03  0.44858264385E+03  0.00000000000E+00 0. -1.
         22    1    3    3    0    0 -0.60568369513E+01  0.48717354884E+02  0.66173621271E+02  0.82395473740E+02  0.00000000000E+00 0. -1.
         22    1    3    3    0    0  0.58618149643E+02 -0.60495907483E+02  0.18535929278E+03  0.20360233228E+03  0.00000000000E+00 0. -1.
</event>
<event>
 7    1  0.6146596E-006  0.9765367E+02  0.7818608E-02  0.1302376E+00
          2   -1    0    0  502    0  0.00000000000E+00  0.00000000000E+00  0.20882899090E+04  0.20882899090E+04  0.00000000000E+00 0. -1.
          1   -1    0    0  501    0 -0.00000000000E+00 -0.00000000000E+00 -0.31514813546E+02  0.31514813546E+02  0.00000000000E+00 0. -1.
         25    2    1    2    0    0 -0.27934247388E+02  0.81376350499E+01  0.83983420013E+03  0.84958362761E+03  0.12499725322E+03 0.  0.
          2    1    1    2  501    0  0.10472810222E+03  0.24159636092E+02  0.89941781038E+02  0.14014702061E+03  0.00000000000E+00 0. -1.
          1    1    1    2  502    0 -0.76793854828E+02 -0.32297271142E+02  0.11269991143E+04  0.11300740743E+04  0.00000000000E+00 0. -1.
         22    1    3    3    0    0 -0.19996699570E+02  0.65660399451E+02  0.38673905412E+03  0.39278270332E+03  0.00000000000E+00 0. -1.
         22    1    3    3    0    0 -0.79375478175E+01 -0.57522764401E+02  0.45309514601E+03  0.45680092429E+03  0.00000000000E+00 0. -1.
</event>
<event>
 7    1  0.6146596E-006  0.8641626E+02  0.7818608E-02  0.1329729E+00
          2   -1    0    0  502    0  0.00000000000E+00  0.00000000000E+00  0.35040568013E+03  0.35040568013E+03  0.00000000000E+00 0. -1.
          1   -1    0    0  501    0 -0.00000000000E+00 -0.00000000000E+00 -0.27148146919E+03  0.27148146919E+03  0.00000000000E+00 0. -1.
         25    2    1    2    0    0  0.69070766971E+02  0.10426598601E+03 -0.45061144444E+02  0.18247504441E+03  0.12499787360E+03 0.  0.
          2    1    1    2  501    0 -0.76971585440E+02 -0.31071322389E+02 -0.14142256192E+03  0.16398290478E+03  0.00000000000E+00 0. -1.
          1    1    1    2  502    0  0.79008184690E+01 -0.73194663622E+02  0.26540791730E+03  0.27542920013E+03  0.00000000000E+00 0. -1.
         22    1    3    3    0    0  0.10171914326E+03  0.49910554253E+02 -0.32008362889E+02  0.11773862079E+03  0.00000000000E+00 0. -1.
         22    1    3    3    0    0 -0.32648376291E+02  0.54355431759E+02 -0.13052781555E+02  0.64736423615E+02  0.00000000000E+00 0. -1.
</event>
<event>
 7    1  0.6146596E-006  0.3095862E+03  0.7818608E-02  0.1115418E+00
          2   -1    0    0  502    0  0.00000000000E+00  0.00000000000E+00  0.17836555246E+04  0.17836555246E+04  0.00000000000E+00 0. -1.
          1   -1    0    0  501    0 -0.00000000000E+00 -0.00000000000E+00 -0.74151754185E+03  0.74151754185E+03  0.00000000000E+00 0. -1.
         25    2    1    2    0    0 -0.42249501338E+02 -0.27616480652E+03 -0.28495643787E+03  0.41818341027E+03  0.12500068968E+03 0.  0.
          2    1    1    2  501    0  0.19653072653E+03  0.35746225280E+01 -0.34971838430E+03  0.40117334497E+03  0.00000000000E+00 0. -1.
          1    1    1    2  502    0 -0.15428122519E+03  0.27259018399E+03  0.16768128049E+04  0.17058163112E+04  0.00000000000E+00 0. -1.
         22    1    3    3    0    0 -0.82645996839E+02 -0.14244530347E+03 -0.13215163049E+03  0.21115179070E+03  0.00000000000E+00 0.  1.
         22    1    3    3    0    0  0.40396495501E+02 -0.13371950305E+03 -0.15280480738E+03  0.20703161957E+03  0.00000000000E+00 0.  1.
</event>
<event>
 7    1  0.6146596E-006  0.8168543E+02  0.7818608E-02  0.1328203E+00
          2   -1    0    0  502    0  0.00000000000E+00  0.00000000000E+00  0.14963396123E+04  0.14963396123E+04  0.00000000000E+00 0. -1.
          1   -1    0    0  501    0 -0.00000000000E+00 -0.00000000000E+00 -0.17950296602E+04  0.17950296602E+04  0.00000000000E+00 0. -1.
         25    2    1    2    0    0  0.11839708780E+03  0.10043358180E+03 -0.39088326668E+02  0.20311922572E+03  0.12499899128E+03 0.  0.
          2    1    1    2  501    0 -0.72183865901E+02 -0.36437308117E+02 -0.16718465619E+04  0.16738007989E+04  0.00000000000E+00 0. -1.
          1    1    1    2  502    0 -0.46213221902E+02 -0.63996273684E+02  0.14122448406E+04  0.14144492478E+04  0.00000000000E+00 0. -1.
         22    1    3    3    0    0 -0.13925087668E+02  0.36017808603E+02 -0.40479183997E+02  0.55944212749E+02  0.00000000000E+00 0.  1.
         22    1    3    3    0    0  0.13232217547E+03  0.64415773198E+02  0.13908573291E+01  0.14717501297E+03  0.00000000000E+00 0.  1.
</event>
<event>
 7    1  0.6146596E-006  0.1027989E+03  0.7818608E-02  0.1395469E+00
          2   -1    0    0  502    0  0.00000000000E+00  0.00000000000E+00  0.33248078495E+04  0.33248078495E+04  0.00000000000E+00 0. -1.
          1   -1    0    0  501    0 -0.00000000000E+00 -0.00000000000E+00 -0.57823064139E+03  0.57823064139E+03  0.00000000000E+00 0. -1.
         25    2    1    2    0    0  0.94380819823E+02 -0.12926027154E+02  0.16084476762E+03  0.22487909956E+03  0.12499899528E+03 0.  0.
          2    1    1    2  501    0 -0.33194311191E+01 -0.35529582836E+02 -0.54478027030E+03  0.54594771983E+03  0.00000000000E+00 0. -1.
          1    1    1    2  502    0 -0.91061388704E+02  0.48455609990E+02  0.31305127108E+04  0.31322116715E+04  0.00000000000E+00 0. -1.
         22    1    3    3    0    0  0.10735167134E+02 -0.59082899964E+02  0.46976764315E+02  0.76242043959E+02  0.00000000000E+00 0.  1.
         22    1    3    3    0    0  0.83645652688E+02  0.46156872811E+02  0.11386800331E+03  0.14863705560E+03  0.00000000000E+00 0.  1.
</event>
<event>
 7    1  0.6146596E-006  0.7601393E+02  0.7818608E-02  0.1413121E+00
          2   -1    0    0  502    0  0.00000000000E+00  0.00000000000E+00  0.10425325958E+04  0.10425325958E+04  0.00000000000E+00 0. -1.
          1   -1    0    0  501    0 -0.00000000000E+00 -0.00000000000E+00 -0.17722085828E+03  0.17722085828E+03  0.00000000000E+00 0. -1.
         25    2    1    2    0    0 -0.66581068810E+02 -0.79850368353E+02  0.17200377109E+03  0.23668364136E+03  0.12499891508E+03 0.  0.
          2    1    1    2  501    0  0.25650252889E+02  0.70432841171E+02 -0.13461743666E+03  0.15407976779E+03  0.00000000000E+00 0. -1.
          1    1    1    2  502    0  0.40930815921E+02  0.94175271820E+01  0.82792540307E+03  0.82899004490E+03  0.00000000000E+00 0. -1.
         22    1    3    3    0    0 -0.42109850228E+02 -0.63700183268E+02  0.16090623259E+02  0.78037561414E+02  0.00000000000E+00 0. -1.
         22    1    3    3    0    0 -0.24471218582E+02 -0.16150185084E+02  0.15591314783E+03  0.15864607995E+03  0.00000000000E+00 0. -1.
</event>
<event>
 7    1  0.6146596E-006  0.9090661E+02  0.7818608E-02  0.1329514E+00
          2   -1    0    0  502    0  0.00000000000E+00  0.00000000000E+00  0.10314309734E+03  0.10314309734E+03  0.00000000000E+00 0. -1.
          1   -1    0    0  501    0 -0.00000000000E+00 -0.00000000000E+00 -0.95701547130E+03  0.95701547130E+03  0.00000000000E+00 0. -1.
         25    2    1    2    0    0  0.11094175885E+03 -0.34534244804E+02 -0.28984201291E+03  0.33635527991E+03  0.12500317579E+03 0.  0.
          2    1    1    2  501    0 -0.58196862221E+02 -0.39106483183E+02 -0.61559373339E+03  0.61957391520E+03  0.00000000000E+00 0. -1.
          1    1    1    2  502    0 -0.52744896629E+02  0.73640727987E+02  0.51563372344E+02  0.10422937353E+03  0.00000000000E+00 0. -1.
         22    1    3    3    0    0  0.10919149921E+01 -0.36028597878E+02 -0.16999506759E+03  0.17377449511E+03  0.00000000000E+00 0. -1.
         22    1    3    3    0    0  0.10984984386E+03  0.14943530738E+01 -0.11984694531E+03  0.16258078481E+03  0.00000000000E+00 0. -1.
</event>
<event>
 7    1  0.6146596E-006  0.7201785E+02  0.7818608E-02  0.1364154E+00
          2   -1    0    0  502    0  0.00000000000E+00  0.00000000000E+00  0.98164293962E+03  0.98164293962E+03  0.00000000000E+00 0. -1.
          1   -1    0    0  501    0 -0.00000000000E+00 -0.00000000000E+00 -0.30667436203E+03  0.30667436203E+03  0.00000000000E+00 0. -1.
         25    2    1    2    0    0  0.67877034728E+00  0.44730686294E+02  0.13225695105E+03  0.18739882120E+03  0.12500048824E+03 0.  0.
          2    1    1    2  501    0  0.65191177144E+02 -0.86557497632E+01 -0.27348153937E+03  0.28127737904E+03  0.00000000000E+00 0. -1.
          1    1    1    2  502    0 -0.65869947491E+02 -0.36074936530E+02  0.81619316592E+03  0.81964110141E+03  0.00000000000E+00 0. -1.
         22    1    3    3    0    0  0.13041047867E+01  0.71423923567E+02  0.14201614372E+03  0.15897063447E+03  0.00000000000E+00 0.  1.
         22    1    3    3    0    0 -0.62533443947E+00 -0.26693237274E+02 -0.97591926678E+01  0.28428186731E+02  0.00000000000E+00 0.  1.
</event>
<event>
 7    1  0.6146596E-006  0.5632572E+02  0.7818608E-02  0.1462447E+00
          2   -1    0    0  502    0  0.00000000000E+00  0.00000000000E+00  0.17523152833E+04  0.17523152833E+04  0.00000000000E+00 0. -1.
          1   -1    0    0  501    0 -0.00000000000E+00 -0.00000000000E+00 -0.15262539335E+02  0.15262539335E+02  0.00000000000E+00 0. -1.
         25    2    1    2    0    0 -0.33827928003E+02  0.50050681438E+01  0.45410129315E+03  0.47223030463E+03  0.12499638695E+03 0.  0.
          2    1    1    2  501    0 -0.16162232838E+02 -0.35665274600E+02  0.64288863174E+02  0.75274746833E+02  0.00000000000E+00 0. -1.
          1    1    1    2  502    0  0.49990160841E+02  0.30660206456E+02  0.12186625876E+04  0.12200727711E+04  0.00000000000E+00 0. -1.
         22    1    3    3    0    0 -0.68620507546E+02  0.40090936447E+02  0.25552603479E+03  0.26759972290E+03  0.00000000000E+00 0.  1.
         22    1    3    3    0    0  0.34792579543E+02 -0.35085868303E+02  0.19857525837E+03  0.20463058173E+03  0.00000000000E+00 0.  1.
</event>
<event>
 7    1  0.6146596E-006  0.1016702E+03  0.7818608E-02  0.1309473E+00
          2   -1    0    0  502    0  0.00000000000E+00  0.00000000000E+00  0.18841807658E+04  0.18841807658E+04  0.00000000000E+00 0. -1.
          1   -1    0    0  501    0 -0.00000000000E+00 -0.00000000000E+00 -0.15935915356E+03  0.15935915356E+03  0.00000000000E+00 0. -1.
         25    2    1    2    0    0  0.80241244495E+02  0.14240518093E+03  0.61331419659E+03  0.64691546007E+03  0.12500966309E+03 0.  0.
          2    1    1    2  501    0 -0.19657525308E+02 -0.98200813605E+02 -0.12369080682E+03  0.15915160629E+03  0.00000000000E+00 0. -1.
          1    1    1    2  502    0 -0.60583719186E+02 -0.44204367324E+02  0.12351982225E+04  0.12374728530E+04  0.00000000000E+00 0. -1.
         22    1    3    3    0    0  0.73494316465E+02  0.17382723210E+02  0.16530266162E+03  0.18173756782E+03  0.00000000000E+00 0.  1.
         22    1    3    3    0    0  0.67469280301E+01  0.12502245772E+03  0.44801153497E+03  0.46517789225E+03  0.00000000000E+00 0.  1.
</event>
<event>
 7    1  0.6146596E-006  0.5978617E+02  0.7818608E-02  0.1403643E+00
          2   -1    0    0  502    0  0.00000000000E+00  0.00000000000E+00  0.50973826838E+03  0.50973826838E+03  0.00000000000E+00 0. -1.
          1   -1    0    0  501    0 -0.00000000000E+00 -0.00000000000E+00 -0.19524351126E+04  0.19524351126E+04  0.00000000000E+00 0. -1.
         25    2    1    2    0    0  0.14491483394E+02 -0.36849903178E+02 -0.13379277518E+03  0.18732750695E+03  0.12499267864E+03 0.  0.
          2    1    1    2  501    0 -0.57226925053E+02 -0.56938528868E+01 -0.17895289975E+04  0.17904528404E+04  0.00000000000E+00 0. -1.
          1    1    1    2  502    0  0.42735441659E+02  0.42543756065E+02  0.48062492846E+03  0.48439303361E+03  0.00000000000E+00 0. -1.
         22    1    3    3    0    0 -0.40081003960E+02  0.25739563156E+02 -0.41503048296E+02  0.63178437839E+02  0.00000000000E+00 0.  1.
         22    1    3    3    0    0  0.54572487354E+02 -0.62589466334E+02 -0.92289726886E+02  0.12414906911E+03  0.00000000000E+00 0.  1.
</event>
<event>
 7    1  0.6146596E-006  0.9289383E+02  0.7818608E-02  0.1375312E+00
          2   -1    0    0  502    0  0.00000000000E+00  0.00000000000E+00  0.82355714943E+03  0.82355714943E+03  0.00000000000E+00 0. -1.
          1   -1    0    0  501    0 -0.00000000000E+00 -0.00000000000E+00 -0.92021671593E+03  0.92021671593E+03  0.00000000000E+00 0. -1.
         25    2    1    2    0    0 -0.63717496658E+02 -0.28343563537E+02  0.20768517723E+03  0.25223263441E+03  0.12499956819E+03 0.  0.
          2    1    1    2  501    0  0.92897674589E+02 -0.78408774857E+01 -0.89460692749E+03  0.89945150621E+03  0.00000000000E+00 0. -1.
          1    1    1    2  502    0 -0.29180177931E+02  0.36184441023E+02  0.59026218377E+03  0.59208972474E+03  0.00000000000E+00 0. -1.
         22    1    3    3    0    0 -0.58054025897E+02  0.83858205144E+01  0.20690736664E+03  0.21506103849E+03  0.00000000000E+00 0. -1.
         22    1    3    3    0    0 -0.56634707603E+01 -0.36729384052E+02  0.77781059281E+00  0.37171595919E+02  0.00000000000E+00 0. -1.
</event>
<event>
 7    1  0.6146596E-006  0.7019472E+02  0.7818608E-02  0.1485309E+00
          2   -1    0    0  502    0  0.00000000000E+00  0.00000000000E+00  0.79251601879E+02  0.79251601879E+02  0.00000000000E+00 0. -1.
          1   -1    0    0  501    0 -0.00000000000E+00 -0.00000000000E+00 -0.18066230425E+04  0.18066230425E+04  0.00000000000E+00 0. -1.
         25    2    1    2    0    0  0.41777127683E+02 -0.20876723081E+02 -0.31462836440E+03  0.34175660080E+03  0.12500160215E+03 0.  0.
          2    1    1    2  501    0 -0.58237562734E+02  0.41895910679E+02 -0.14748094536E+04  0.14765533534E+04  0.00000000000E+00 0. -1.
          1    1    1    2  502    0  0.16460435051E+02 -0.21019187599E+02  0.62066377330E+02  0.67564690218E+02  0.00000000000E+00 0. -1.
         22    1    3    3    0    0 -0.11336717590E-01 -0.21696044500E+00 -0.28813992813E+03  0.28814001003E+03  0.00000000000E+00 0.  1.
         22    1    3    3    0    0  0.41788464401E+02 -0.20659762636E+02 -0.26488436271E+02  0.53616590764E+02  0.00000000000E+00 0.  1.
</event>
<event>
 7    1  0.6146596E-006  0.7591128E+02  0.7818608E-02  0.1372797E+00
          2   -1    0    0  502    0  0.00000000000E+00  0.00000000000E+00  0.47735148701E+03  0.47735148701E+03  0.00000000000E+00 0. -1.
          1   -1    0    0  501    0 -0.00000000000E+00 -0.00000000000E+00 -0.56228788916E+03  0.56228788916E+03  0.00000000000E+00 0. -1.
         25    2    1    2    0    0 -0.20710466123E+02 -0.80121796462E+02  0.37769972166E+02  0.15459625008E+03  0.12500001626E+03 0.  0.
          2    1    1    2  501    0  0.56757648874E+02  0.12289009820E+02 -0.49830115413E+03  0.50167368944E+03  0.00000000000E+00 0. -1.
          1    1    1    2  502    0 -0.36047182751E+02  0.67832786642E+02  0.37559477983E+03  0.38336943665E+03  0.00000000000E+00 0. -1.
         22    1    3    3    0    0 -0.32064826047E+02 -0.58687435628E+01  0.66590425227E+02  0.74140946529E+02  0.00000000000E+00 0.  1.
         22    1    3    3    0    0  0.11354359924E+02 -0.74253052900E+02 -0.28820453060E+02  0.80455303547E+02  0.00000000000E+00 0.  1.
</event>
<event>
 7    1  0.6146596E-006  0.1682542E+03  0.7818608E-02  0.1268704E+00
          2   -1    0    0  502    0  0.00000000000E+00  0.00000000000E+00  0.15774601274E+04  0.15774601274E+04  0.00000000000E+00 0. -1.
          1   -1    0    0  501    0 -0.00000000000E+00 -0.00000000000E+00 -0.43116292129E+03  0.43116292129E+03  0.00000000000E+00 0. -1.
         25    2    1    2    0    0 -0.15659576409E+03 -0.10025741242E+03  0.58425866926E+03  0.62574508444E+03  0.12499974409E+03 0.  0.
          2    1    1    2  501    0  0.16454886051E+03  0.34305097447E+02 -0.39200623893E+03  0.42652322161E+03  0.00000000000E+00 0. -1.
          1    1    1    2  502    0 -0.79530964287E+01  0.65952314971E+02  0.95404477573E+03  0.95635474260E+03  0.00000000000E+00 0. -1.
         22    1    3    3    0    0 -0.69359310939E+02 -0.24563093363E+01  0.85851765996E+02  0.11039598360E+03  0.00000000000E+00 0. -1.
         22    1    3    3    0    0 -0.87236453147E+02 -0.97801103081E+02  0.49840690327E+03  0.51534910085E+03  0.00000000000E+00 0. -1.
</event>
<event>
 7    1  0.6146596E-006  0.6537199E+02  0.7818608E-02  0.1434802E+00
          2   -1    0    0  502    0  0.00000000000E+00  0.00000000000E+00  0.12496524352E+04  0.12496524352E+04  0.00000000000E+00 0. -1.
          1   -1    0    0  501    0 -0.00000000000E+00 -0.00000000000E+00 -0.77017995654E+02  0.77017995654E+02  0.00000000000E+00 0. -1.
         25    2    1    2    0    0 -0.46248525554E+02 -0.80774553935E+02  0.30153012262E+03  0.33942384621E+03  0.12499871140E+03 0.  0.
          2    1    1    2  501    0  0.37610050661E+02  0.17247460533E+02 -0.49441709178E+02  0.64470717477E+02  0.00000000000E+00 0. -1.
          1    1    1    2  502    0  0.86384748931E+01  0.63527093402E+02  0.92054602610E+03  0.92277586717E+03  0.00000000000E+00 0. -1.
         22    1    3    3    0    0  0.88844126614E-01 -0.58290881720E+02  0.27572031261E+03  0.28181470077E+03  0.00000000000E+00 0. -1.
         22    1    3    3    0    0 -0.46337369681E+02 -0.22483672216E+02  0.25809810003E+02  0.57609145434E+02  0.00000000000E+00 0. -1.
</event>
<event>
 7    1  0.6146596E-006  0.3426904E+02  0.7818608E-02  0.1590529E+00
          2   -1    0    0  502    0  0.00000000000E+00  0.00000000000E+00  0.20733108205E+03  0.20733108205E+03  0.00000000000E+00 0. -1.
          1   -1    0    0  501    0 -0.00000000000E+00 -0.00000000000E+00 -0.72526916382E+03  0.72526916382E+03  0.00000000000E+00 0. -1.
         25    2    1    2    0    0  0.29900355350E+02 -0.49477543530E+02 -0.25418300709E+03  0.28909489790E+03  0.12499920134E+03 0.  0.
          2    1    1    2  501    0 -0.22212939682E+02  0.16202209179E+02 -0.45167313384E+03  0.45250916688E+03  0.00000000000E+00 0. -1.
          1    1    1    2  502    0 -0.76874156682E+01  0.33275334351E+02  0.18791805916E+03  0.19099618110E+03  0.00000000000E+00 0. -1.
         22    1    3    3    0    0  0.78172690046E+02 -0.40372037298E+02 -0.17587550632E+03  0.19665468362E+03  0.00000000000E+00 0. -1.
         22    1    3    3    0    0 -0.48272334696E+02 -0.91055062312E+01 -0.78307500762E+02  0.92440214281E+02  0.00000000000E+00 0. -1.
</event>
<event>
 7    1  0.6146596E-006  0.1238444E+03  0.7818608E-02  0.1322696E+00
          2   -1    0    0  502    0  0.00000000000E+00  0.00000000000E+00  0.16233180996E+04  0.16233180996E+04  0.00000000000E+00 0. -1.
          1   -1    0    0  501    0 -0.00000000000E+00 -0.00000000000E+00 -0.90911817404E+03  0.90911817404E+03  0.00000000000E+00 0. -1.
         25    2    1    2    0    0  0.15232365274E+03  0.49227400484E+02 -0.73597369745E+03  0.76348429237E+03  0.12500059689E+03 0.  0.
          2    1    1    2  501    0 -0.28601351513E+02 -0.46589805305E+02 -0.15224461750E+03  0.16176239002E+03  0.00000000000E+00 0. -1.
          1    1    1    2  502    0 -0.12372230122E+03 -0.26375951791E+01  0.16024182405E+04  0.16071895913E+04  0.00000000000E+00 0. -1.
         22    1    3    3    0    0 -0.11407330269E+02  0.26326734411E+02 -0.47969667686E+02  0.55895555696E+02  0.00000000000E+00 0.  1.
         22    1    3    3    0    0  0.16373098300E+03  0.22900666073E+02 -0.68800402976E+03  0.70758873668E+03  0.00000000000E+00 0.  1.
</event>
<event>
 7    1  0.6146596E-006  0.1486975E+03  0.7818608E-02  0.1298771E+00
          2   -1    0    0  502    0  0.00000000000E+00  0.00000000000E+00  0.14674296783E+04  0.14674296783E+04  0.00000000000E+00 0. -1.
          1   -1    0    0  501    0 -0.00000000000E+00 -0.00000000000E+00 -0.79691649656E+02  0.79691649656E+02  0.00000000000E+00 0. -1.
         25    2    1    2    0    0 -0.73073761812E+02 -0.11682911308E+03  0.35183608296E+03  0.39799746789E+03  0.12499815539E+03 0.  0.
          2    1    1    2  501    0  0.12371060994E+03  0.91634993318E+02  0.50388095232E+02  0.16198841672E+03  0.00000000000E+00 0. -1.
          1    1    1    2  502    0 -0.50636848125E+02  0.25194119764E+02  0.98551385044E+03  0.98713544333E+03  0.00000000000E+00 0. -1.
         22    1    3    3    0    0  0.14607581539E+02  0.19210803678E+02  0.42219978551E+02  0.48630885302E+02  0.00000000000E+00 0. -1.
         22    1    3    3    0    0 -0.87681343351E+02 -0.13603991676E+03  0.30961610440E+03  0.34936658259E+03  0.00000000000E+00 0. -1.
</event>
<event>
 7    1  0.6146596E-006  0.1223066E+03  0.7818608E-02  0.1339272E+00
          2   -1    0    0  502    0  0.00000000000E+00  0.00000000000E+00  0.81927647738E+03  0.81927647738E+03  0.00000000000E+00 0. -1.
          1   -1    0    0  501    0 -0.00000000000E+00 -0.00000000000E+00 -0.84990625479E+03  0.84990625479E+03  0.00000000000E+00 0. -1.
         25    2    1    2    0    0  0.13539683626E+03 -0.98822406832E+02 -0.62579683790E+02  0.21826319137E+03  0.12499773008E+03 0.  0.
          2    1    1    2  501    0 -0.33323981966E+02  0.34346266305E+02 -0.70375200253E+03  0.70537722875E+03  0.00000000000E+00 0. -1.
          1    1    1    2  502    0 -0.10207285429E+03  0.64476140527E+02  0.73570190891E+03  0.74554231205E+03  0.00000000000E+00 0. -1.
         22    1    3    3    0    0  0.20894741449E+02 -0.35828127293E+01  0.34492945684E+02  0.40486912321E+02  0.00000000000E+00 0. -1.
         22    1    3    3    0    0  0.11450209481E+03 -0.95239594103E+02 -0.97072629474E+02  0.17777627905E+03  0.00000000000E+00 0. -1.
</event>
<event>
 7    1  0.6146596E-006  0.3654220E+02  0.7818608E-02  0.1579100E+00
          2   -1    0    0  502    0  0.00000000000E+00  0.00000000000E+00  0.12571949006E+04  0.12571949006E+04  0.00000000000E+00 0. -1.
          1   -1    0    0  501    0 -0.00000000000E+00 -0.00000000000E+00 -0.56526339368E+02  0.56526339368E+02  0.00000000000E+00 0. -1.
         25    2    1    2    0    0  0.10023355754E+00  0.99300021556E+01  0.76876766378E+02  0.14708405598E+03  0.12500026930E+03 0.  0.
          2    1    1    2  501    0  0.12871366971E+02  0.24479032425E+02 -0.12073198514E+02  0.30177097914E+02  0.00000000000E+00 0. -1.
          1    1    1    2  502    0 -0.12971600528E+02 -0.34409034581E+02  0.11358649934E+04  0.11364600861E+04  0.00000000000E+00 0. -1.
         22    1    3    3    0    0 -0.36246555465E+02  0.32469037183E+02  0.90029391711E+02  0.10233934986E+03  0.00000000000E+00 0.  1.
         22    1    3    3    0    0  0.36346789022E+02 -0.22539035028E+02 -0.13152625333E+02  0.44744706116E+02  0.00000000000E+00 0.  1.
</event>
<event>
 7    1  0.6146596E-006  0.1023559E+03  0.7818608E-02  0.1329142E+00
          2   -1    0    0  502    0  0.00000000000E+00  0.00000000000E+00  0.49922962016E+03  0.49922962016E+03  0.00000000000E+00 0. -1.
          1   -1    0    0  501    0 -0.00000000000E+00 -0.00000000000E+00 -0.55068347026E+03  0.55068347026E+03  0.00000000000E+00 0. -1.
         25    2    1    2    0    0 -0.11887648473E+03  0.11943918349E+02 -0.29950006175E+03  0.34583178105E+03  0.12500023194E+03 0.  0.
          2    1    1    2  501    0  0.79331356190E+02 -0.60313036452E+02 -0.21492960284E+03  0.23690897116E+03  0.00000000000E+00 0. -1.
          1    1    1    2  502    0  0.39545128541E+02  0.48369118103E+02  0.46297581450E+03  0.46717233821E+03  0.00000000000E+00 0. -1.
         22    1    3    3    0    0 -0.31946935334E+02 -0.25221942979E+02 -0.21566898551E+03  0.21947634131E+03  0.00000000000E+00 0. -1.
         22    1    3    3    0    0 -0.86929549398E+02  0.37165861328E+02 -0.83831076242E+02  0.12635543974E+03  0.00000000000E+00 0. -1.
</event>
<event>
 7    1  0.6146596E-006  0.6344349E+02  0.7818608E-02  0.1426662E+00
          2   -1    0    0  502    0  0.00000000000E+00  0.00000000000E+00  0.23285536166E+04  0.23285536166E+04  0.00000000000E+00 0. -1.
          1   -1    0    0  501    0 -0.00000000000E+00 -0.00000000000E+00 -0.92917246897E+01  0.92917246897E+01  0.00000000000E+00 0. -1.
         25    2    1    2    0    0  0.87966447547E+02 -0.38200693529E+02  0.16465964930E+04  0.16541168527E+04  0.12500065127E+03 0.  0.
          2    1    1    2  501    0 -0.36056963293E+02  0.27496009766E+02  0.11603377922E+03  0.12457918396E+03  0.00000000000E+00 0. -1.
          1    1    1    2  502    0 -0.51909484254E+02  0.10704683763E+02  0.55663161967E+03  0.55914930460E+03  0.00000000000E+00 0. -1.
         22    1    3    3    0    0  0.88012610788E+02 -0.57442935306E+02  0.16032515322E+04  0.16066926856E+04  0.00000000000E+00 0. -1.
         22    1    3    3    0    0 -0.46163241081E-01  0.19242241777E+02  0.43344960759E+02  0.47424167076E+02  0.00000000000E+00 0. -1.
</event>
<event>
 7    1  0.6146596E-006  0.2020193E+03  0.7818608E-02  0.1173776E+00
          2   -1    0    0  502    0  0.00000000000E+00  0.00000000000E+00  0.54475722173E+03  0.54475722173E+03  0.00000000000E+00 0. -1.
          1   -1    0    0  501    0 -0.00000000000E+00 -0.00000000000E+00 -0.97977286758E+03  0.97977286758E+03  0.00000000000E+00 0. -1.
         25    2    1    2    0    0 -0.13711369970E+03  0.25165842867E+03  0.19733943128E+03  0.36973031911E+03  0.12500210546E+03 0.  0.
          2    1    1    2  501    0 -0.91090597249E+01 -0.14952797861E+03 -0.85584883454E+03  0.86886064414E+03  0.00000000000E+00 0. -1.
          1    1    1    2  502    0  0.14622275942E+03 -0.10213045006E+03  0.22349375742E+03  0.28593912605E+03  0.00000000000E+00 0. -1.
         22    1    3    3    0    0 -0.26486739338E+02  0.76040367041E+02 -0.39230238852E+01  0.80616840032E+02  0.00000000000E+00 0.  1.
         22    1    3    3    0    0 -0.11062696036E+03  0.17561806163E+03  0.20126245516E+03  0.28911347908E+03  0.00000000000E+00 0.  1.
</event>
<event>
 7    1  0.6146596E-006  0.1295839E+03  0.7818608E-02  0.1340026E+00
          2   -1    0    0  502    0  0.00000000000E+00  0.00000000000E+00  0.25285754328E+04  0.25285754328E+04  0.00000000000E+00 0. -1.
          1   -1    0    0  501    0 -0.00000000000E+00 -0.00000000000E+00 -0.86950187478E+03  0.86950187478E+03  0.00000000000E+00 0. -1.
         25    2    1    2    0    0  0.17775026851E+02  0.13258384098E+03  0.11442011417E+04  0.11587576868E+04  0.12501478929E+03 0.  0.
          2    1    1    2  501    0 -0.59184820667E+02 -0.11529511951E+03 -0.85698475601E+03  0.86672872320E+03  0.00000000000E+00 0. -1.
          1    1    1    2  502    0  0.41409793816E+02 -0.17288721465E+02  0.13718571723E+04  0.13725908976E+04  0.00000000000E+00 0. -1.
         22    1    3    3    0    0  0.24011792991E+02  0.84842288105E+01  0.38903726476E+02  0.46497830862E+02  0.00000000000E+00 0. -1.
         22    1    3    3    0    0 -0.62367661404E+01  0.12409961216E+03  0.11052974152E+04  0.11122598559E+04  0.00000000000E+00 0. -1.
</event>
<event>
 7    1  0.6146596E-006  0.1586365E+03  0.7818608E-02  0.1288451E+00
          2   -1    0    0  502    0  0.00000000000E+00  0.00000000000E+00  0.21569090504E+03  0.21569090504E+03  0.00000000000E+00 0. -1.
          1   -1    0    0  501    0 -0.00000000000E+00 -0.00000000000E+00 -0.33093749087E+03  0.33093749087E+03  0.00000000000E+00 0. -1.
         25    2    1    2    0    0 -0.11417932342E+03  0.22880504182E+02 -0.17156636239E+03  0.24211677066E+03  0.12500031424E+03 0.  0.
          2    1    1    2  501    0 -0.53279250879E+02 -0.23821432808E+02 -0.72617402837E+02  0.93163439342E+02  0.00000000000E+00 0. -1.
          1    1    1    2  502    0  0.16745857430E+03  0.94092862582E+00  0.12893717940E+03  0.21134818590E+03  0.00000000000E+00 0. -1.
         22    1    3    3    0    0 -0.48657298710E+02  0.12493358399E+02  0.78345289255E+01  0.50842861498E+02  0.00000000000E+00 0.  1.
         22    1    3    3    0    0 -0.65522024708E+02  0.10387145783E+02 -0.17940089132E+03  0.19127390916E+03  0.00000000000E+00 0.  1.
</event>
<event>
 7    1  0.6146596E-006  0.1693319E+03  0.7818608E-02  0.1213509E+00
          2   -1    0    0  502    0  0.00000000000E+00  0.00000000000E+00  0.31356021165E+03  0.31356021165E+03  0.00000000000E+00 0. -1.
          1   -1    0    0  501    0 -0.00000000000E+00 -0.00000000000E+00 -0.36945846042E+03  0.36945846042E+03  0.00000000000E+00 0. -1.
         25    2    1    2    0    0 -0.21767818643E+03 -0.11077837299E+03 -0.64136863400E+02  0.28176985581E+03  0.12500029451E+03 0.  0.
          2    1    1    2  501    0  0.14934663857E+03  0.17624875989E+02 -0.14529356172E+03  0.20910589131E+03  0.00000000000E+00 0. -1.
          1    1    1    2  502    0  0.68331547863E+02  0.93153497000E+02  0.15353217634E+03  0.19214292495E+03  0.00000000000E+00 0. -1.
         22    1    3    3    0    0 -0.94542428580E+01 -0.52871658422E+02  0.71650843550E+01  0.54186099750E+02  0.00000000000E+00 0. -1.
         22    1    3    3    0    0 -0.20822394357E+03 -0.57906714567E+02 -0.71301947755E+02  0.22758375606E+03  0.00000000000E+00 0. -1.
</event>
<event>
 7    1  0.6146596E-006  0.1363608E+03  0.7818608E-02  0.1294549E+00
          2   -1    0    0  502    0  0.00000000000E+00  0.00000000000E+00  0.18943148794E+03  0.18943148794E+03  0.00000000000E+00 0. -1.
          1   -1    0    0  501    0 -0.00000000000E+00 -0.00000000000E+00 -0.41117306581E+03  0.41117306581E+03  0.00000000000E+00 0. -1.
         25    2    1    2    0    0 -0.10160936979E+03 -0.98028909869E+02 -0.20560793738E+03  0.27898598466E+03  0.12499769808E+03 0.  0.
          2    1    1    2  501    0  0.13263935955E+03  0.41898885139E+02 -0.13034793835E+03  0.19062870012E+03  0.00000000000E+00 0. -1.
          1    1    1    2  502    0 -0.31029989758E+02  0.56130024730E+02  0.11421429785E+03  0.13098986897E+03  0.00000000000E+00 0. -1.
         22    1    3    3    0    0  0.16129458886E+02  0.11721320136E+02 -0.55199609279E+02  0.58690251782E+02  0.00000000000E+00 0.  1.
         22    1    3    3    0    0 -0.11773882867E+03 -0.10975023001E+03 -0.15040832810E+03  0.22029573288E+03  0.00000000000E+00 0.  1.
</event>
<event>
 7    1  0.6146596E-006  0.6759923E+02  0.7818608E-02  0.1393682E+00
          2   -1    0    0  502    0  0.00000000000E+00  0.00000000000E+00  0.30714795942E+03  0.30714795942E+03  0.00000000000E+00 0. -1.
          1   -1    0    0  501    0 -0.00000000000E+00 -0.00000000000E+00 -0.95310636163E+02  0.95310636163E+02  0.00000000000E+00 0. -1.
         25    2    1    2    0    0 -0.45754446984E+01 -0.24769248962E+02  0.12584500393E+03  0.17915856692E+03  0.12500550667E+03 0.  0.
          2    1    1    2  501    0 -0.29053794186E+02  0.68347147723E+02 -0.41042296571E+02  0.84852375725E+02  0.00000000000E+00 0. -1.
          1    1    1    2  502    0  0.33629238885E+02 -0.43577898761E+02  0.12703461589E+03  0.13844765293E+03  0.00000000000E+00 0. -1.
         22    1    3    3    0    0  0.13125705166E+00  0.39495680558E+02  0.19922570087E+01  0.39546113578E+02  0.00000000000E+00 0.  1.
         22    1    3    3    0    0 -0.47067017501E+01 -0.64264929519E+02  0.12385274693E+03  0.13961245334E+03  0.00000000000E+00 0.  1.
</event>
<event>
 7    1  0.6146596E-006  0.4003311E+02  0.7818608E-02  0.1589807E+00
          2   -1    0    0  502    0  0.00000000000E+00  0.00000000000E+00  0.33901152316E+03  0.33901152316E+03  0.00000000000E+00 0. -1.
          1   -1    0    0  501    0 -0.00000000000E+00 -0.00000000000E+00 -0.20394825847E+03  0.20394825847E+03  0.00000000000E+00 0. -1.
         25    2    1    2    0    0  0.18074623395E+02 -0.11247292294E+02 -0.22444859180E+02  0.12877268683E+03  0.12500175829E+03 0.  0.
          2    1    1    2  501    0  0.22231319659E+02  0.80358817830E+01 -0.12580325790E+03  0.12800494783E+03  0.00000000000E+00 0. -1.
          1    1    1    2  502    0 -0.40305943053E+02  0.32114105112E+01  0.28331138177E+03  0.28618214697E+03  0.00000000000E+00 0. -1.
         22    1    3    3    0    0  0.36931630764E+02 -0.59229661444E+02 -0.31241089157E+02  0.76472895835E+02  0.00000000000E+00 0. -1.
         22    1    3    3    0    0 -0.18857007370E+02  0.47982369150E+02  0.87962299767E+01  0.52299790994E+02  0.00000000000E+00 0. -1.
</event>
<event>
 7    1  0.6146596E-006  0.1059967E+03  0.7818608E-02  0.1375475E+00
          2   -1    0    0  502    0  0.00000000000E+00  0.00000000000E+00  0.22313143939E+04  0.22313143939E+04  0.00000000000E+00 0. -1.
          1   -1    0    0  501    0 -0.00000000000E+00 -0.00000000000E+00 -0.13594511736E+04  0.13594511736E+04  0.00000000000E+00 0. -1.
         25    2    1    2    0    0 -0.26420565742E+02  0.13929379613E+03 -0.19995018195E+03  0.27514554391E+03  0.12499674852E+03 0.  0.
          2    1    1    2  501    0  0.70184138612E+01 -0.10353466824E+03 -0.11193144286E+04  0.11241145296E+04  0.00000000000E+00 0. -1.
          1    1    1    2  502    0  0.19402151881E+02 -0.35759127882E+02  0.21911278308E+04  0.21915054939E+04  0.00000000000E+00 0. -1.
         22    1    3    3    0    0 -0.60473604020E+02  0.14114322200E+03 -0.17544524373E+03  0.23315123728E+03  0.00000000000E+00 0. -1.
         22    1    3    3    0    0  0.34053038278E+02 -0.18494258742E+01 -0.24504938222E+02  0.41994306630E+02  0.00000000000E+00 0. -1.
</event>
<event>
 7    1  0.6146596E-006  0.2115429E+03  0.7818608E-02  0.1219926E+00
          2   -1    0    0  502    0  0.00000000000E+00  0.00000000000E+00  0.25514971520E+04  0.25514971520E+04  0.00000000000E+00 0. -1.
          1   -1    0    0  501    0 -0.00000000000E+00 -0.00000000000E+00 -0.74677335988E+03  0.74677335988E+03  0.00000000000E+00 0. -1.
         25    2    1    2    0    0 -0.13796835357E+03  0.11091862370E+03 -0.12888857495E+03  0.25213831502E+03  0.12499302972E+03 0.  0.
          2    1    1    2  501    0  0.21570871461E+03 -0.73173424984E+02 -0.53215267106E+03  0.57885323269E+03  0.00000000000E+00 0. -1.
          1    1    1    2  502    0 -0.77740361033E+02 -0.37745198717E+02  0.24657650381E+04  0.24672789642E+04  0.00000000000E+00 0. -1.
         22    1    3    3    0    0 -0.49944082006E+02  0.11506897363E+03 -0.54305462350E+02  0.13669075778E+03  0.00000000000E+00 0.  1.
         22    1    3    3    0    0 -0.88024271568E+02 -0.41503499331E+01 -0.74583112597E+02  0.11544755725E+03  0.00000000000E+00 0.  1.
</event>
<event>
 7    1  0.6146596E-006  0.5149883E+02  0.7818608E-02  0.1551597E+00
          2   -1    0    0  502    0  0.00000000000E+00  0.00000000000E+00  0.12198639660E+04  0.12198639660E+04  0.00000000000E+00 0. -1.
          1   -1    0    0  501    0 -0.00000000000E+00 -0.00000000000E+00 -0.39359576951E+03  0.39359576951E+03  0.00000000000E+00 0. -1.
         25    2    1    2    0    0  0.50088219458E+02  0.10822177903E+02 -0.73506341081E+01  0.13530011329E+03  0.12500455820E+03 0.  0.
          2    1    1    2  501    0 -0.97121390929E+01  0.21216319152E+02 -0.32127247025E+03  0.32211870170E+03  0.00000000000E+00 0. -1.
          1    1    1    2  502    0 -0.40376080365E+02 -0.32038497054E+02  0.11548913009E+04  0.11560409205E+04  0.00000000000E+00 0. -1.
         22    1    3    3    0    0  0.83085425921E+02 -0.49581155394E+01  0.24537752660E+02  0.86774836305E+02  0.00000000000E+00 0. -1.
         22    1    3    3    0    0 -0.32997206464E+02  0.15780293442E+02 -0.31888386768E+02  0.48525276982E+02  0.00000000000E+00 0. -1.
</event>
<event>
 7    1  0.6146596E-006  0.7957824E+02  0.7818608E-02  0.1400095E+00
          2   -1    0    0  502    0  0.00000000000E+00  0.00000000000E+00  0.28513967973E+04  0.28513967973E+04  0.00000000000E+00 0. -1.
          1   -1    0    0  501    0 -0.00000000000E+00 -0.00000000000E+00 -0.10029382180E+03  0.10029382180E+03  0.00000000000E+00 0. -1.
         25    2    1    2    0    0 -0.30752219144E+01  0.75230081690E+02  0.20438040781E+04  0.20490074274E+04  0.12500922203E+03 0.  0.
          2    1    1    2  501    0 -0.44433710583E+02  0.75382705311E-01 -0.90030040910E+02  0.10039805070E+03  0.00000000000E+00 0. -1.
          1    1    1    2  502    0  0.47508932497E+02 -0.75305464396E+02  0.79732893831E+03  0.80228514102E+03  0.00000000000E+00 0. -1.
         22    1    3    3    0    0 -0.51117943434E+02  0.81655461951E+02  0.12345053101E+04  0.12382584623E+04  0.00000000000E+00 0.  1.
         22    1    3    3    0    0  0.48042721520E+02 -0.64253802611E+01  0.80929876798E+03  0.81074896513E+03  0.00000000000E+00 0.  1.
</event>
<event>
 7    1  0.6146596E-006  0.1340889E+03  0.7818608E-02  0.1315906E+00
          2   -1    0    0  502    0  0.00000000000E+00  0.00000000000E+00  0.73848172403E+03  0.73848172403E+03  0.00000000000E+00 0. -1.
          1   -1    0    0  501    0 -0.00000000000E+00 -0.00000000000E+00 -0.77765870294E+03  0.77765870294E+03  0.00000000000E+00 0. -1.
         25    2    1    2    0    0 -0.69871451550E+02 -0.75767818499E+02 -0.18461859430E+03  0.24562702203E+03  0.12500330607E+03 0.  0.
          2    1    1    2  501    0  0.12352055077E+03  0.75094587329E+02 -0.55220205628E+03  0.57080963067E+03  0.00000000000E+00 0. -1.
          1    1    1    2  502    0 -0.53649099224E+02  0.67323116985E+00  0.69764367167E+03  0.69970377426E+03  0.00000000000E+00 0. -1.
         22    1    3    3    0    0  0.21984914692E+02 -0.16918016958E+02  0.37059883312E+01  0.27987320724E+02  0.00000000000E+00 0. -1.
         22    1    3    3    0    0 -0.91856366242E+02 -0.58849801541E+02 -0.18832458263E+03  0.21763970131E+03  0.00000000000E+00 0. -1.
</event>
<event>
 7    1  0.6146596E-006  0.1153091E+03  0.7818608E-02  0.1369175E+00
          2   -1    0    0  502    0  0.00000000000E+00  0.00000000000E+00  0.29406537579E+03  0.29406537579E+03  0.00000000000E+00 0. -1.
          1   -1    0    0  501    0 -0.00000000000E+00 -0.00000000000E+00 -0.11057432228E+04  0.11057432228E+04  0.00000000000E+00 0. -1.
         25    2    1    2    0    0  0.43730130026E+02 -0.71383381243E+02  0.96836361403E+02  0.17891353701E+03  0.12499944578E+03 0.  0.
          2    1    1    2  501    0 -0.36675097943E+02  0.11013941562E+03 -0.10589975648E+04  0.10653410702E+04  0.00000000000E+00 0. -1.
          1    1    1    2  502    0 -0.70550320834E+01 -0.38756034376E+02  0.15048335638E+03  0.15555399135E+03  0.00000000000E+00 0. -1.
         22    1    3    3    0    0  0.22320386461E+02 -0.39378301897E+02 -0.24600996415E+02  0.51517563381E+02  0.00000000000E+00 0.  1.
         22    1    3    3    0    0  0.21409743565E+02 -0.32005079346E+02  0.12143735782E+03  0.12739597363E+03  0.00000000000E+00 0.  1.
</event>
<event>
 7    1  0.6146596E-006  0.1648481E+03  0.7818608E-02  0.1189085E+00
          2   -1    0    0  502    0  0.00000000000E+00  0.00000000000E+00  0.75759602407E+03  0.75759602407E+03  0.00000000000E+00 0. -1.
          1   -1    0    0  501    0 -0.00000000000E+00 -0.00000000000E+00 -0.23534994832E+04  0.23534994832E+04  0.00000000000E+00 0. -1.
         25    2    1    2    0    0 -0.20947402293E+03  0.15179724652E+03  0.38113790236E+02  0.28982747060E+03  0.12500212546E+03 0.  0.
          2    1    1    2  501    0  0.54868329394E+02 -0.15447885949E+03 -0.22144916953E+04  0.22205512199E+04  0.00000000000E+00 0. -1.
          1    1    1    2  502    0  0.15460569354E+03  0.26816129652E+01  0.58047444596E+03  0.60071681675E+03  0.00000000000E+00 0. -1.
         22    1    3    3    0    0 -0.25736647499E+02  0.75779162980E+02 -0.20334134640E+02  0.82573201452E+02  0.00000000000E+00 0.  1.
         22    1    3    3    0    0 -0.18373737543E+03  0.76018083545E+02  0.58447924876E+02  0.20725426914E+03  0.00000000000E+00 0.  1.
</event>
<event>
 7    1  0.6146596E-006  0.1220592E+03  0.7818608E-02  0.1318921E+00
          2   -1    0    0  502    0  0.00000000000E+00  0.00000000000E+00  0.20170216281E+04  0.20170216281E+04  0.00000000000E+00 0. -1.
          1   -1    0    0  501    0 -0.00000000000E+00 -0.00000000000E+00 -0.55534132859E+02  0.55534132859E+02  0.00000000000E+00 0. -1.
         25    2    1    2    0    0 -0.71834453112E+02  0.15083095583E+03  0.27454712328E+03  0.34483508618E+03  0.12499979150E+03 0.  0.
          2    1    1    2  501    0  0.46155059319E+02 -0.34071153690E+02  0.26866723275E+02  0.63347879476E+02  0.00000000000E+00 0. -1.
          1    1    1    2  502    0  0.25679393793E+02 -0.11675980214E+03  0.16600736487E+04  0.16643727953E+04  0.00000000000E+00 0. -1.
         22    1    3    3    0    0 -0.23775232882E+02 -0.44748161941E+01  0.11331658633E+03  0.11587033449E+03  0.00000000000E+00 0. -1.
         22    1    3    3    0    0 -0.48059220230E+02  0.15530577202E+03  0.16123053695E+03  0.22896475169E+03  0.00000000000E+00 0. -1.
</event>
<event>
 7    1  0.6146596E-006  0.6006484E+02  0.7818608E-02  0.1449098E+00
          2   -1    0    0  502    0  0.00000000000E+00  0.00000000000E+00  0.77374544636E+03  0.77374544636E+03  0.00000000000E+00 0. -1.
          1   -1    0    0  501    0 -0.00000000000E+00 -0.00000000000E+00 -0.14036882642E+04  0.14036882642E+04  0.00000000000E+00 0. -1.
         25    2    1    2    0    0 -0.26933657145E+02  0.62821621521E+02  0.18870562225E+03  0.23644581935E+03  0.12499934240E+03 0.  0.
          2    1    1    2  501    0 -0.24886505289E+02 -0.31927979097E+02 -0.13778985457E+04  0.13784930672E+04  0.00000000000E+00 0. -1.
          1    1    1    2  502    0  0.51820162434E+02 -0.30893642424E+02  0.55925010564E+03  0.56249482400E+03  0.00000000000E+00 0. -1.
         22    1    3    3    0    0  0.48957221787E+02  0.11023073907E+02  0.58338795574E+02  0.76952795872E+02  0.00000000000E+00 0. -1.
         22    1    3    3    0    0 -0.75890878932E+02  0.51798547614E+02  0.13036682668E+03  0.15949302348E+03  0.00000000000E+00 0. -1.
</event>
<event>
 7    1  0.6146596E-006  0.8936594E+02  0.7818608E-02  0.1306926E+00
          2   -1    0    0  502    0  0.00000000000E+00  0.00000000000E+00  0.59308832039E+03  0.59308832039E+03  0.00000000000E+00 0. -1.
          1   -1    0    0  501    0 -0.00000000000E+00 -0.00000000000E+00 -0.27743929625E+03  0.27743929625E+03  0.00000000000E+00 0. -1.
         25    2    1    2    0    0 -0.35275171320E+02 -0.63918324817E+02  0.14739311628E+02  0.14550724683E+03  0.12500088645E+03 0.  0.
          2    1    1    2  501    0  0.88877010742E+02 -0.93352874782E+01 -0.19836265984E+03  0.21756381926E+03  0.00000000000E+00 0. -1.
          1    1    1    2  502    0 -0.53601839422E+02  0.73253612295E+02  0.49927237235E+03  0.50745655055E+03  0.00000000000E+00 0. -1.
         22    1    3    3    0    0  0.14491493684E+02 -0.51161993850E+02 -0.42879975241E+02  0.68309920807E+02  0.00000000000E+00 0. -1.
         22    1    3    3    0    0 -0.49766665004E+02 -0.12756330967E+02  0.57619286869E+02  0.77197326020E+02  0.00000000000E+00 0. -1.
</event>
<event>
 7    1  0.6146596E-006  0.5406536E+02  0.7818608E-02  0.1509291E+00
          2   -1    0    0  502    0  0.00000000000E+00  0.00000000000E+00  0.12509445398E+04  0.12509445398E+04  0.00000000000E+00 0. -1.
          1   -1    0    0  501    0 -0.00000000000E+00 -0.00000000000E+00 -0.64371482340E+03  0.64371482340E+03  0.00000000000E+00 0. -1.
         25    2    1    2    0    0 -0.63783401739E+02 -0.53090065474E+02  0.11671313817E+03  0.19009081344E+03  0.12500273334E+03 0.  0.
          2    1    1    2  501    0  0.43215659624E+02  0.32113512369E+02 -0.60563491549E+03  0.60802345495E+03  0.00000000000E+00 0. -1.
          1    1    1    2  502    0  0.20567742115E+02  0.20976553106E+02  0.10961514938E+04  0.10965450949E+04  0.00000000000E+00 0. -1.
         22    1    3    3    0    0  0.37784118964E+02 -0.21557119126E+02  0.29591509054E+02  0.52611846946E+02  0.00000000000E+00 0.  1.
         22    1    3    3    0    0 -0.10156752070E+03 -0.31532946348E+02  0.87121629121E+02  0.13747896649E+03  0.00000000000E+00 0.  1.
</event>
<event>
 7    1  0.6146596E-006  0.4149292E+02  0.7818608E-02  0.1607706E+00
          2   -1    0    0  502    0  0.00000000000E+00  0.00000000000E+00  0.75141964446E+02  0.75141964446E+02  0.00000000000E+00 0. -1.
          1   -1    0    0  501    0 -0.00000000000E+00 -0.00000000000E+00 -0.39045067160E+03  0.39045067160E+03  0.00000000000E+00 0. -1.
         25    2    1    2    0    0  0.33264980469E+02  0.34489868962E+02 -0.28046981360E+02  0.13677409319E+03  0.12499763765E+03 0.  0.
          2    1    1    2  501    0  0.48134447777E+01 -0.19901540371E+02 -0.28731257487E+03  0.28804124052E+03  0.00000000000E+00 0. -1.
          1    1    1    2  502    0 -0.38078425246E+02 -0.14588328591E+02  0.50849077018E-01  0.40777302338E+02  0.00000000000E+00 0. -1.
         22    1    3    3    0    0  0.46868709149E+02  0.70990110072E+02  0.56706699930E+01  0.85255076819E+02  0.00000000000E+00 0. -1.
         22    1    3    3    0    0 -0.13603728680E+02 -0.36500241110E+02 -0.33717651353E+02  0.51519016371E+02  0.00000000000E+00 0. -1.
</event>
<event>
 7    1  0.6146596E-006  0.8420914E+02  0.7818608E-02  0.1323207E+00
          2   -1    0    0  502    0  0.00000000000E+00  0.00000000000E+00  0.15860071389E+04  0.15860071389E+04  0.00000000000E+00 0. -1.
          1   -1    0    0  501    0 -0.00000000000E+00 -0.00000000000E+00 -0.69286405992E+02  0.69286405992E+02  0.00000000000E+00 0. -1.
         25    2    1    2    0    0  0.82009430350E+02 -0.69148049808E+01  0.63103603626E+02  0.16241680746E+03  0.12499517335E+03 0.  0.
          2    1    1    2  501    0 -0.64296746346E+02 -0.75410407480E+02  0.11581430968E+03  0.15242622961E+03  0.00000000000E+00 0. -1.
          1    1    1    2  502    0 -0.17712684004E+02  0.82325212461E+02  0.13378028196E+04  0.13404505078E+04  0.00000000000E+00 0. -1.
         22    1    3    3    0    0  0.14401507779E+02  0.88239279557E+01 -0.36958185120E+02  0.40634622900E+02  0.00000000000E+00 0. -1.
         22    1    3    3    0    0  0.67607922571E+02 -0.15738732937E+02  0.10006178875E+03  0.12178218456E+03  0.00000000000E+00 0. -1.
</event>
<event>
 7    1  0.6562585E-006  0.7878582E+02  0.7818608E-02  0.1396104E+00
          2   -1    0    0  502    0  0.00000000000E+00  0.00000000000E+00  0.85049288133E+03  0.85049288133E+03  0.00000000000E+00 0. -1.
          1   -1    0    0  501    0 -0.00000000000E+00 -0.00000000000E+00 -0.77040083306E+03  0.77040083306E+03  0.00000000000E+00 0. -1.
         25    2    1    2    0    0 -0.79326265208E+02  0.45280060131E+02 -0.12226301243E+03  0.19727247821E+03  0.12500098501E+03 0.  0.
          2    1    1    2  501    0  0.78724819469E+02  0.10416368492E+01 -0.60743052499E+03  0.61251165286E+03  0.00000000000E+00 0. -1.
          1    1    1    2  502    0  0.60144573883E+00 -0.46321696980E+02  0.80978558570E+03  0.81110958332E+03  0.00000000000E+00 0. -1.
         22    1    3    3    0    0 -0.52523452823E+02  0.13964977757E+02 -0.14165241151E+03  0.15172059645E+03  0.00000000000E+00 0.  1.
         22    1    3    3    0    0 -0.26802812385E+02  0.31315082374E+02  0.19389399076E+02  0.45551881765E+02  0.00000000000E+00 0.  1.
</event>
<event>
 7    1  0.6146596E-006  0.2661966E+02  0.7818608E-02  0.1644773E+00
          2   -1    0    0  502    0  0.00000000000E+00  0.00000000000E+00  0.15090710830E+04  0.15090710830E+04  0.00000000000E+00 0. -1.
          1   -1    0    0  501    0 -0.00000000000E+00 -0.00000000000E+00 -0.15355855615E+03  0.15355855615E+03  0.00000000000E+00 0. -1.
         25    2    1    2    0    0  0.16296986183E+02  0.48855492842E+02  0.73918086891E+02  0.15408416035E+03  0.12500237583E+03 0.  0.
          2    1    1    2  501    0 -0.12242824414E+02 -0.22623443081E+02 -0.11188968467E+03  0.11480857312E+03  0.00000000000E+00 0. -1.
          1    1    1    2  502    0 -0.40541617692E+01 -0.26232049761E+02  0.13934841247E+04  0.13937369057E+04  0.00000000000E+00 0. -1.
         22    1    3    3    0    0  0.38038337287E+01  0.81060973515E+02  0.10444441326E+02  0.81819538821E+02  0.00000000000E+00 0.  1.
         22    1    3    3    0    0  0.12493152454E+02 -0.32205480673E+02  0.63473645565E+02  0.72264621530E+02  0.00000000000E+00 0.  1.
</event>
<event>
 7    1  0.6146596E-006  0.6944638E+02  0.7818608E-02  0.1391527E+00
          2   -1    0    0  502    0  0.00000000000E+00  0.00000000000E+00  0.75383193799E+02  0.75383193799E+02  0.00000000000E+00 0. -1.
          1   -1    0    0  501    0 -0.00000000000E+00 -0.00000000000E+00 -0.93629173557E+03  0.93629173557E+03  0.00000000000E+00 0. -1.
         25    2    1    2    0    0  0.91301334915E+02 -0.63181877936E+02 -0.18950423657E+03  0.25271465968E+03  0.12499984033E+03 0.  0.
          2    1    1    2  501    0 -0.37194553155E+02  0.56535939592E+02 -0.69590950741E+03  0.69919224091E+03  0.00000000000E+00 0. -1.
          1    1    1    2  502    0 -0.54106781760E+02  0.66459383446E+01  0.24505202204E+02  0.59768028778E+02  0.00000000000E+00 0. -1.
         22    1    3    3    0    0 -0.16236382186E+02  0.21179200232E+02 -0.54082424666E+02  0.60308268809E+02  0.00000000000E+00 0.  1.
         22    1    3    3    0    0  0.10753771710E+03 -0.84361078168E+02 -0.13542181190E+03  0.19240639087E+03  0.00000000000E+00 0.  1.
</event>
<event>
 7    1  0.6146596E-006  0.1154529E+03  0.7818608E-02  0.1370416E+00
          2   -1    0    0  502    0  0.00000000000E+00  0.00000000000E+00  0.15785566490E+04  0.15785566490E+04  0.00000000000E+00 0. -1.
          1   -1    0    0  501    0 -0.00000000000E+00 -0.00000000000E+00 -0.66776575126E+03  0.66776575126E+03  0.00000000000E+00 0. -1.
         25    2    1    2    0    0 -0.87210846072E+02  0.26507758483E+02  0.72075078816E+03  0.73716759980E+03  0.12500391445E+03 0.  0.
          2    1    1    2  501    0  0.11564943307E+03  0.94613800551E-01 -0.65403537688E+03  0.66418150722E+03  0.00000000000E+00 0. -1.
          1    1    1    2  502    0 -0.28438586997E+02 -0.26602372283E+02  0.84407548645E+03  0.84497329323E+03  0.00000000000E+00 0. -1.
         22    1    3    3    0    0 -0.23332981870E+02  0.27678600436E+02  0.59516531537E+03  0.59626528122E+03  0.00000000000E+00 0. -1.
         22    1    3    3    0    0 -0.63877864202E+02 -0.11708419526E+01  0.12558547279E+03  0.14090231859E+03  0.00000000000E+00 0. -1.
</event>
<event>
 7    1  0.6146596E-006  0.7482515E+02  0.7818608E-02  0.1404296E+00
          2   -1    0    0  502    0  0.00000000000E+00  0.00000000000E+00  0.75726986122E+03  0.75726986122E+03  0.00000000000E+00 0. -1.
          1   -1    0    0  501    0 -0.00000000000E+00 -0.00000000000E+00 -0.11222436148E+03  0.11222436148E+03  0.00000000000E+00 0. -1.
         25    2    1    2    0    0  0.51100895192E+02  0.10142011409E+03  0.36475287350E+03  0.40195408701E+03  0.12500035323E+03 0.  0.
          2    1    1    2  501    0 -0.16186202683E+02 -0.42753708360E+02 -0.84682904654E+02  0.96234438100E+02  0.00000000000E+00 0. -1.
          1    1    1    2  502    0 -0.34914692509E+02 -0.58666405731E+02  0.36497553089E+03  0.37130569759E+03  0.00000000000E+00 0. -1.
         22    1    3    3    0    0  0.56145646916E+01  0.11325216757E+03  0.19259520305E+03  0.22349606044E+03  0.00000000000E+00 0.  1.
         22    1    3    3    0    0  0.45486330500E+02 -0.11832053477E+02  0.17215767046E+03  0.17845802657E+03  0.00000000000E+00 0.  1.
</event>
<event>
 7    1  0.6146596E-006  0.8354271E+02  0.7818608E-02  0.1472253E+00
          2   -1    0    0  502    0  0.00000000000E+00  0.00000000000E+00  0.22796665267E+03  0.22796665267E+03  0.00000000000E+00 0. -1.
          1   -1    0    0  501    0 -0.00000000000E+00 -0.00000000000E+00 -0.21342227146E+04  0.21342227146E+04  0.00000000000E+00 0. -1.
         25    2    1    2    0    0  0.30206120197E+02  0.10130831162E+03 -0.70787423825E+02  0.17835911393E+03  0.12500132180E+03 0.  0.
          2    1    1    2  501    0 -0.32051877325E+02 -0.76774952433E+02 -0.20079149230E+04  0.20096377918E+04  0.00000000000E+00 0. -1.
          1    1    1    2  502    0  0.18457571281E+01 -0.24533359188E+02  0.17244628483E+03  0.17419246161E+03  0.00000000000E+00 0. -1.
         22    1    3    3    0    0 -0.22201738285E+02  0.11243016476E+01  0.22610174568E+02  0.31708062556E+02  0.00000000000E+00 0. -1.
         22    1    3    3    0    0  0.52407858482E+02  0.10018400997E+03 -0.93397598393E+02  0.14665105138E+03  0.00000000000E+00 0. -1.
</event>
<event>
 7    1  0.6146596E-006  0.3843121E+02  0.7818608E-02  0.1532305E+00
          2   -1    0    0  502    0  0.00000000000E+00  0.00000000000E+00  0.11157323805E+03  0.11157323805E+03  0.00000000000E+00 0. -1.
          1   -1    0    0  501    0 -0.00000000000E+00 -0.00000000000E+00 -0.42573890955E+03  0.42573890955E+03  0.00000000000E+00 0. -1.
         25    2    1    2    0    0  0.11179958221E+02 -0.16588700563E+01 -0.31037307382E+03  0.33479256935E+03  0.12500750468E+03 0.  0.
          2    1    1    2  501    0  0.10595393706E+02  0.33818893727E+02 -0.96071894617E+02  0.10240014100E+03  0.00000000000E+00 0. -1.
          1    1    1    2  502    0 -0.21775351927E+02 -0.32160023670E+02  0.92279296929E+02  0.10011943725E+03  0.00000000000E+00 0. -1.
         22    1    3    3    0    0  0.40202114019E+02  0.46750259488E+02 -0.21789437922E+03  0.22645034165E+03  0.00000000000E+00 0. -1.
         22    1    3    3    0    0 -0.29022155798E+02 -0.48409129545E+02 -0.92478694594E+02  0.10834222771E+03  0.00000000000E+00 0. -1.
</event>
<event>
 7    1  0.6146596E-006  0.7594424E+02  0.7818608E-02  0.1464438E+00
          2   -1    0    0  502    0  0.00000000000E+00  0.00000000000E+00  0.19756145409E+03  0.19756145409E+03  0.00000000000E+00 0. -1.
          1   -1    0    0  501    0 -0.00000000000E+00 -0.00000000000E+00 -0.62578886530E+03  0.62578886530E+03  0.00000000000E+00 0. -1.
         25    2    1    2    0    0  0.42683974132E+02 -0.25676858151E+02 -0.81846019892E+02  0.15749513946E+03  0.12499890116E+03 0.  0.
          2    1    1    2  501    0 -0.63605523862E+02  0.45215286772E+02 -0.50179506496E+03  0.50782710841E+03  0.00000000000E+00 0. -1.
          1    1    1    2  502    0  0.20921549729E+02 -0.19538428621E+02  0.15541367363E+03  0.15802807152E+03  0.00000000000E+00 0. -1.
         22    1    3    3    0    0  0.25535383378E+02 -0.48595076899E+02  0.14671667008E+02  0.56822487766E+02  0.00000000000E+00 0. -1.
         22    1    3    3    0    0  0.17148590754E+02  0.22918218748E+02 -0.96517686900E+02  0.10067265170E+03  0.00000000000E+00 0. -1.
</event>
<event>
 7    1  0.6146596E-006  0.7273781E+02  0.7818608E-02  0.1451157E+00
          2   -1    0    0  502    0  0.00000000000E+00  0.00000000000E+00  0.27938469806E+03  0.27938469806E+03  0.00000000000E+00 0. -1.
          1   -1    0    0  501    0 -0.00000000000E+00 -0.00000000000E+00 -0.88609516614E+03  0.88609516614E+03  0.00000000000E+00 0. -1.
         25    2    1    2    0    0  0.83988265978E+02  0.68622337973E+01 -0.42623750799E+03  0.45211081115E+03  0.12499861305E+03 0.  0.
          2    1    1    2  501    0 -0.14880962621E+02 -0.29370375813E+02 -0.44134000429E+03  0.44256644858E+03  0.00000000000E+00 0. -1.
          1    1    1    2  502    0 -0.69107303356E+02  0.22508142015E+02  0.26086704420E+03  0.27080260447E+03  0.00000000000E+00 0. -1.
         22    1    3    3    0    0  0.70895423788E+02  0.20155342828E+02 -0.42711907458E+03  0.43343177413E+03  0.00000000000E+00 0. -1.
         22    1    3    3    0    0  0.13092842189E+02 -0.13293109031E+02  0.88156658573E+00  0.18679037019E+02  0.00000000000E+00 0. -1.
</event>
<event>
 7    1  0.6146596E-006  0.1298924E+03  0.7818608E-02  0.1343150E+00
          2   -1    0    0  502    0  0.00000000000E+00  0.00000000000E+00  0.43242556227E+03  0.43242556227E+03  0.00000000000E+00 0. -1.
          1   -1    0    0  501    0 -0.00000000000E+00 -0.00000000000E+00 -0.31794370165E+04  0.31794370165E+04  0.00000000000E+00 0. -1.
         25    2    1    2    0    0  0.15124343221E+03  0.36017040517E+02 -0.76433903651E+02  0.21363139869E+03  0.12499771951E+03 0.  0.
          2    1    1    2  501    0 -0.12945866964E+03  0.17213117061E+01 -0.30317130440E+04  0.30344763125E+04  0.00000000000E+00 0. -1.
          1    1    1    2  502    0 -0.21784762578E+02 -0.37738352223E+02  0.36113549339E+03  0.36375486759E+03  0.00000000000E+00 0. -1.
         22    1    3    3    0    0  0.61799105938E+02  0.66561122675E+01 -0.98934707375E+02  0.11683967498E+03  0.00000000000E+00 0.  1.
         22    1    3    3    0    0  0.89444326275E+02  0.29360928250E+02  0.22500803724E+02  0.96791723710E+02  0.00000000000E+00 0.  1.
</event>
<event>
 7    1  0.6146596E-006  0.6571870E+02  0.7818608E-02  0.1429750E+00
          2   -1    0    0  502    0  0.00000000000E+00  0.00000000000E+00  0.12149309465E+03  0.12149309465E+03  0.00000000000E+00 0. -1.
          1   -1    0    0  501    0 -0.00000000000E+00 -0.00000000000E+00 -0.25166824937E+03  0.25166824937E+03  0.00000000000E+00 0. -1.
         25    2    1    2    0    0  0.22093765311E+02  0.33001775809E+02  0.12848388381E+01  0.13116536190E+03  0.12500179871E+03 0.  0.
          2    1    1    2  501    0  0.40369358410E+02  0.14094948744E+02 -0.15460988911E+03  0.16041374782E+03  0.00000000000E+00 0. -1.
          1    1    1    2  502    0 -0.62463123722E+02 -0.47096724553E+02  0.23149895555E+02  0.81582234297E+02  0.00000000000E+00 0. -1.
         22    1    3    3    0    0 -0.11178605214E+02  0.67256934404E+02 -0.29564226961E+02  0.74313524717E+02  0.00000000000E+00 0. -1.
         22    1    3    3    0    0  0.33272370525E+02 -0.34255158595E+02  0.30849065800E+02  0.56851837186E+02  0.00000000000E+00 0. -1.
</event>
<event>
 7    1  0.6146596E-006  0.1046298E+03  0.7818608E-02  0.1429250E+00
          2   -1    0    0  502    0  0.00000000000E+00  0.00000000000E+00  0.20066670195E+04  0.20066670195E+04  0.00000000000E+00 0. -1.
          1   -1    0    0  501    0 -0.00000000000E+00 -0.00000000000E+00 -0.37431904460E+03  0.37431904460E+03  0.00000000000E+00 0. -1.
         25    2    1    2    0    0 -0.47659258335E+02 -0.93619089899E+02  0.24446026812E+03  0.29397569320E+03  0.12499978640E+03 0.  0.
          2    1    1    2  501    0  0.25476687195E+02 -0.88177879703E+01 -0.34745801330E+03  0.34850234717E+03  0.00000000000E+00 0. -1.
          1    1    1    2  502    0  0.22182571140E+02  0.10243687787E+03  0.17353457200E+04  0.17385080237E+04  0.00000000000E+00 0. -1.
         22    1    3    3    0    0  0.39599092231E+02 -0.54761144360E+02  0.94472489811E+02  0.11615473459E+03  0.00000000000E+00 0.  1.
         22    1    3    3    0    0 -0.87258350566E+02 -0.38857945538E+02  0.14998777831E+03  0.17782095860E+03  0.00000000000E+00 0.  1.
</event>
<event>
 7    1  0.1382086E-005  0.6216833E+02  0.7818608E-02  0.1419525E+00
          2   -1    0    0  502    0  0.00000000000E+00  0.00000000000E+00  0.21837174752E+04  0.21837174752E+04  0.00000000000E+00 0. -1.
          1   -1    0    0  501    0 -0.00000000000E+00 -0.00000000000E+00 -0.10582303595E+04  0.10582303595E+04  0.00000000000E+00 0. -1.
         25    2    1    2    0    0 -0.17969764409E+02 -0.57458257406E+01 -0.27086800894E+03  0.29891635358E+03  0.12500232489E+03 0.  0.
          2    1    1    2  501    0 -0.16749303374E+02 -0.45913888779E+02 -0.77211900076E+03  0.77366425255E+03  0.00000000000E+00 0. -1.
          1    1    1    2  502    0  0.34719067783E+02  0.51659714520E+02  0.21684741254E+04  0.21693672286E+04  0.00000000000E+00 0. -1.
         22    1    3    3    0    0  0.40207695534E+02 -0.91792759609E+01 -0.29742927255E+02  0.50848398294E+02  0.00000000000E+00 0. -1.
         22    1    3    3    0    0 -0.58177459943E+02  0.34334502202E+01 -0.24112508168E+03  0.24806795529E+03  0.00000000000E+00 0. -1.
</event>
<event>
 7    1  0.6679821E-006  0.8650657E+02  0.7818608E-02  0.1346323E+00
          2   -1    0    0  502    0  0.00000000000E+00  0.00000000000E+00  0.88151467432E+03  0.88151467432E+03  0.00000000000E+00 0. -1.
          1   -1    0    0  501    0 -0.00000000000E+00 -0.00000000000E+00 -0.28109093536E+04  0.28109093536E+04  0.00000000000E+00 0. -1.
         25    2    1    2    0    0 -0.25327563368E+02 -0.26671310040E+02 -0.21779324685E+03  0.25379385053E+03  0.12499830378E+03 0.  0.
          2    1    1    2  501    0  0.87784792992E+02  0.14313091489E+02 -0.25731727968E+04  0.25747095519E+04  0.00000000000E+00 0. -1.
          1    1    1    2  502    0 -0.62457229624E+02  0.12358218551E+02  0.86157136441E+03  0.86392062544E+03  0.00000000000E+00 0. -1.
         22    1    3    3    0    0 -0.19188400245E+02 -0.73015712396E+02 -0.17427434931E+03  0.18992376836E+03  0.00000000000E+00 0.  1.
         22    1    3    3    0    0 -0.61391631229E+01  0.46344402356E+02 -0.43518897548E+02  0.63870082177E+02  0.00000000000E+00 0.  1.
</event>
<event>
 7    1  0.6146596E-006  0.2020738E+03  0.7818608E-02  0.1279871E+00
          2   -1    0    0  502    0  0.00000000000E+00  0.00000000000E+00  0.29883302343E+03  0.29883302343E+03  0.00000000000E+00 0. -1.
          1   -1    0    0  501    0 -0.00000000000E+00 -0.00000000000E+00 -0.75516820813E+03  0.75516820813E+03  0.00000000000E+00 0. -1.
         25    2    1    2    0    0 -0.17134890902E+03 -0.87798944607E+02 -0.16270220215E+03  0.28137180386E+03  0.12501592749E+03 0.  0.
          2    1    1    2  501    0  0.20108405197E+03  0.47991304037E+02 -0.51017006823E+03  0.55046476703E+03  0.00000000000E+00 0. -1.
          1    1    1    2  502    0 -0.29735142953E+02  0.39807640570E+02  0.21653708568E+03  0.22216466067E+03  0.00000000000E+00 0. -1.
         22    1    3    3    0    0 -0.53080904720E+01  0.16928403814E+01 -0.71750669961E+02  0.71966660148E+02  0.00000000000E+00 0. -1.
         22    1    3    3    0    0 -0.16604081855E+03 -0.89491784988E+02 -0.90951532188E+02  0.20940514371E+03  0.00000000000E+00 0. -1.
</event>
<event>
 7    1  0.6146596E-006  0.1992999E+03  0.7818608E-02  0.1185913E+00
          2   -1    0    0  502    0  0.00000000000E+00  0.00000000000E+00  0.14097101921E+04  0.14097101921E+04  0.00000000000E+00 0. -1.
          1   -1    0    0  501    0 -0.00000000000E+00 -0.00000000000E+00 -0.13889570164E+04  0.13889570164E+04  0.00000000000E+00 0. -1.
         25    2    1    2    0    0  0.34856072368E+02 -0.18440149267E+03  0.28520122811E+00  0.22548603997E+03  0.12500006641E+03 0.  0.
          2    1    1    2  501    0  0.97473983096E+02  0.17809103639E+03 -0.12648569903E+04  0.12810467597E+04  0.00000000000E+00 0. -1.
          1    1    1    2  502    0 -0.13233005546E+03  0.63104562827E+01  0.12853249647E+04  0.12921344088E+04  0.00000000000E+00 0. -1.
         22    1    3    3    0    0  0.41194913862E+02 -0.88884310568E+02 -0.57573782056E+02  0.11363178241E+03  0.00000000000E+00 0. -1.
         22    1    3    3    0    0 -0.63388414942E+01 -0.95517182103E+02  0.57858983284E+02  0.11185425756E+03  0.00000000000E+00 0. -1.
</event>
<event>
 7    1  0.6146596E-006  0.1163099E+03  0.7818608E-02  0.1275499E+00
          2   -1    0    0  502    0  0.00000000000E+00  0.00000000000E+00  0.11074890996E+04  0.11074890996E+04  0.00000000000E+00 0. -1.
          1   -1    0    0  501    0 -0.00000000000E+00 -0.00000000000E+00 -0.21768134825E+03  0.21768134825E+03  0.00000000000E+00 0. -1.
         25    2    1    2    0    0  0.41675740834E+02  0.19970697921E+03  0.62483289318E+03  0.66907447834E+03  0.12499907301E+03 0.  0.
          2    1    1    2  501    0 -0.22924209483E+02 -0.11167516403E+03 -0.17398203530E+03  0.20800627454E+03  0.00000000000E+00 0. -1.
          1    1    1    2  502    0 -0.18751531351E+02 -0.88031815182E+02  0.43895689344E+03  0.44808969494E+03  0.00000000000E+00 0. -1.
         22    1    3    3    0    0  0.84557684613E+02  0.15613414476E+03  0.48411614577E+03  0.51565135099E+03  0.00000000000E+00 0.  1.
         22    1    3    3    0    0 -0.42881943779E+02  0.43572834454E+02  0.14071674741E+03  0.15342312735E+03  0.00000000000E+00 0.  1.
</event>
<event>
 7    1  0.6146596E-006  0.5254844E+02  0.7818608E-02  0.1483613E+00
          2   -1    0    0  502    0  0.00000000000E+00  0.00000000000E+00  0.34462612217E+03  0.34462612217E+03  0.00000000000E+00 0. -1.
          1   -1    0    0  501    0 -0.00000000000E+00 -0.00000000000E+00 -0.30665082548E+03  0.30665082548E+03  0.00000000000E+00 0. -1.
         25    2    1    2    0    0 -0.14063550416E+02 -0.17081379797E+02 -0.56121894075E+02  0.13879525580E+03  0.12499959621E+03 0.  0.
          2    1    1    2  501    0  0.49121409250E+02  0.25649107031E+02 -0.20441643712E+03  0.21179440338E+03  0.00000000000E+00 0. -1.
          1    1    1    2  502    0 -0.35057858834E+02 -0.85677272337E+01  0.29851362788E+03  0.30068728847E+03  0.00000000000E+00 0. -1.
         22    1    3    3    0    0 -0.56063497863E+02  0.26393926865E+02 -0.46752264636E+02  0.77624283678E+02  0.00000000000E+00 0.  1.
         22    1    3    3    0    0  0.41999947447E+02 -0.43475306662E+02 -0.93696294384E+01  0.61170972125E+02  0.00000000000E+00 0.  1.
</event>
<event>
 7    1  0.6146596E-006  0.6282407E+02  0.7818608E-02  0.1517328E+00
          2   -1    0    0  502    0  0.00000000000E+00  0.00000000000E+00  0.17700290616E+02  0.17700290616E+02  0.00000000000E+00 0. -1.
          1   -1    0    0  501    0 -0.00000000000E+00 -0.00000000000E+00 -0.10128457341E+04  0.10128457341E+04  0.00000000000E+00 0. -1.
         25    2    1    2    0    0 -0.62649487280E+02  0.30453704271E+02 -0.56753784306E+03  0.58530040206E+03  0.12499988394E+03 0.  0.
          2    1    1    2  501    0  0.85307004229E+00 -0.23932183581E+02 -0.32068303379E+03  0.32157594017E+03  0.00000000000E+00 0. -1.
          1    1    1    2  502    0  0.61796417238E+02 -0.65215206897E+01 -0.10692456665E+03  0.12366968250E+03  0.00000000000E+00 0. -1.
         22    1    3    3    0    0 -0.39053735463E+02  0.75584410947E+02 -0.25975841205E+03  0.27333611189E+03  0.00000000000E+00 0. -1.
         22    1    3    3    0    0 -0.23595751817E+02 -0.45130706677E+02 -0.30777943101E+03  0.31196429017E+03  0.00000000000E+00 0. -1.
</event>
<event>
 7    1  0.6146596E-006  0.1213056E+03  0.7818608E-02  0.1344776E+00
          2   -1    0    0  502    0  0.00000000000E+00  0.00000000000E+00  0.34609247772E+03  0.34609247772E+03  0.00000000000E+00 0. -1.
          1   -1    0    0  501    0 -0.00000000000E+00 -0.00000000000E+00 -0.99953760939E+03  0.99953760939E+03  0.00000000000E+00 0. -1.
         25    2    1    2    0    0 -0.85173652917E+02 -0.89561071833E+02 -0.26741015781E+03  0.32001312517E+03  0.12499788417E+03 0.  0.
          2    1    1    2  501    0 -0.25141691943E+02  0.38534141633E+02 -0.69348691849E+03  0.69501157606E+03  0.00000000000E+00 0. -1.
          1    1    1    2  502    0  0.11031534486E+03  0.51026930201E+02  0.30745194462E+03  0.33060538587E+03  0.00000000000E+00 0. -1.
         22    1    3    3    0    0 -0.10372376366E+03 -0.73171435581E+02 -0.26656550398E+03  0.29524539970E+03  0.00000000000E+00 0. -1.
         22    1    3    3    0    0  0.18550110740E+02 -0.16389636252E+02 -0.84465382574E+00  0.24767725472E+02  0.00000000000E+00 0. -1.
</event>
<event>
 7    1  0.6146596E-006  0.1060210E+03  0.7818608E-02  0.1344858E+00
          2   -1    0    0  502    0  0.00000000000E+00  0.00000000000E+00  0.69682398603E+03  0.69682398603E+03  0.00000000000E+00 0. -1.
          1   -1    0    0  501    0 -0.00000000000E+00 -0.00000000000E+00 -0.93961035558E+03  0.93961035558E+03  0.00000000000E+00 0. -1.
         25    2    1    2    0    0  0.10376509655E+02 -0.94900311886E+02  0.40442467502E+02  0.16235879462E+03  0.12494416299E+03 0.  0.
          2    1    1    2  501    0 -0.62333261853E+02  0.86654244814E+02 -0.87423750709E+03  0.88073015872E+03  0.00000000000E+00 0. -1.
          1    1    1    2  502    0  0.51956752198E+02  0.82460670726E+01  0.59100867004E+03  0.59334538827E+03  0.00000000000E+00 0. -1.
         22    1    3    3    0    0 -0.47754636809E+02 -0.31409910085E+02 -0.16080913287E+02  0.59377466774E+02  0.00000000000E+00 0.  1.
         22    1    3    3    0    0  0.58131146465E+02 -0.63490401801E+02  0.56523380789E+02  0.10298132785E+03  0.00000000000E+00 0.  1.
</event>
<event>
 7    1  0.6146596E-006  0.3523435E+03  0.7818608E-02  0.1225182E+00
          2   -1    0    0  502    0  0.00000000000E+00  0.00000000000E+00  0.77145291043E+02  0.77145291043E+02  0.00000000000E+00 0. -1.
          1   -1    0    0  501    0 -0.00000000000E+00 -0.00000000000E+00 -0.35464727654E+04  0.35464727654E+04  0.00000000000E+00 0. -1.
         25    2    1    2    0    0  0.12523336278E+02 -0.34398952217E+03 -0.94084619651E+03  0.10096049987E+04  0.12500025002E+03 0.  0.
          2    1    1    2  501    0  0.47871890195E+02 -0.10962290935E+02 -0.18071179724E+04  0.18077851796E+04  0.00000000000E+00 0. -1.
          1    1    1    2  502    0 -0.60395226473E+02  0.35495181311E+03 -0.72136330551E+03  0.80622787818E+03  0.00000000000E+00 0. -1.
         22    1    3    3    0    0 -0.13303022545E+01  0.72531412617E+01 -0.28489021230E+01  0.79053150195E+01  0.00000000000E+00 0.  1.
         22    1    3    3    0    0  0.13853638533E+02 -0.35124266343E+03 -0.93799729438E+03  0.10016996836E+04  0.00000000000E+00 0.  1.
</event>
<event>
 7    1  0.6146596E-006  0.1627260E+03  0.7818608E-02  0.1359351E+00
          2   -1    0    0  502    0  0.00000000000E+00  0.00000000000E+00  0.54759325908E+03  0.54759325908E+03  0.00000000000E+00 0. -1.
          1   -1    0    0  501    0 -0.00000000000E+00 -0.00000000000E+00 -0.93755837127E+03  0.93755837127E+03  0.00000000000E+00 0. -1.
         25    2    1    2    0    0 -0.14426434291E+03 -0.23796323638E+02 -0.79559881958E+01  0.19253020672E+03  0.12500446831E+03 0.  0.
          2    1    1    2  501    0  0.16431150293E+03  0.10756638561E+01 -0.82873580843E+03  0.84486831354E+03  0.00000000000E+00 0. -1.
          1    1    1    2  502    0 -0.20047160019E+02  0.22720659782E+02  0.44672668444E+03  0.44775311009E+03  0.00000000000E+00 0. -1.
         22    1    3    3    0    0  0.41326072560E+01 -0.24306821850E+02 -0.33862973017E+02  0.41887957372E+02  0.00000000000E+00 0.  1.
         22    1    3    3    0    0 -0.14839695016E+03  0.51049821201E+00  0.25906984821E+02  0.15064224935E+03  0.00000000000E+00 0.  1.
</event>
<event>
 7    1  0.6146596E-006  0.5359360E+02  0.7818608E-02  0.1432396E+00
          2   -1    0    0  502    0  0.00000000000E+00  0.00000000000E+00  0.15016524101E+04  0.15016524101E+04  0.00000000000E+00 0. -1.
          1   -1    0    0  501    0 -0.00000000000E+00 -0.00000000000E+00 -0.75658802177E+03  0.75658802177E+03  0.00000000000E+00 0. -1.
         25    2    1    2    0    0 -0.35273142194E+02 -0.65766793427E+02  0.80406192433E+03  0.81713497177E+03  0.12499807296E+03 0.  0.
          2    1    1    2  501    0  0.50890472164E+02  0.16803677797E+02 -0.74813608370E+03  0.75005320043E+03  0.00000000000E+00 0. -1.
          1    1    1    2  502    0 -0.15617329970E+02  0.48963115629E+02  0.68913854765E+03  0.69105225963E+03  0.00000000000E+00 0. -1.
         22    1    3    3    0    0 -0.46831825768E+01 -0.23340048474E+02  0.19338423566E+02  0.30670257382E+02  0.00000000000E+00 0. -1.
         22    1    3    3    0    0 -0.30589959617E+02 -0.42426744952E+02  0.78472350077E+03  0.78646471439E+03  0.00000000000E+00 0. -1.
</event>
<event>
 7    1  0.6146596E-006  0.1044453E+03  0.7818608E-02  0.1281295E+00
          2   -1    0    0  502    0  0.00000000000E+00  0.00000000000E+00  0.90891835599E+03  0.90891835599E+03  0.00000000000E+00 0. -1.
          1   -1    0    0  501    0 -0.00000000000E+00 -0.00000000000E+00 -0.88898283052E+02  0.88898283052E+02  0.00000000000E+00 0. -1.
         25    2    1    2    0    0  0.36187899448E+02 -0.46901345742E+02  0.38815397419E+03  0.41206727205E+03  0.12500651469E+03 0.  0.
          2    1    1    2  501    0  0.38387459837E+02  0.10549318384E+03 -0.28413692543E+02  0.11580046129E+03  0.00000000000E+00 0. -1.
          1    1    1    2  502    0 -0.74575359285E+02 -0.58591838102E+02  0.46027979130E+03  0.46994890571E+03  0.00000000000E+00 0. -1.
         22    1    3    3    0    0 -0.24705643379E+02 -0.10629379277E+01  0.27211081479E+03  0.27323212509E+03  0.00000000000E+00 0.  1.
         22    1    3    3    0    0  0.60893542828E+02 -0.45838407814E+02  0.11604315940E+03  0.13883514696E+03  0.00000000000E+00 0.  1.
</event>
<event>
 7    1  0.6146596E-006  0.4133667E+02  0.7818608E-02  0.1530808E+00
          2   -1    0    0  502    0  0.00000000000E+00  0.00000000000E+00  0.10117235305E+04  0.10117235305E+04  0.00000000000E+00 0. -1.
          1   -1    0    0  501    0 -0.00000000000E+00 -0.00000000000E+00 -0.35292003873E+02  0.35292003873E+02  0.00000000000E+00 0. -1.
         25    2    1    2    0    0  0.30649823425E+02 -0.12052418559E+02  0.13746293934E+03  0.18870042836E+03  0.12500847773E+03 0.  0.
          2    1    1    2  501    0 -0.18244943399E+02 -0.27827148150E+02  0.21143484498E+02  0.39424295434E+02  0.00000000000E+00 0. -1.
          1    1    1    2  502    0 -0.12404880026E+02  0.39879566709E+02  0.81782510283E+03  0.81889081061E+03  0.00000000000E+00 0. -1.
         22    1    3    3    0    0  0.61992951893E+02 -0.49029767092E+02  0.99844584040E+02  0.12734200056E+03  0.00000000000E+00 0.  1.
         22    1    3    3    0    0 -0.31343128468E+02  0.36977348533E+02  0.37618355296E+02  0.61358427799E+02  0.00000000000E+00 0.  1.
</event>
<event>
 7    1  0.6146596E-006  0.2220565E+03  0.7818608E-02  0.1170311E+00
          2   -1    0    0  502    0  0.00000000000E+00  0.00000000000E+00  0.55031750277E+03  0.55031750277E+03  0.00000000000E+00 0. -1.
          1   -1    0    0  501    0 -0.00000000000E+00 -0.00000000000E+00 -0.32123824774E+03  0.32123824774E+03  0.00000000000E+00 0. -1.
         25    2    1    2    0    0 -0.82562792741E+02  0.95285462471E+02  0.95662061705E+02  0.20167453026E+03  0.12500180800E+03 0.  0.
          2    1    1    2  501    0  0.17920970418E+03 -0.19901611147E+03 -0.18217876765E+03  0.32390219832E+03  0.00000000000E+00 0. -1.
          1    1    1    2  502    0 -0.96646911437E+02  0.10373064900E+03  0.31559596098E+03  0.34597902193E+03  0.00000000000E+00 0. -1.
         22    1    3    3    0    0 -0.25849801572E+02  0.11471596431E+03  0.63031523225E+02  0.13342015450E+03  0.00000000000E+00 0. -1.
         22    1    3    3    0    0 -0.56712991169E+02 -0.19430501835E+02  0.32630538480E+02  0.68254375760E+02  0.00000000000E+00 0. -1.
</event>
<event>
 7    1  0.6146596E-006  0.9324973E+02  0.7818608E-02  0.1385182E+00
          2   -1    0    0  502    0  0.00000000000E+00  0.00000000000E+00  0.21674993775E+04  0.21674993775E+04  0.00000000000E+00 0. -1.
          1   -1    0    0  501    0 -0.00000000000E+00 -0.00000000000E+00 -0.69826327374E+03  0.69826327374E+03  0.00000000000E+00 0. -1.
         25    2    1    2    0    0 -0.57709314837E+02 -0.76335195342E+02  0.84867941966E+02  0.17884735485E+03  0.12500552666E+03 0.  0.
          2    1    1    2  501    0  0.39871596331E+02 -0.15357276191E+02 -0.64949965070E+03  0.65090351542E+03  0.00000000000E+00 0. -1.
          1    1    1    2  502    0  0.17837718506E+02  0.91692471532E+02  0.20338678125E+04  0.20360117810E+04  0.00000000000E+00 0. -1.
         22    1    3    3    0    0  0.32440250046E+02 -0.51523429393E+02  0.50926004915E+02  0.79375635910E+02  0.00000000000E+00 0.  1.
         22    1    3    3    0    0 -0.90149564883E+02 -0.24811765949E+02  0.33941937051E+02  0.99471718940E+02  0.00000000000E+00 0.  1.
</event>
<event>
 7    1  0.6146596E-006  0.8319493E+02  0.7818608E-02  0.1342495E+00
          2   -1    0    0  502    0  0.00000000000E+00  0.00000000000E+00  0.67416319347E+03  0.67416319347E+03  0.00000000000E+00 0. -1.
          1   -1    0    0  501    0 -0.00000000000E+00 -0.00000000000E+00 -0.31706753460E+03  0.31706753460E+03  0.00000000000E+00 0. -1.
         25    2    1    2    0    0  0.36801800314E+02  0.13444218598E+03  0.24830219885E+02  0.18886608230E+03  0.12499913338E+03 0.  0.
          2    1    1    2  501    0  0.44735454692E+01 -0.79875650964E+02 -0.22609323493E+03  0.23982969605E+03  0.00000000000E+00 0. -1.
          1    1    1    2  502    0 -0.41275345783E+02 -0.54566535017E+02  0.55835867392E+03  0.56253494971E+03  0.00000000000E+00 0. -1.
         22    1    3    3    0    0  0.18833361596E+02  0.11595455611E+03  0.70078421917E+02  0.13678866843E+03  0.00000000000E+00 0.  1.
         22    1    3    3    0    0  0.17968438718E+02  0.18487629868E+02 -0.45248202032E+02  0.52077413868E+02  0.00000000000E+00 0.  1.
</event>
<event>
 7    1  0.6146596E-006  0.9444767E+02  0.7818608E-02  0.1397220E+00
          2   -1    0    0  502    0  0.00000000000E+00  0.00000000000E+00  0.14243758324E+04  0.14243758324E+04  0.00000000000E+00 0. -1.
          1   -1    0    0  501    0 -0.00000000000E+00 -0.00000000000E+00 -0.66463011402E+03  0.66463011402E+03  0.00000000000E+00 0. -1.
         25    2    1    2    0    0 -0.29811593513E+02  0.57881234988E+02 -0.43290282467E+03  0.45526742142E+03  0.12499840371E+03 0.  0.
          2    1    1    2  501    0  0.14529188378E+02  0.35439290431E+02 -0.21728618664E+03  0.22063618816E+03  0.00000000000E+00 0. -1.
          1    1    1    2  502    0  0.15282405136E+02 -0.93320525419E+02  0.14099347297E+04  0.14131023368E+04  0.00000000000E+00 0. -1.
         22    1    3    3    0    0 -0.55108446734E+02  0.50499196852E+01 -0.34643554170E+03  0.35082763167E+03  0.00000000000E+00 0. -1.
         22    1    3    3    0    0  0.25296853221E+02  0.52831315303E+02 -0.86467282969E+02  0.10443978975E+03  0.00000000000E+00 0. -1.
</event>
<event>
 7    1  0.6146596E-006  0.6877152E+02  0.7818608E-02  0.1530575E+00
          2   -1    0    0  502    0  0.00000000000E+00  0.00000000000E+00  0.28668504491E+04  0.28668504491E+04  0.00000000000E+00 0. -1.
          1   -1    0    0  501    0 -0.00000000000E+00 -0.00000000000E+00 -0.97108319774E+02  0.97108319774E+02  0.00000000000E+00 0. -1.
         25    2    1    2    0    0 -0.54025352522E+02  0.54668657712E+02  0.69137497272E+03  0.70677611458E+03  0.12500288950E+03 0.  0.
          2    1    1    2  501    0  0.19550463041E+02  0.43633837528E+01 -0.87739715137E+02  0.89997318489E+02  0.00000000000E+00 0. -1.
          1    1    1    2  502    0  0.34474889481E+02 -0.59032041465E+02  0.21661068717E+04  0.21671853358E+04  0.00000000000E+00 0. -1.
         22    1    3    3    0    0 -0.14365124596E+02 -0.40088203015E+02  0.16042607263E+03  0.16598176287E+03  0.00000000000E+00 0. -1.
         22    1    3    3    0    0 -0.39660227926E+02  0.94756860727E+02  0.53094890010E+03  0.54079435172E+03  0.00000000000E+00 0. -1.
</event>
<event>
 7    1  0.6146596E-006  0.4494309E+02  0.7818608E-02  0.1535176E+00
          2   -1    0    0  502    0  0.00000000000E+00  0.00000000000E+00  0.69878972307E+03  0.69878972307E+03  0.00000000000E+00 0. -1.
          1   -1    0    0  501    0 -0.00000000000E+00 -0.00000000000E+00 -0.10408805792E+03  0.10408805792E+03  0.00000000000E+00 0. -1.
         25    2    1    2    0    0  0.46771902895E+02  0.52555834887E+02  0.12243568044E+03  0.18858744700E+03  0.12500001056E+03 0.  0.
          2    1    1    2  501    0 -0.98536488275E+01 -0.28059199588E+02 -0.66949615864E+02  0.73257519349E+02  0.00000000000E+00 0. -1.
          1    1    1    2  502    0 -0.36918254068E+02 -0.24496635299E+02  0.53921560057E+03  0.54103281465E+03  0.00000000000E+00 0. -1.
         22    1    3    3    0    0  0.63548385568E+02  0.79430718126E+02  0.58783509298E+02  0.11748675353E+03  0.00000000000E+00 0. -1.
         22    1    3    3    0    0 -0.16776482673E+02 -0.26874883239E+02  0.63652171146E+02  0.71100693468E+02  0.00000000000E+00 0. -1.
</event>
<event>
 7    1  0.6146596E-006  0.1068081E+03  0.7818608E-02  0.1286267E+00
          2   -1    0    0  502    0  0.00000000000E+00  0.00000000000E+00  0.72588087183E+03  0.72588087183E+03  0.00000000000E+00 0. -1.
          1   -1    0    0  501    0 -0.00000000000E+00 -0.00000000000E+00 -0.87574101062E+03  0.87574101062E+03  0.00000000000E+00 0. -1.
         25    2    1    2    0    0 -0.37273193091E+02  0.53689510491E+02  0.92133016423E+02  0.16847859351E+03  0.12499875718E+03 0.  0.
          2    1    1    2  501    0 -0.36660457606E+02 -0.10229745006E+03 -0.83072361251E+03  0.83780097746E+03  0.00000000000E+00 0. -1.
          1    1    1    2  502    0  0.73933650697E+02  0.48607939572E+02  0.58873045730E+03  0.59534231149E+03  0.00000000000E+00 0. -1.
         22    1    3    3    0    0 -0.20460936254E+02 -0.40462095242E+02  0.32178904317E+02  0.55599576859E+02  0.00000000000E+00 0.  1.
         22    1    3    3    0    0 -0.16812256837E+02  0.94151605734E+02  0.59954112106E+02  0.11287901665E+03  0.00000000000E+00 0.  1.
</event>
<event>
 7    1  0.6146596E-006  0.2268072E+03  0.7818608E-02  0.1223347E+00
          2   -1    0    0  502    0  0.00000000000E+00  0.00000000000E+00  0.22733783917E+04  0.22733783917E+04  0.00000000000E+00 0. -1.
          1   -1    0    0  501    0 -0.00000000000E+00 -0.00000000000E+00 -0.27884601383E+03  0.27884601383E+03  0.00000000000E+00 0. -1.
         25    2    1    2    0    0 -0.25093644613E+03  0.73169140175E+02  0.55326903256E+03  0.62454242363E+03  0.12499517372E+03 0.  0.
          2    1    1    2  501    0  0.63585003842E+02  0.44773524538E+02 -0.22949859991E+03  0.24231658749E+03  0.00000000000E+00 0. -1.
          1    1    1    2  502    0  0.18735144229E+03 -0.11794266471E+03  0.16707619452E+04  0.16853653944E+04  0.00000000000E+00 0. -1.
         22    1    3    3    0    0 -0.13639124690E+02  0.41179098345E+02  0.14382250553E+03  0.15022202555E+03  0.00000000000E+00 0. -1.
         22    1    3    3    0    0 -0.23729732144E+03  0.31990041831E+02  0.40944652703E+03  0.47432039808E+03  0.00000000000E+00 0. -1.
</event>
<event>
 7    1  0.6146596E-006  0.9590675E+02  0.7818608E-02  0.1435573E+00
          2   -1    0    0  502    0  0.00000000000E+00  0.00000000000E+00  0.11573578709E+04  0.11573578709E+04  0.00000000000E+00 0. -1.
          1   -1    0    0  501    0 -0.00000000000E+00 -0.00000000000E+00 -0.25406897101E+03  0.25406897101E+03  0.00000000000E+00 0. -1.
         25    2    1    2    0    0 -0.65467800953E+02  0.98516589673E+02  0.13702115680E+03  0.21998171595E+03  0.12500242613E+03 0.  0.
          2    1    1    2  501    0  0.63065358878E+02 -0.70580007435E+02 -0.20184029322E+03  0.22293111247E+03  0.00000000000E+00 0. -1.
          1    1    1    2  502    0  0.24024420746E+01 -0.27936582238E+02  0.96810803631E+03  0.96851401348E+03  0.00000000000E+00 0. -1.
         22    1    3    3    0    0 -0.37113881131E+02  0.12673004206E+03  0.10725468125E+03  0.17012204555E+03  0.00000000000E+00 0. -1.
         22    1    3    3    0    0 -0.28353919822E+02 -0.28213452389E+02  0.29766475552E+02  0.49859670394E+02  0.00000000000E+00 0. -1.
</event>
<event>
 7    1  0.6146596E-006  0.1956328E+03  0.7818608E-02  0.1218036E+00
          2   -1    0    0  502    0  0.00000000000E+00  0.00000000000E+00  0.25874820987E+04  0.25874820987E+04  0.00000000000E+00 0. -1.
          1   -1    0    0  501    0 -0.00000000000E+00 -0.00000000000E+00 -0.65527296115E+02  0.65527296115E+02  0.00000000000E+00 0. -1.
         25    2    1    2    0    0 -0.15453662067E+03  0.76927160429E+02  0.79077327545E+03  0.81899177067E+03  0.12500316842E+03 0.  0.
          2    1    1    2  501    0 -0.57693427894E+02 -0.75881302436E+02  0.56577055022E+01  0.95490906966E+02  0.00000000000E+00 0. -1.
          1    1    1    2  502    0  0.21223004857E+03 -0.10458579925E+01  0.17255238217E+04  0.17385267172E+04  0.00000000000E+00 0. -1.
         22    1    3    3    0    0  0.17738868846E+02  0.27437885925E+02  0.93318153024E+02  0.98872558053E+02  0.00000000000E+00 0.  1.
         22    1    3    3    0    0 -0.17227548952E+03  0.49489274504E+02  0.69745512242E+03  0.72011921261E+03  0.00000000000E+00 0.  1.
</event>
<event>
 7    1  0.6146596E-006  0.7951581E+02  0.7818608E-02  0.1334983E+00
          2   -1    0    0  502    0  0.00000000000E+00  0.00000000000E+00  0.90762643999E+03  0.90762643999E+03  0.00000000000E+00 0. -1.
          1   -1    0    0  501    0 -0.00000000000E+00 -0.00000000000E+00 -0.38452629708E+02  0.38452629708E+02  0.00000000000E+00 0. -1.
         25    2    1    2    0    0 -0.39438058486E+02 -0.64423540958E+02  0.32266535519E+03  0.35418059797E+03  0.12500084581E+03 0.  0.
          2    1    1    2  501    0  0.78924023132E+02 -0.96831225374E+01  0.63817073036E+02  0.10195775155E+03  0.00000000000E+00 0. -1.
          1    1    1    2  502    0 -0.39485964646E+02  0.74106663496E+02  0.48269138205E+03  0.48994072017E+03  0.00000000000E+00 0. -1.
         22    1    3    3    0    0 -0.33514982702E+02 -0.22829943961E+02  0.14350267617E+02  0.43016166583E+02  0.00000000000E+00 0.  1.
         22    1    3    3    0    0 -0.59230757842E+01 -0.41593596997E+02  0.30831508757E+03  0.31116443139E+03  0.00000000000E+00 0.  1.
</event>
<event>
 7    1  0.6146596E-006  0.6081870E+02  0.7818608E-02  0.1435226E+00
          2   -1    0    0  502    0  0.00000000000E+00  0.00000000000E+00  0.82689770503E+03  0.82689770503E+03  0.00000000000E+00 0. -1.
          1   -1    0    0  501    0 -0.00000000000E+00 -0.00000000000E+00 -0.15286818502E+03  0.15286818502E+03  0.00000000000E+00 0. -1.
         25    2    1    2    0    0  0.21228194327E+01  0.20066439291E+02  0.65184369863E+02  0.14241420840E+03  0.12500254530E+03 0.  0.
          2    1    1    2  501    0 -0.12305196927E+02 -0.63213263225E+02 -0.10443523309E+03  0.12269495683E+03  0.00000000000E+00 0. -1.
          1    1    1    2  502    0  0.10182377494E+02  0.43146823934E+02  0.71328038324E+03  0.71465672482E+03  0.00000000000E+00 0. -1.
         22    1    3    3    0    0 -0.15321613998E+02  0.66861764211E+02  0.12323624408E+02  0.69693034712E+02  0.00000000000E+00 0.  1.
         22    1    3    3    0    0  0.17444433430E+02 -0.46795324919E+02  0.52860745455E+02  0.72721173684E+02  0.00000000000E+00 0.  1.
</event>
<event>
 7    1  0.6146596E-006  0.1090721E+03  0.7818608E-02  0.1406292E+00
          2   -1    0    0  502    0  0.00000000000E+00  0.00000000000E+00  0.12035175886E+04  0.12035175886E+04  0.00000000000E+00 0. -1.
          1   -1    0    0  501    0 -0.00000000000E+00 -0.00000000000E+00 -0.69678320503E+03  0.69678320503E+03  0.00000000000E+00 0. -1.
         25    2    1    2    0    0  0.74317077251E+02  0.65340110933E+02 -0.41899709431E+03  0.44830449841E+03  0.12500400069E+03 0.  0.
          2    1    1    2  501    0 -0.10439974516E+03 -0.58397011910E+02 -0.24932380769E+03  0.27653549296E+03  0.00000000000E+00 0. -1.
          1    1    1    2  502    0  0.30082667911E+02 -0.69430990228E+01  0.11750552856E+04  0.11754608023E+04  0.00000000000E+00 0. -1.
         22    1    3    3    0    0  0.40627113057E+02  0.53653457743E+02 -0.40408781511E+03  0.40965377841E+03  0.00000000000E+00 0. -1.
         22    1    3    3    0    0  0.33689964194E+02  0.11686653190E+02 -0.14909279192E+02  0.38650719996E+02  0.00000000000E+00 0. -1.
</event>
<event>
 7    1  0.6146596E-006  0.7952787E+02  0.7818608E-02  0.1391774E+00
          2   -1    0    0  502    0  0.00000000000E+00  0.00000000000E+00  0.18972677036E+03  0.18972677036E+03  0.00000000000E+00 0. -1.
          1   -1    0    0  501    0 -0.00000000000E+00 -0.00000000000E+00 -0.56074005551E+03  0.56074005551E+03  0.00000000000E+00 0. -1.
         25    2    1    2    0    0  0.42722091203E+02 -0.11368775088E+03  0.10340366400E+02  0.17458999870E+03  0.12499865076E+03 0.  0.
          2    1    1    2  501    0 -0.12339591881E+02  0.77163920399E+02 -0.46938416454E+03  0.47584454401E+03  0.00000000000E+00 0. -1.
          1    1    1    2  502    0 -0.30382499322E+02  0.36523830482E+02  0.88030512992E+02  0.10003228317E+03  0.00000000000E+00 0. -1.
         22    1    3    3    0    0  0.57721131487E+02 -0.13480984892E+03 -0.13236106241E+00  0.14664733856E+03  0.00000000000E+00 0.  1.
         22    1    3    3    0    0 -0.14999040284E+02  0.21122098042E+02  0.10472727462E+02  0.27942660139E+02  0.00000000000E+00 0.  1.
</event>
<event>
 7    1  0.6146596E-006  0.5472365E+02  0.7818608E-02  0.1547699E+00
          2   -1    0    0  502    0  0.00000000000E+00  0.00000000000E+00  0.55485454789E+03  0.55485454789E+03  0.00000000000E+00 0. -1.
          1   -1    0    0  501    0 -0.00000000000E+00 -0.00000000000E+00 -0.57874375452E+03  0.57874375452E+03  0.00000000000E+00 0. -1.
         25    2    1    2    0    0 -0.23774776842E+02  0.49228003480E+02 -0.13343045456E+03  0.19083315366E+03  0.12499987997E+03 0.  0.
          2    1    1    2  501    0 -0.17883725508E+02 -0.13679167389E+02 -0.41488083339E+03  0.41549133947E+03  0.00000000000E+00 0. -1.
          1    1    1    2  502    0  0.41658502350E+02 -0.35548836091E+02  0.52442208133E+03  0.52727380928E+03  0.00000000000E+00 0. -1.
         22    1    3    3    0    0  0.28614009709E+01  0.28439595247E+02  0.19248509689E+02  0.34460170031E+02  0.00000000000E+00 0.  1.
         22    1    3    3    0    0 -0.26636177813E+02  0.20788408234E+02 -0.15267896425E+03  0.15637298363E+03  0.00000000000E+00 0.  1.
</event>
<event>
 7    1  0.6146596E-006  0.1024416E+03  0.7818608E-02  0.1375777E+00
          2   -1    0    0  502    0  0.00000000000E+00  0.00000000000E+00  0.53969273427E+03  0.53969273427E+03  0.00000000000E+00 0. -1.
          1   -1    0    0  501    0 -0.00000000000E+00 -0.00000000000E+00 -0.62141122266E+03  0.62141122266E+03  0.00000000000E+00 0. -1.
         25    2    1    2    0    0  0.11019874144E+03 -0.96911452308E+01  0.14541748273E+03  0.22137977119E+03  0.12500031159E+03 0.  0.
          2    1    1    2  501    0 -0.19418112737E+02 -0.37231780903E+02 -0.57532168359E+03  0.57685206789E+03  0.00000000000E+00 0. -1.
          1    1    1    2  502    0 -0.90780628706E+02  0.46922926134E+02  0.34818571247E+03  0.36287211785E+03  0.00000000000E+00 0. -1.
         22    1    3    3    0    0  0.43161304950E+02  0.24534914030E+02 -0.81936097331E+01  0.50318937706E+02  0.00000000000E+00 0. -1.
         22    1    3    3    0    0  0.67037436493E+02 -0.34226059261E+02  0.15361109247E+03  0.17106083349E+03  0.00000000000E+00 0. -1.
</event>
<event>
 7    1  0.6146596E-006  0.6399379E+02  0.7818608E-02  0.1411286E+00
          2   -1    0    0  502    0  0.00000000000E+00  0.00000000000E+00  0.38165972937E+04  0.38165972937E+04  0.00000000000E+00 0. -1.
          1   -1    0    0  501    0 -0.00000000000E+00 -0.00000000000E+00 -0.47283193237E+02  0.47283193237E+02  0.00000000000E+00 0. -1.
         25    2    1    2    0    0 -0.19510360183E+02 -0.50945167526E+02  0.18986615824E+03  0.23378372619E+03  0.12501843200E+03 0.  0.
          2    1    1    2  501    0  0.64023710227E+02  0.26870259595E+02  0.22789195462E+02  0.73077997727E+02  0.00000000000E+00 0. -1.
          1    1    1    2  502    0 -0.44513350044E+02  0.24074907931E+02  0.35566587468E+04  0.35570187630E+04  0.00000000000E+00 0. -1.
         22    1    3    3    0    0  0.33068283956E+02  0.26418259642E+02  0.69041732756E+02  0.80982693881E+02  0.00000000000E+00 0.  1.
         22    1    3    3    0    0 -0.52578644139E+02 -0.77363427168E+02  0.12082442548E+03  0.15280103231E+03  0.00000000000E+00 0.  1.
</event>
<event>
 7    1  0.6146596E-006  0.3492440E+03  0.7818608E-02  0.1179145E+00
          2   -1    0    0  502    0  0.00000000000E+00  0.00000000000E+00  0.41166260706E+04  0.41166260706E+04  0.00000000000E+00 0. -1.
          1   -1    0    0  501    0 -0.00000000000E+00 -0.00000000000E+00 -0.22789644892E+04  0.22789644892E+04  0.00000000000E+00 0. -1.
         25    2    1    2    0    0 -0.39041096115E+03 -0.94442243740E+02  0.34239486753E+03  0.54240109862E+03  0.12499860193E+03 0.  0.
          2    1    1    2  501    0  0.46120508142E+02  0.67255133911E+02 -0.21700781557E+04  0.21716098997E+04  0.00000000000E+00 0. -1.
          1    1    1    2  502    0  0.34429045301E+03  0.27187109829E+02  0.36653448696E+04  0.36815795615E+04  0.00000000000E+00 0. -1.
         22    1    3    3    0    0 -0.27509997553E+03 -0.94280202319E+02  0.30441690222E+03  0.42099691619E+03  0.00000000000E+00 0.  1.
         22    1    3    3    0    0 -0.11531098562E+03 -0.16204142117E+00  0.37977965315E+02  0.12140418243E+03  0.00000000000E+00 0.  1.
</event>
<event>
 7    1  0.6146596E-006  0.1026629E+03  0.7818608E-02  0.1305859E+00
          2   -1    0    0  502    0  0.00000000000E+00  0.00000000000E+00  0.13482196508E+03  0.13482196508E+03  0.00000000000E+00 0. -1.
          1   -1    0    0  501    0 -0.00000000000E+00 -0.00000000000E+00 -0.70527159712E+03  0.70527159712E+03  0.00000000000E+00 0. -1.
         25    2    1    2    0    0 -0.41471366701E+02 -0.48677243778E+02 -0.11137711565E+03  0.17921553839E+03  0.12499599591E+03 0.  0.
          2    1    1    2  501    0 -0.23523028286E+01  0.11169320773E+03 -0.53876887339E+03  0.55022977465E+03  0.00000000000E+00 0. -1.
          1    1    1    2  502    0  0.43823669529E+02 -0.63015963956E+02  0.79696356994E+02  0.11064824916E+03  0.00000000000E+00 0. -1.
         22    1    3    3    0    0 -0.45616121029E+02 -0.22376575656E+02  0.12652299319E+02  0.52360503377E+02  0.00000000000E+00 0. -1.
         22    1    3    3    0    0  0.41447543281E+01 -0.26300668122E+02 -0.12402941497E+03  0.12685503502E+03  0.00000000000E+00 0. -1.
</event>
<event>
 7    1  0.6146596E-006  0.1620210E+03  0.7818608E-02  0.1246625E+00
          2   -1    0    0  502    0  0.00000000000E+00  0.00000000000E+00  0.19930724947E+03  0.19930724947E+03  0.00000000000E+00 0. -1.
          1   -1    0    0  501    0 -0.00000000000E+00 -0.00000000000E+00 -0.69499475267E+03  0.69499475267E+03  0.00000000000E+00 0. -1.
         25    2    1    2    0    0 -0.12992323735E+02 -0.85947712237E+02  0.25357158388E+02  0.15434891746E+03  0.12499917250E+03 0.  0.
          2    1    1    2  501    0  0.38732284481E+02  0.16776866669E+03 -0.59948402688E+03  0.62372078197E+03  0.00000000000E+00 0. -1.
          1    1    1    2  502    0 -0.25739960746E+02 -0.81820954451E+02  0.78439365283E+02  0.11623230271E+03  0.00000000000E+00 0. -1.
         22    1    3    3    0    0  0.14708950115E+01 -0.11500549985E+03  0.35455876172E+02  0.12035592085E+03  0.00000000000E+00 0. -1.
         22    1    3    3    0    0 -0.14463218746E+02  0.29057787618E+02 -0.10098717785E+02  0.33992996612E+02  0.00000000000E+00 0. -1.
</event>
<event>
 7    1  0.6146596E-006  0.7223882E+02  0.7818608E-02  0.1363554E+00
          2   -1    0    0  502    0  0.00000000000E+00  0.00000000000E+00  0.55771479036E+03  0.55771479036E+03  0.00000000000E+00 0. -1.
          1   -1    0    0  501    0 -0.00000000000E+00 -0.00000000000E+00 -0.14593549502E+03  0.14593549502E+03  0.00000000000E+00 0. -1.
         25    2    1    2    0    0  0.11510395187E+03  0.20965128635E+01  0.14034896701E+03  0.22039976220E+03  0.12499963014E+03 0.  0.
          2    1    1    2  501    0 -0.55854037907E+02  0.34957696956E+02 -0.92000072636E+02  0.11316239434E+03  0.00000000000E+00 0. -1.
          1    1    1    2  502    0 -0.59249913965E+02 -0.37054209820E+02  0.36343040096E+03  0.37008812885E+03  0.00000000000E+00 0. -1.
         22    1    3    3    0    0  0.68246519235E+02  0.59877517321E+02  0.50996762082E+02  0.10413248394E+03  0.00000000000E+00 0.  1.
         22    1    3    3    0    0  0.46857432637E+02 -0.57781004457E+02  0.89352204929E+02  0.11626727826E+03  0.00000000000E+00 0.  1.
</event>
<event>
 7    1  0.6146596E-006  0.6395610E+02  0.7818608E-02  0.1392099E+00
          2   -1    0    0  502    0  0.00000000000E+00  0.00000000000E+00  0.47544530072E+03  0.47544530072E+03  0.00000000000E+00 0. -1.
          1   -1    0    0  501    0 -0.00000000000E+00 -0.00000000000E+00 -0.35610886922E+03  0.35610886922E+03  0.00000000000E+00 0. -1.
         25    2    1    2    0    0  0.11693391055E+03 -0.56047683520E+01  0.69456014385E+00  0.17126210477E+03  0.12500109301E+03 0.  0.
          2    1    1    2  501    0 -0.55847142093E+02  0.18786329367E+02 -0.26506218714E+03  0.27153230471E+03  0.00000000000E+00 0. -1.
          1    1    1    2  502    0 -0.61086768459E+02 -0.13181561015E+02  0.38370405851E+03  0.38875976045E+03  0.00000000000E+00 0. -1.
         22    1    3    3    0    0  0.11828286066E+03 -0.11855084787E+02 -0.43517174346E+02  0.12659037335E+03  0.00000000000E+00 0.  1.
         22    1    3    3    0    0 -0.13489501091E+01  0.62503164348E+01  0.44211734490E+02  0.44671731426E+02  0.00000000000E+00 0.  1.
</event>
<event>
 7    1  0.6146596E-006  0.5902652E+02  0.7818608E-02  0.1519547E+00
          2   -1    0    0  502    0  0.00000000000E+00  0.00000000000E+00  0.20034310111E+03  0.20034310111E+03  0.00000000000E+00 0. -1.
          1   -1    0    0  501    0 -0.00000000000E+00 -0.00000000000E+00 -0.22286624739E+03  0.22286624739E+03  0.00000000000E+00 0. -1.
         25    2    1    2    0    0 -0.10535946307E+02  0.75849569458E+02 -0.89521200496E+02  0.17176459395E+03  0.12499946818E+03 0.  0.
          2    1    1    2  501    0 -0.12089375092E+02 -0.22010477184E+02 -0.84990366926E+02  0.88622663953E+02  0.00000000000E+00 0. -1.
          1    1    1    2  502    0  0.22625321399E+02 -0.53839092274E+02  0.15198842114E+03  0.16282209060E+03  0.00000000000E+00 0. -1.
         22    1    3    3    0    0 -0.31254757558E+00  0.74230067903E+02  0.71193054521E+01  0.74571342867E+02  0.00000000000E+00 0. -1.
         22    1    3    3    0    0 -0.10223398731E+02  0.16195015555E+01 -0.96640505948E+02  0.97193251087E+02  0.00000000000E+00 0. -1.
</event>
<event>
 7    1  0.6146596E-006  0.6786875E+02  0.7818608E-02  0.1499106E+00
          2   -1    0    0  502    0  0.00000000000E+00  0.00000000000E+00  0.81492791522E+03  0.81492791522E+03  0.00000000000E+00 0. -1.
          1   -1    0    0  501    0 -0.00000000000E+00 -0.00000000000E+00 -0.22771512375E+02  0.22771512375E+02  0.00000000000E+00 0. -1.
         25    2    1    2    0    0  0.77722333416E+02 -0.28622768247E+02  0.55906118771E+03  0.57882074888E+03  0.12499609498E+03 0.  0.
          2    1    1    2  501    0 -0.65472090902E+02  0.67275079889E+01  0.79321205910E+02  0.10307137215E+03  0.00000000000E+00 0. -1.
          1    1    1    2  502    0 -0.12250242514E+02  0.21895260258E+02  0.15377400923E+03  0.15580730656E+03  0.00000000000E+00 0. -1.
         22    1    3    3    0    0 -0.16174825311E+02 -0.29880020015E+02  0.45728989965E+02  0.56970001695E+02  0.00000000000E+00 0.  1.
         22    1    3    3    0    0  0.93897158727E+02  0.12572517682E+01  0.51333219774E+03  0.52185074719E+03  0.00000000000E+00 0.  1.
</event>
<event>
 7    1  0.6146596E-006  0.8001008E+02  0.7818608E-02  0.1423203E+00
          2   -1    0    0  502    0  0.00000000000E+00  0.00000000000E+00  0.11701885501E+04  0.11701885501E+04  0.00000000000E+00 0. -1.
          1   -1    0    0  501    0 -0.00000000000E+00 -0.00000000000E+00 -0.59076071100E+02  0.59076071100E+02  0.00000000000E+00 0. -1.
         25    2    1    2    0    0  0.95802701381E+01  0.10641216973E+03  0.32447551849E+03  0.36376485962E+03  0.12500071819E+03 0.  0.
          2    1    1    2  501    0 -0.25378963499E+02 -0.73045409934E+02 -0.66615911724E+00  0.77331542521E+02  0.00000000000E+00 0. -1.
          1    1    1    2  502    0  0.15798693361E+02 -0.33366759792E+02  0.78730311967E+03  0.78816821911E+03  0.00000000000E+00 0. -1.
         22    1    3    3    0    0  0.61934307061E+02  0.68033661903E+02  0.13409778550E+03  0.16262427131E+03  0.00000000000E+00 0. -1.
         22    1    3    3    0    0 -0.52354036923E+02  0.38378507824E+02  0.19037773299E+03  0.20114058830E+03  0.00000000000E+00 0. -1.
</event>
<event>
 7    1  0.6146596E-006  0.8648260E+02  0.7818608E-02  0.1383020E+00
          2   -1    0    0  502    0  0.00000000000E+00  0.00000000000E+00  0.82702415820E+03  0.82702415820E+03  0.00000000000E+00 0. -1.
          1   -1    0    0  501    0 -0.00000000000E+00 -0.00000000000E+00 -0.16467806779E+04  0.16467806779E+04  0.00000000000E+00 0. -1.
         25    2    1    2    0    0 -0.19051960053E+02 -0.10361709846E+03  0.21925453270E+03  0.27349188589E+03  0.12500312502E+03 0.  0.
          2    1    1    2  501    0  0.51295138826E+02  0.69579732880E+02 -0.16175596092E+04  0.16198677785E+04  0.00000000000E+00 0. -1.
          1    1    1    2  502    0 -0.32243178774E+02  0.34037365580E+02  0.57854855678E+03  0.58044517173E+03  0.00000000000E+00 0. -1.
         22    1    3    3    0    0 -0.67195584095E+02 -0.91917315656E+02  0.14895371215E+03  0.18748666033E+03  0.00000000000E+00 0. -1.
         22    1    3    3    0    0  0.48143624042E+02 -0.11699782804E+02  0.70300820551E+02  0.86005225561E+02  0.00000000000E+00 0. -1.
</event>
<event>
 7    1  0.6146596E-006  0.5133471E+02  0.7818608E-02  0.1446796E+00
          2   -1    0    0  502    0  0.00000000000E+00  0.00000000000E+00  0.99860138039E+03  0.99860138039E+03  0.00000000000E+00 0. -1.
          1   -1    0    0  501    0 -0.00000000000E+00 -0.00000000000E+00 -0.67704016932E+02  0.67704016932E+02  0.00000000000E+00 0. -1.
         25    2    1    2    0    0 -0.26752362331E+02 -0.13474591098E+00  0.30683374511E+03  0.33239727165E+03  0.12500116807E+03 0.  0.
          2    1    1    2  501    0  0.11169559896E+01 -0.48165216900E+02 -0.43018321136E+02  0.64588788989E+02  0.00000000000E+00 0. -1.
          1    1    1    2  502    0  0.25635406342E+02  0.48299962811E+02  0.66708193949E+03  0.66931933668E+03  0.00000000000E+00 0. -1.
         22    1    3    3    0    0 -0.56373761835E+02  0.36852418376E+02  0.10254638094E+03  0.12268603020E+03  0.00000000000E+00 0. -1.
         22    1    3    3    0    0  0.29621399504E+02 -0.36987164287E+02  0.20428736417E+03  0.20971124145E+03  0.00000000000E+00 0. -1.
</event>
<event>
 7    1  0.6146596E-006  0.7202817E+02  0.7818608E-02  0.1427884E+00
          2   -1    0    0  502    0  0.00000000000E+00  0.00000000000E+00  0.28807449119E+03  0.28807449119E+03  0.00000000000E+00 0. -1.
          1   -1    0    0  501    0 -0.00000000000E+00 -0.00000000000E+00 -0.52787727901E+03  0.52787727901E+03  0.00000000000E+00 0. -1.
         25    2    1    2    0    0 -0.41340974019E+02 -0.22516638677E+02 -0.57872270370E+02  0.14556763726E+03  0.12499864875E+03 0.  0.
          2    1    1    2  501    0 -0.32364896839E+02  0.22767100748E+02 -0.41964424687E+03  0.42150577855E+03  0.00000000000E+00 0. -1.
          1    1    1    2  502    0  0.73705870858E+02 -0.25046207091E+00  0.23771372942E+03  0.24887835439E+03  0.00000000000E+00 0. -1.
         22    1    3    3    0    0 -0.60602034369E+02 -0.49889175698E+02 -0.74476908943E+02  0.10820511257E+03  0.00000000000E+00 0.  1.
         22    1    3    3    0    0  0.19261060350E+02  0.27372537021E+02  0.16604638573E+02  0.37362524686E+02  0.00000000000E+00 0.  1.
</event>
<event>
 7    1  0.6146596E-006  0.8363162E+02  0.7818608E-02  0.1394363E+00
          2   -1    0    0  502    0  0.00000000000E+00  0.00000000000E+00  0.23326419671E+03  0.23326419671E+03  0.00000000000E+00 0. -1.
          1   -1    0    0  501    0 -0.00000000000E+00 -0.00000000000E+00 -0.71327920029E+03  0.71327920029E+03  0.00000000000E+00 0. -1.
         25    2    1    2    0    0  0.10891626477E+03  0.30100129152E+02  0.55892505659E+02  0.17753253753E+03  0.12500023674E+03 0.  0.
          2    1    1    2  501    0 -0.30872700832E+02 -0.31702791434E+02 -0.63853689627E+03  0.64006840145E+03  0.00000000000E+00 0. -1.
          1    1    1    2  502    0 -0.78043563942E+02  0.16026622827E+01  0.10262938702E+03  0.12894245802E+03  0.00000000000E+00 0. -1.
         22    1    3    3    0    0  0.35173944445E+02 -0.63989727781E+00  0.85401918014E+02  0.92363972613E+02  0.00000000000E+00 0.  1.
         22    1    3    3    0    0  0.73742320330E+02  0.30740026430E+02 -0.29509412355E+02  0.85168564917E+02  0.00000000000E+00 0.  1.
</event>
<event>
 7    1  0.6146596E-006  0.1043167E+03  0.7818608E-02  0.1319201E+00
          2   -1    0    0  502    0  0.00000000000E+00  0.00000000000E+00  0.26691348633E+04  0.26691348633E+04  0.00000000000E+00 0. -1.
          1   -1    0    0  501    0 -0.00000000000E+00 -0.00000000000E+00 -0.19312964904E+04  0.19312964904E+04  0.00000000000E+00 0. -1.
         25    2    1    2    0    0  0.70046816545E+02 -0.33865702743E+02  0.45501464236E+03  0.47824371813E+03  0.12500114736E+03 0.  0.
          2    1    1    2  501    0 -0.20933849298E+02 -0.63600987446E+02 -0.19177452427E+04  0.19189137885E+04  0.00000000000E+00 0. -1.
          1    1    1    2  502    0 -0.49112967248E+02  0.97466690189E+02  0.22005689732E+04  0.22032738471E+04  0.00000000000E+00 0. -1.
         22    1    3    3    0    0  0.19933215534E+02 -0.55049080372E+02  0.79088219396E+02  0.98400613710E+02  0.00000000000E+00 0.  1.
         22    1    3    3    0    0  0.50113601012E+02  0.21183377629E+02  0.37592642297E+03  0.37984310442E+03  0.00000000000E+00 0.  1.
</event>
<event>
 7    1  0.6146596E-006  0.1340182E+03  0.7818608E-02  0.1259726E+00
          2   -1    0    0  502    0  0.00000000000E+00  0.00000000000E+00  0.14674398377E+04  0.14674398377E+04  0.00000000000E+00 0. -1.
          1   -1    0    0  501    0 -0.00000000000E+00 -0.00000000000E+00 -0.31634526470E+03  0.31634526470E+03  0.00000000000E+00 0. -1.
         25    2    1    2    0    0  0.24152324565E+01  0.17065057152E+03  0.29394131143E+02  0.21357940142E+03  0.12499877943E+03 0.  0.
          2    1    1    2  501    0  0.69899182805E+02 -0.58326681248E+02 -0.21153553833E+03  0.23029368528E+03  0.00000000000E+00 0. -1.
          1    1    1    2  502    0 -0.72314415261E+02 -0.11232389027E+03  0.13332359802E+04  0.13399120157E+04  0.00000000000E+00 0. -1.
         22    1    3    3    0    0 -0.33813030602E+02  0.14103478046E+03 -0.18990210161E+02  0.14626947193E+03  0.00000000000E+00 0.  1.
         22    1    3    3    0    0  0.36228263058E+02  0.29615791059E+02  0.48384341304E+02  0.67309929488E+02  0.00000000000E+00 0.  1.
</event>
<event>
 7    1  0.6146596E-006  0.1414627E+03  0.7818608E-02  0.1353358E+00
          2   -1    0    0  502    0  0.00000000000E+00  0.00000000000E+00  0.40518547642E+03  0.40518547642E+03  0.00000000000E+00 0. -1.
          1   -1    0    0  501    0 -0.00000000000E+00 -0.00000000000E+00 -0.16618389426E+04  0.16618389426E+04  0.00000000000E+00 0. -1.
         25    2    1    2    0    0 -0.11640051068E+02 -0.10556567696E+03 -0.35139925107E+03  0.38779692455E+03  0.12500167240E+03 0.  0.
          2    1    1    2  501    0 -0.17128787717E+00 -0.36664907769E+02 -0.12788104031E+04  0.12793359184E+04  0.00000000000E+00 0. -1.
          1    1    1    2  502    0  0.11811338945E+02  0.14223058473E+03  0.37355618807E+03  0.39989157606E+03  0.00000000000E+00 0. -1.
         22    1    3    3    0    0 -0.32199432580E+02 -0.12871042278E+03 -0.27387252418E+03  0.30431782053E+03  0.00000000000E+00 0. -1.
         22    1    3    3    0    0  0.20559381512E+02  0.23144745816E+02 -0.77526726890E+02  0.83479104028E+02  0.00000000000E+00 0. -1.
</event>
<event>
 7    1  0.6146596E-006  0.9616613E+02  0.7818608E-02  0.1378284E+00
          2   -1    0    0  502    0  0.00000000000E+00  0.00000000000E+00  0.16588038698E+03  0.16588038698E+03  0.00000000000E+00 0. -1.
          1   -1    0    0  501    0 -0.00000000000E+00 -0.00000000000E+00 -0.78715171261E+03  0.78715171261E+03  0.00000000000E+00 0. -1.
         25    2    1    2    0    0 -0.52196487567E+02 -0.22052838041E+02 -0.36882936142E+03  0.39353580247E+03  0.12499811597E+03 0.  0.
          2    1    1    2  501    0 -0.28473204387E+02 -0.33311733662E+02 -0.38902481752E+03  0.39148525338E+03  0.00000000000E+00 0. -1.
          1    1    1    2  502    0  0.80669691953E+02  0.55364571703E+02  0.13658285331E+03  0.16801104374E+03  0.00000000000E+00 0. -1.
         22    1    3    3    0    0 -0.73955249202E+02  0.11908213159E+02 -0.32683523155E+03  0.33530948840E+03  0.00000000000E+00 0. -1.
         22    1    3    3    0    0  0.21758761635E+02 -0.33961051201E+02 -0.41994129868E+02  0.58226314068E+02  0.00000000000E+00 0. -1.
</event>
<event>
 7    1  0.6146596E-006  0.9951345E+02  0.7818608E-02  0.1384380E+00
          2   -1    0    0  502    0  0.00000000000E+00  0.00000000000E+00  0.10469246607E+03  0.10469246607E+03  0.00000000000E+00 0. -1.
          1   -1    0    0  501    0 -0.00000000000E+00 -0.00000000000E+00 -0.22227308048E+03  0.22227308048E+03  0.00000000000E+00 0. -1.
         25    2    1    2    0    0 -0.94314736300E+02  0.69936851696E+02 -0.87674453995E+02  0.19260988691E+03  0.12500130377E+03 0.  0.
          2    1    1    2  501    0  0.54058260615E+02 -0.71776466348E+02 -0.27564740494E+02  0.93989209916E+02  0.00000000000E+00 0. -1.
          1    1    1    2  502    0  0.40256475685E+02  0.18396146519E+01 -0.23414199237E+01  0.40366449731E+02  0.00000000000E+00 0. -1.
         22    1    3    3    0    0 -0.10013474787E+03  0.62034700964E+00 -0.65269886510E+02  0.11953037541E+03  0.00000000000E+00 0.  1.
         22    1    3    3    0    0  0.58200115679E+01  0.69316504686E+02 -0.22404567485E+02  0.73079511498E+02  0.00000000000E+00 0.  1.
</event>
<event>
 7    1  0.6146596E-006  0.6587647E+02  0.7818608E-02  0.1504276E+00
          2   -1    0    0  502    0  0.00000000000E+00  0.00000000000E+00  0.93868101260E+03  0.93868101260E+03  0.00000000000E+00 0. -1.
          1   -1    0    0  501    0 -0.00000000000E+00 -0.00000000000E+00 -0.22638226112E+04  0.22638226112E+04  0.00000000000E+00 0. -1.
         25    2    1    2    0    0 -0.13840468195E+02  0.55220857026E+02  0.45086254141E+03  0.47132114631E+03  0.12500276040E+03 0.  0.
          2    1    1    2  501    0 -0.89923290835E+01 -0.65273615947E+02 -0.22527854894E+04  0.22537488698E+04  0.00000000000E+00 0. -1.
          1    1    1    2  502    0  0.22832797278E+02  0.10052758921E+02  0.47678134940E+03  0.47743360766E+03  0.00000000000E+00 0. -1.
         22    1    3    3    0    0 -0.23827782593E+02 -0.32225060765E+02  0.72333130108E+02  0.82694011124E+02  0.00000000000E+00 0.  1.
         22    1    3    3    0    0  0.99873143985E+01  0.87445917791E+02  0.37852941130E+03  0.38862713519E+03  0.00000000000E+00 0.  1.
</event>
<event>
 7    1  0.6146596E-006  0.3113953E+03  0.7818608E-02  0.1278713E+00
          2   -1    0    0  502    0  0.00000000000E+00  0.00000000000E+00  0.18141122098E+04  0.18141122098E+04  0.00000000000E+00 0. -1.
          1   -1    0    0  501    0 -0.00000000000E+00 -0.00000000000E+00 -0.35889527522E+04  0.35889527522E+04  0.00000000000E+00 0. -1.
         25    2    1    2    0    0 -0.19149932866E+03  0.21256367951E+03  0.21331627237E+03  0.37813239400E+03  0.12499985843E+03 0.  0.
          2    1    1    2  501    0  0.22373007348E+03 -0.21746475847E+03 -0.34994282321E+04  0.35133095535E+04  0.00000000000E+00 0. -1.
          1    1    1    2  502    0 -0.32230744816E+02  0.49010789616E+01  0.15112714173E+04  0.15116230146E+04  0.00000000000E+00 0. -1.
         22    1    3    3    0    0  0.11511329738E+02 -0.62937004814E+01  0.14026352908E+02  0.19205727115E+02  0.00000000000E+00 0. -1.
         22    1    3    3    0    0 -0.20301065840E+03  0.21885737999E+03  0.19928991946E+03  0.35892666688E+03  0.00000000000E+00 0. -1.
</event>
<event>
 7    1  0.6146596E-006  0.7818462E+02  0.7818608E-02  0.1335785E+00
          2   -1    0    0  502    0  0.00000000000E+00  0.00000000000E+00  0.27445531739E+04  0.27445531739E+04  0.00000000000E+00 0. -1.
          1   -1    0    0  501    0 -0.00000000000E+00 -0.00000000000E+00 -0.84881204381E+02  0.84881204381E+02  0.00000000000E+00 0. -1.
         25    2    1    2    0    0  0.20190426495E+02  0.44816042962E+02  0.11278930246E+03  0.17539495902E+03  0.12500333545E+03 0.  0.
          2    1    1    2  501    0 -0.77739525202E+02  0.83306858689E+01 -0.24137800073E+02  0.81825836372E+02  0.00000000000E+00 0. -1.
          1    1    1    2  502    0  0.57549098707E+02 -0.53146728830E+02  0.25710204672E+04  0.25722135829E+04  0.00000000000E+00 0. -1.
         22    1    3    3    0    0  0.53401446976E+02  0.60658347450E+02  0.32556301085E+02  0.87126703110E+02  0.00000000000E+00 0. -1.
         22    1    3    3    0    0 -0.33211020481E+02 -0.15842304489E+02  0.80233001370E+02  0.88268255912E+02  0.00000000000E+00 0. -1.
</event>
<event>
 7    1  0.6732905E-006  0.7388468E+02  0.7818608E-02  0.1412652E+00
          2   -1    0    0  502    0  0.00000000000E+00  0.00000000000E+00  0.10434582006E+04  0.10434582006E+04  0.00000000000E+00 0. -1.
          1   -1    0    0  501    0 -0.00000000000E+00 -0.00000000000E+00 -0.82142612118E+03  0.82142612118E+03  0.00000000000E+00 0. -1.
         25    2    1    2    0    0 -0.86443147231E+01  0.41228472744E+02 -0.35310713443E+03  0.37694066084E+03  0.12500040907E+03 0.  0.
          2    1    1    2  501    0  0.40918541646E+01 -0.84357509345E+02 -0.45203358289E+03  0.45985573033E+03  0.00000000000E+00 0. -1.
          1    1    1    2  502    0  0.45524605585E+01  0.43129036600E+02  0.10271727967E+04  0.10280879306E+04  0.00000000000E+00 0. -1.
         22    1    3    3    0    0  0.17344144931E+02  0.55568636999E+01 -0.32300442365E+03  0.32351747371E+03  0.00000000000E+00 0.  1.
         22    1    3    3    0    0 -0.25988459655E+02  0.35671609045E+02 -0.30102710777E+02  0.53423187131E+02  0.00000000000E+00 0.  1.
</event>
<event>
 7    1  0.6146596E-006  0.2770852E+03  0.7818608E-02  0.1134867E+00
          2   -1    0    0  502    0  0.00000000000E+00  0.00000000000E+00  0.29435345560E+04  0.29435345560E+04  0.00000000000E+00 0. -1.
          1   -1    0    0  501    0 -0.00000000000E+00 -0.00000000000E+00 -0.11476660067E+04  0.11476660067E+04  0.00000000000E+00 0. -1.
         25    2    1    2    0    0 -0.73259196481E+02 -0.90230395902E+02 -0.42628745920E+02  0.17592798419E+03  0.12500004572E+03 0.  0.
          2    1    1    2  501    0 -0.83638386261E+02 -0.15097480779E+03 -0.10239524803E+04  0.10383965785E+04  0.00000000000E+00 0. -1.
          1    1    1    2  502    0  0.15689758274E+03  0.24120520369E+03  0.28624497755E+04  0.28768760000E+04  0.00000000000E+00 0. -1.
         22    1    3    3    0    0  0.17347909299E+02 -0.19857758234E+02  0.30158869474E+02  0.40060428443E+02  0.00000000000E+00 0.  1.
         22    1    3    3    0    0 -0.90607105780E+02 -0.70372637668E+02 -0.72787615393E+02  0.13586755575E+03  0.00000000000E+00 0.  1.
</event>
<event>
 7    1  0.6146596E-006  0.1544959E+03  0.7818608E-02  0.1219044E+00
          2   -1    0    0  502    0  0.00000000000E+00  0.00000000000E+00  0.22515801701E+04  0.22515801701E+04  0.00000000000E+00 0. -1.
          1   -1    0    0  501    0 -0.00000000000E+00 -0.00000000000E+00 -0.30809951565E+03  0.30809951565E+03  0.00000000000E+00 0. -1.
         25    2    1    2    0    0  0.44933801984E+02  0.23477788925E+02  0.20078047026E+03  0.24188051650E+03  0.12499253534E+03 0.  0.
          2    1    1    2  501    0 -0.11363186175E+03 -0.12117158213E+03 -0.26163145127E+03  0.30991251768E+03  0.00000000000E+00 0. -1.
          1    1    1    2  502    0  0.68698059769E+02  0.97693793206E+02  0.20043316354E+04  0.20078866516E+04  0.00000000000E+00 0. -1.
         22    1    3    3    0    0  0.57176955737E+02  0.18434208831E+02  0.24139021830E+02  0.64743468377E+02  0.00000000000E+00 0. -1.
         22    1    3    3    0    0 -0.12243153754E+02  0.50435800942E+01  0.17664144843E+03  0.17713704812E+03  0.00000000000E+00 0. -1.
</event>
<event>
 7    1  0.9209920E-006  0.4814136E+02  0.7818608E-02  0.1466430E+00
          2   -1    0    0  502    0  0.00000000000E+00  0.00000000000E+00  0.20106742944E+04  0.20106742944E+04  0.00000000000E+00 0. -1.
          1   -1    0    0  501    0 -0.00000000000E+00 -0.00000000000E+00 -0.21341792820E+04  0.21341792820E+04  0.00000000000E+00 0. -1.
         25    2    1    2    0    0 -0.89907797252E+02 -0.56787670193E+01 -0.40223296724E+03  0.43073394529E+03  0.12499884515E+03 0.  0.
          2    1    1    2  501    0  0.42428679125E+02  0.13467635154E+02 -0.17171174449E+04  0.17176943528E+04  0.00000000000E+00 0. -1.
          1    1    1    2  502    0  0.47479118127E+02 -0.77888681349E+01  0.19958454245E+04  0.19964252783E+04  0.00000000000E+00 0. -1.
         22    1    3    3    0    0 -0.36549191818E+02  0.38916334722E+02 -0.55170169572E+02  0.76772860708E+02  0.00000000000E+00 0. -1.
         22    1    3    3    0    0 -0.53358605434E+02 -0.44595101741E+02 -0.34706279767E+03  0.35396108458E+03  0.00000000000E+00 0. -1.
</event>
<event>
 7    1  0.6146596E-006  0.1059685E+03  0.7818608E-02  0.1316849E+00
          2   -1    0    0  502    0  0.00000000000E+00  0.00000000000E+00  0.93282265324E+02  0.93282265324E+02  0.00000000000E+00 0. -1.
          1   -1    0    0  501    0 -0.00000000000E+00 -0.00000000000E+00 -0.11186128305E+04  0.11186128305E+04  0.00000000000E+00 0. -1.
         25    2    1    2    0    0 -0.99374776341E+02 -0.19208443870E+02 -0.90334410248E+02  0.18447026807E+03  0.12499865455E+03 0.  0.
          2    1    1    2  501    0  0.71392050986E+02  0.80434932495E+02 -0.95194901958E+03  0.95800497869E+03  0.00000000000E+00 0. -1.
          1    1    1    2  502    0  0.27982725355E+02 -0.61226488625E+02  0.16952864634E+02  0.69419849085E+02  0.00000000000E+00 0. -1.
         22    1    3    3    0    0 -0.63987442655E+02 -0.42363784488E+02 -0.11291902592E+03  0.13652761431E+03  0.00000000000E+00 0. -1.
         22    1    3    3    0    0 -0.35387333686E+02  0.23155340618E+02  0.22584615675E+02  0.47942653762E+02  0.00000000000E+00 0. -1.
</event>
<event>
 7    1  0.6146596E-006  0.7598197E+02  0.7818608E-02  0.1417844E+00
          2   -1    0    0  502    0  0.00000000000E+00  0.00000000000E+00  0.29527317894E+03  0.29527317894E+03  0.00000000000E+00 0. -1.
          1   -1    0    0  501    0 -0.00000000000E+00 -0.00000000000E+00 -0.15517241110E+04  0.15517241110E+04  0.00000000000E+00 0. -1.
         25    2    1    2    0    0 -0.42545842138E+02  0.30166863110E+02  0.85878607570E+02  0.16037840688E+03  0.12500363932E+03 0.  0.
          2    1    1    2  501    0 -0.17573529343E+01  0.40471330491E+02 -0.15040885554E+04  0.15046339752E+04  0.00000000000E+00 0. -1.
          1    1    1    2  502    0  0.44303195072E+02 -0.70638193601E+02  0.16175901578E+03  0.18198490782E+03  0.00000000000E+00 0. -1.
         22    1    3    3    0    0 -0.83487710800E+02  0.14879768486E+01  0.40241466356E+02  0.92691895785E+02  0.00000000000E+00 0. -1.
         22    1    3    3    0    0  0.40941868661E+02  0.28678886262E+02  0.45637141214E+02  0.67686511100E+02  0.00000000000E+00 0. -1.
</event>
<event>
 7    1  0.6146596E-006  0.8848232E+02  0.7818608E-02  0.1401343E+00
          2   -1    0    0  502    0  0.00000000000E+00  0.00000000000E+00  0.22823673335E+04  0.22823673335E+04  0.00000000000E+00 0. -1.
          1   -1    0    0  501    0 -0.00000000000E+00 -0.00000000000E+00 -0.10283289359E+04  0.10283289359E+04  0.00000000000E+00 0. -1.
         25    2    1    2    0    0 -0.60788993359E+02 -0.24731926453E+02  0.76196840526E+03  0.77493677483E+03  0.12499673781E+03 0.  0.
          2    1    1    2  501    0 -0.94222870241E+01 -0.38431736031E+02 -0.10199878662E+04  0.10207551250E+04  0.00000000000E+00 0. -1.
          1    1    1    2  502    0  0.70211280383E+02  0.63163662484E+02  0.15120578586E+04  0.15150043696E+04  0.00000000000E+00 0. -1.
         22    1    3    3    0    0 -0.23039917055E+02 -0.71692555990E+02  0.52762373828E+03  0.53297042091E+03  0.00000000000E+00 0.  1.
         22    1    3    3    0    0 -0.37749076305E+02  0.46960629537E+02  0.23434466698E+03  0.24196635392E+03  0.00000000000E+00 0.  1.
</event>
<event>
 7    1  0.6146596E-006  0.9603639E+02  0.7818608E-02  0.1309534E+00
          2   -1    0    0  502    0  0.00000000000E+00  0.00000000000E+00  0.25070132191E+03  0.25070132191E+03  0.00000000000E+00 0. -1.
          1   -1    0    0  501    0 -0.00000000000E+00 -0.00000000000E+00 -0.99925234330E+03  0.99925234330E+03  0.00000000000E+00 0. -1.
         25    2    1    2    0    0 -0.14339488865E+03 -0.95085851480E+02 -0.11084079550E+03  0.23982119214E+03  0.12500043603E+03 0.  0.
          2    1    1    2  501    0  0.74972116688E+02  0.54898035981E+02 -0.81269813038E+03  0.81799319298E+03  0.00000000000E+00 0. -1.
          1    1    1    2  502    0  0.68422771962E+02  0.40187815499E+02  0.17498790449E+03  0.19213928009E+03  0.00000000000E+00 0. -1.
         22    1    3    3    0    0  0.24771180428E+01  0.24112135687E+02 -0.14335217876E+02  0.28160782531E+02  0.00000000000E+00 0.  1.
         22    1    3    3    0    0 -0.14587200669E+03 -0.11919798717E+03 -0.96505577628E+02  0.21166040961E+03  0.00000000000E+00 0.  1.
</event>
<event>
 7    1  0.6146596E-006  0.1265939E+03  0.7818608E-02  0.1272732E+00
          2   -1    0    0  502    0  0.00000000000E+00  0.00000000000E+00  0.75195547542E+03  0.75195547542E+03  0.00000000000E+00 0. -1.
          1   -1    0    0  501    0 -0.00000000000E+00 -0.00000000000E+00 -0.47100213691E+03  0.47100213691E+03  0.00000000000E+00 0. -1.
         25    2    1    2    0    0  0.56188474317E+02 -0.16663762129E+03 -0.94404441577E+02  0.23550384793E+03  0.12499848930E+03 0.  0.
          2    1    1    2  501    0 -0.73597367976E+02  0.42369245568E+02 -0.29421433594E+03  0.30622508227E+03  0.00000000000E+00 0. -1.
          1    1    1    2  502    0  0.17408893658E+02  0.12426837572E+03  0.66957211603E+03  0.68122868212E+03  0.00000000000E+00 0. -1.
         22    1    3    3    0    0 -0.13787693001E+01 -0.11578108878E+03 -0.10700684663E+03  0.15766301643E+03  0.00000000000E+00 0.  1.
         22    1    3    3    0    0  0.57567243617E+02 -0.50856532505E+02  0.12602405051E+02  0.77840831504E+02  0.00000000000E+00 0.  1.
</event>
<event>
 7    1  0.6146596E-006  0.1334469E+03  0.7818608E-02  0.1232425E+00
          2   -1    0    0  502    0  0.00000000000E+00  0.00000000000E+00  0.14203033883E+04  0.14203033883E+04  0.00000000000E+00 0. -1.
          1   -1    0    0  501    0 -0.00000000000E+00 -0.00000000000E+00 -0.11083835416E+04  0.11083835416E+04  0.00000000000E+00 0. -1.
         25    2    1    2    0    0 -0.79497853917E+02  0.14222716402E+03  0.31303868515E+03  0.37438845602E+03  0.12500009055E+03 0.  0.
          2    1    1    2  501    0  0.12960054598E+03 -0.32848937098E+02 -0.10701749387E+04  0.10784942066E+04  0.00000000000E+00 0. -1.
          1    1    1    2  502    0 -0.50102692067E+02 -0.10937822692E+03  0.10690561002E+04  0.10758042673E+04  0.00000000000E+00 0. -1.
         22    1    3    3    0    0 -0.98746317622E+01  0.25511122579E+02 -0.56486243642E+01  0.27932645505E+02  0.00000000000E+00 0. -1.
         22    1    3    3    0    0 -0.69623222155E+02  0.11671604144E+03  0.31868730952E+03  0.34645581052E+03  0.00000000000E+00 0. -1.
</event>
<event>
 7    1  0.6146596E-006  0.1566134E+03  0.7818608E-02  0.1270300E+00
          2   -1    0    0  502    0  0.00000000000E+00  0.00000000000E+00  0.11759166149E+04  0.11759166149E+04  0.00000000000E+00 0. -1.
          1   -1    0    0  501    0 -0.00000000000E+00 -0.00000000000E+00 -0.21371117528E+04  0.21371117528E+04  0.00000000000E+00 0. -1.
         25    2    1    2    0    0  0.19096180680E+02  0.92952022773E+02 -0.11235835684E+03  0.19300165396E+03  0.12498198040E+03 0.  0.
          2    1    1    2  501    0 -0.45816184021E+01 -0.16171039816E+03 -0.19800425166E+04  0.19866402824E+04  0.00000000000E+00 0. -1.
          1    1    1    2  502    0 -0.14514562278E+02  0.68758375387E+02  0.11312057355E+04  0.11333864314E+04  0.00000000000E+00 0. -1.
         22    1    3    3    0    0 -0.25476891419E+02  0.10528166428E+03 -0.62764139902E+02  0.12519040733E+03  0.00000000000E+00 0.  1.
         22    1    3    3    0    0  0.44573072099E+02 -0.12329641506E+02 -0.49594216933E+02  0.67811246628E+02  0.00000000000E+00 0.  1.
</event>
<event>
 7    1  0.6146596E-006  0.5174449E+02  0.7818608E-02  0.1514448E+00
          2   -1    0    0  502    0  0.00000000000E+00  0.00000000000E+00  0.16786925636E+02  0.16786925636E+02  0.00000000000E+00 0. -1.
          1   -1    0    0  501    0 -0.00000000000E+00 -0.00000000000E+00 -0.72590420291E+03  0.72590420291E+03  0.00000000000E+00 0. -1.
         25    2    1    2    0    0 -0.82233215162E+00  0.30866826931E+02 -0.37425654528E+03  0.39578897122E+03  0.12501004286E+03 0.  0.
          2    1    1    2  501    0  0.70732892400E+01 -0.59843865901E+02 -0.20329155489E+03  0.21203484618E+03  0.00000000000E+00 0. -1.
          1    1    1    2  502    0 -0.62509570883E+01  0.28977038970E+02 -0.13156917710E+03  0.13486731115E+03  0.00000000000E+00 0. -1.
         22    1    3    3    0    0 -0.31009577369E+02  0.29434779261E+02 -0.35179558370E+02  0.55367873770E+02  0.00000000000E+00 0. -1.
         22    1    3    3    0    0  0.30187245217E+02  0.14320476700E+01 -0.33907698691E+03  0.34042109745E+03  0.00000000000E+00 0. -1.
</event>
<event>
 7    1  0.6146596E-006  0.8528139E+02  0.7818608E-02  0.1346518E+00
          2   -1    0    0  502    0  0.00000000000E+00  0.00000000000E+00  0.13285628484E+04  0.13285628484E+04  0.00000000000E+00 0. -1.
          1   -1    0    0  501    0 -0.00000000000E+00 -0.00000000000E+00 -0.12387662048E+04  0.12387662048E+04  0.00000000000E+00 0. -1.
         25    2    1    2    0    0  0.37123995730E+02 -0.62654837020E+02  0.57843044953E+03  0.59624859710E+03  0.12500713955E+03 0.  0.
          2    1    1    2  501    0  0.24443029738E+02  0.81797911311E+02 -0.12269690202E+04  0.12299355010E+04  0.00000000000E+00 0. -1.
          1    1    1    2  502    0 -0.61567025467E+02 -0.19143074291E+02  0.73833521429E+03  0.74114495517E+03  0.00000000000E+00 0. -1.
         22    1    3    3    0    0  0.62846337805E+02 -0.13679549431E+02  0.13678428000E+03  0.15115135297E+03  0.00000000000E+00 0.  1.
         22    1    3    3    0    0 -0.25722342075E+02 -0.48975287589E+02  0.44164616953E+03  0.44509724413E+03  0.00000000000E+00 0.  1.
</event>
<event>
 7    1  0.6146596E-006  0.1149544E+03  0.7818608E-02  0.1264396E+00
          2   -1    0    0  502    0  0.00000000000E+00  0.00000000000E+00  0.28443408275E+04  0.28443408275E+04  0.00000000000E+00 0. -1.
          1   -1    0    0  501    0 -0.00000000000E+00 -0.00000000000E+00 -0.36591855124E+03  0.36591855124E+03  0.00000000000E+00 0. -1.
         25    2    1    2    0    0  0.72397111873E+02 -0.74633214998E+02  0.11002230511E+04  0.11121720293E+04  0.12499760793E+03 0.  0.
          2    1    1    2  501    0 -0.10960002320E+03 -0.34674917645E+02 -0.34878862209E+03  0.36724381261E+03  0.00000000000E+00 0. -1.
          1    1    1    2  502    0  0.37202911324E+02  0.10930813264E+03  0.17269878472E+04  0.17308435368E+04  0.00000000000E+00 0. -1.
         22    1    3    3    0    0  0.93499888642E+02 -0.63385463041E+02  0.10548693851E+04  0.10609002619E+04  0.00000000000E+00 0.  1.
         22    1    3    3    0    0 -0.21102776769E+02 -0.11247751957E+02  0.45353666025E+02  0.51271767410E+02  0.00000000000E+00 0.  1.
</event>
<event>
 7    1  0.6146596E-006  0.6642302E+02  0.7818608E-02  0.1438333E+00
          2   -1    0    0  502    0  0.00000000000E+00  0.00000000000E+00  0.84986770588E+03  0.84986770588E+03  0.00000000000E+00 0. -1.
          1   -1    0    0  501    0 -0.00000000000E+00 -0.00000000000E+00 -0.97800877285E+03  0.97800877285E+03  0.00000000000E+00 0. -1.
         25    2    1    2    0    0 -0.11099737814E+02  0.93063675542E+02 -0.76323591734E+03  0.77906234113E+03  0.12500005586E+03 0.  0.
          2    1    1    2  501    0  0.41837413149E+01 -0.54015626628E+02 -0.20283533758E+03  0.20994610209E+03  0.00000000000E+00 0. -1.
          1    1    1    2  502    0  0.69159964992E+01 -0.39048048914E+02  0.83793018794E+03  0.83886803551E+03  0.00000000000E+00 0. -1.
         22    1    3    3    0    0  0.47401120394E+02  0.16056303605E+02 -0.40207618642E+03  0.40517888739E+03  0.00000000000E+00 0. -1.
         22    1    3    3    0    0 -0.58500858208E+02  0.77007371937E+02 -0.36115973092E+03  0.37388345374E+03  0.00000000000E+00 0. -1.
</event>
<event>
 7    1  0.6146596E-006  0.6493431E+02  0.7818608E-02  0.1461718E+00
          2   -1    0    0  502    0  0.00000000000E+00  0.00000000000E+00  0.26658809442E+03  0.26658809442E+03  0.00000000000E+00 0. -1.
          1   -1    0    0  501    0 -0.00000000000E+00 -0.00000000000E+00 -0.31934914967E+03  0.31934914967E+03  0.00000000000E+00 0. -1.
         25    2    1    2    0    0  0.78132368123E+02 -0.35524482061E+02 -0.41566407249E+02  0.15722213067E+03  0.12499750552E+03 0.  0.
          2    1    1    2  501    0 -0.45256666533E+02  0.44747728108E+02 -0.21389309487E+03  0.22316088606E+03  0.00000000000E+00 0. -1.
          1    1    1    2  502    0 -0.32875701590E+02 -0.92232460469E+01  0.20269844687E+03  0.20555422736E+03  0.00000000000E+00 0. -1.
         22    1    3    3    0    0  0.11300771929E+02  0.41814668241E+02  0.73026385899E+01  0.43926102225E+02  0.00000000000E+00 0. -1.
         22    1    3    3    0    0  0.66831596194E+02 -0.77339150302E+02 -0.48869045839E+02  0.11329602844E+03  0.00000000000E+00 0. -1.
</event>
<event>
 7    1  0.6146596E-006  0.4301864E+02  0.7818608E-02  0.1561600E+00
          2   -1    0    0  502    0  0.00000000000E+00  0.00000000000E+00  0.88175211273E+03  0.88175211273E+03  0.00000000000E+00 0. -1.
          1   -1    0    0  501    0 -0.00000000000E+00 -0.00000000000E+00 -0.19487185147E+03  0.19487185147E+03  0.00000000000E+00 0. -1.
         25    2    1    2    0    0 -0.27937986333E+01 -0.81950571195E+01  0.77436444927E+03  0.78443649673E+03  0.12500141133E+03 0.  0.
          2    1    1    2  501    0  0.19308022017E+02 -0.38442206900E+02 -0.18118779216E+03  0.18622464663E+03  0.00000000000E+00 0. -1.
          1    1    1    2  502    0 -0.16514223384E+02  0.46637264019E+02  0.93703604151E+02  0.10596282084E+03  0.00000000000E+00 0. -1.
         22    1    3    3    0    0  0.42468184080E+00 -0.65259724991E+02  0.49514979008E+03  0.49943200406E+03  0.00000000000E+00 0. -1.
         22    1    3    3    0    0 -0.32184804741E+01  0.57064667872E+02  0.27921465919E+03  0.28500449267E+03  0.00000000000E+00 0. -1.
</event>
<event>
 7    1  0.6146596E-006  0.1048991E+03  0.7818608E-02  0.1298529E+00
          2   -1    0    0  502    0  0.00000000000E+00  0.00000000000E+00  0.55889274877E+03  0.55889274877E+03  0.00000000000E+00 0. -1.
          1   -1    0    0  501    0 -0.00000000000E+00 -0.00000000000E+00 -0.84043083531E+03  0.84043083531E+03  0.00000000000E+00 0. -1.
         25    2    1    2    0    0  0.56696186025E+02 -0.24692843150E+02 -0.21409544206E+03  0.25551045678E+03  0.12499816479E+03 0.  0.
          2    1    1    2  501    0  0.39522164238E+02  0.69961199732E+02 -0.59766037576E+03  0.60303772327E+03  0.00000000000E+00 0. -1.
          1    1    1    2  502    0 -0.96218350263E+02 -0.45268356582E+02  0.53021773128E+03  0.54077540402E+03  0.00000000000E+00 0. -1.
         22    1    3    3    0    0  0.57810341288E+02  0.42304593391E+02 -0.12437307834E+03  0.14352831357E+03  0.00000000000E+00 0.  1.
         22    1    3    3    0    0 -0.11141552628E+01 -0.66997436541E+02 -0.89722363724E+02  0.11198214321E+03  0.00000000000E+00 0.  1.
</event>
<event>
 7    1  0.6146596E-006  0.4329005E+02  0.7818608E-02  0.1604428E+00
          2   -1    0    0  502    0  0.00000000000E+00  0.00000000000E+00  0.14058044565E+03  0.14058044565E+03  0.00000000000E+00 0. -1.
          1   -1    0    0  501    0 -0.00000000000E+00 -0.00000000000E+00 -0.58293720675E+03  0.58293720675E+03  0.00000000000E+00 0. -1.
         25    2    1    2    0    0 -0.18939375375E+02 -0.45419696997E+02 -0.47631943772E+02  0.14252752438E+03  0.12499457717E+03 0.  0.
          2    1    1    2  501    0  0.31394040318E+02  0.29754042320E+02 -0.48581023382E+03  0.48773196746E+03  0.00000000000E+00 0. -1.
          1    1    1    2  502    0 -0.12454664943E+02  0.15665654676E+02  0.91085416492E+02  0.93258160569E+02  0.00000000000E+00 0. -1.
         22    1    3    3    0    0  0.25882214540E+02  0.34178429247E+02 -0.17919420019E+02  0.46466758754E+02  0.00000000000E+00 0.  1.
         22    1    3    3    0    0 -0.44821589915E+02 -0.79598126244E+02 -0.29712523753E+02  0.96060765622E+02  0.00000000000E+00 0.  1.
</event>
<event>
 7    1  0.6146596E-006  0.7503754E+02  0.7818608E-02  0.1350646E+00
          2   -1    0    0  502    0  0.00000000000E+00  0.00000000000E+00  0.55572658476E+03  0.55572658476E+03  0.00000000000E+00 0. -1.
          1   -1    0    0  501    0 -0.00000000000E+00 -0.00000000000E+00 -0.83310857741E+02  0.83310857741E+02  0.00000000000E+00 0. -1.
         25    2    1    2    0    0 -0.46454011569E+02 -0.68584958913E+02  0.14537338210E+03  0.20885477864E+03  0.12500010623E+03 0.  0.
          2    1    1    2  501    0 -0.24004464925E+02  0.74834720337E+02 -0.15762972360E+02  0.80155604931E+02  0.00000000000E+00 0. -1.
          1    1    1    2  502    0  0.70458476494E+02 -0.62497614238E+01  0.34280531729E+03  0.35002705894E+03  0.00000000000E+00 0. -1.
         22    1    3    3    0    0 -0.75888149972E+02 -0.75936313331E+02  0.14245260578E+03  0.17837623127E+03  0.00000000000E+00 0. -1.
         22    1    3    3    0    0  0.29434138403E+02  0.73513544176E+01  0.29207763146E+01  0.30478547367E+02  0.00000000000E+00 0. -1.
</event>
<event>
 7    1  0.6146596E-006  0.4141431E+02  0.7818608E-02  0.1508776E+00
          2   -1    0    0  502    0  0.00000000000E+00  0.00000000000E+00  0.71951689010E+03  0.71951689010E+03  0.00000000000E+00 0. -1.
          1   -1    0    0  501    0 -0.00000000000E+00 -0.00000000000E+00 -0.31310931018E+03  0.31310931018E+03  0.00000000000E+00 0. -1.
         25    2    1    2    0    0  0.52114204405E+02  0.50377409508E+02  0.81755837290E+00  0.14450145569E+03  0.12500491433E+03 0.  0.
          2    1    1    2  501    0 -0.15802276327E+02 -0.37624904956E+02 -0.23896363588E+03  0.24242311086E+03  0.00000000000E+00 0. -1.
          1    1    1    2  502    0 -0.36311928078E+02 -0.12752504552E+02  0.64455365742E+03  0.64570163372E+03  0.00000000000E+00 0. -1.
         22    1    3    3    0    0 -0.31432944970E+02  0.38803292196E+02  0.26235815600E+02  0.56409604989E+02  0.00000000000E+00 0. -1.
         22    1    3    3    0    0  0.83547149375E+02  0.11574117311E+02 -0.25418257227E+02  0.88091850706E+02  0.00000000000E+00 0. -1.
</event>
<event>
 7    1  0.6146596E-006  0.7017026E+02  0.7818608E-02  0.1412931E+00
          2   -1    0    0  502    0  0.00000000000E+00  0.00000000000E+00  0.41675814686E+03  0.41675814686E+03  0.00000000000E+00 0. -1.
          1   -1    0    0  501    0 -0.00000000000E+00 -0.00000000000E+00 -0.24004926035E+03  0.24004926035E+03  0.00000000000E+00 0. -1.
         25    2    1    2    0    0 -0.53601163981E+02 -0.43638450395E+02  0.80716076432E+02  0.16406437284E+03  0.12499853722E+03 0.  0.
          2    1    1    2  501    0  0.37305610947E+02 -0.26162755029E+02 -0.19129580272E+03  0.19664760994E+03  0.00000000000E+00 0. -1.
          1    1    1    2  502    0  0.16295553033E+02  0.69801205424E+02  0.28728861279E+03  0.29609542443E+03  0.00000000000E+00 0. -1.
         22    1    3    3    0    0  0.38137882593E+02 -0.32989588559E+02  0.26352217710E+02  0.56896840160E+02  0.00000000000E+00 0.  1.
         22    1    3    3    0    0 -0.91739046574E+02 -0.10648861836E+02  0.54363858722E+02  0.10716753268E+03  0.00000000000E+00 0.  1.
</event>
<event>
 7    1  0.6146596E-006  0.6288325E+02  0.7818608E-02  0.1481746E+00
          2   -1    0    0  502    0  0.00000000000E+00  0.00000000000E+00  0.19909343171E+03  0.19909343171E+03  0.00000000000E+00 0. -1.
          1   -1    0    0  501    0 -0.00000000000E+00 -0.00000000000E+00 -0.10054213168E+04  0.10054213168E+04  0.00000000000E+00 0. -1.
         25    2    1    2    0    0  0.37690024506E+02 -0.10046692745E+02 -0.29386587193E+03  0.32171696853E+03  0.12499273247E+03 0.  0.
          2    1    1    2  501    0 -0.55863243660E+02  0.34612399110E+02 -0.69480811932E+03  0.69790905055E+03  0.00000000000E+00 0. -1.
          1    1    1    2  502    0  0.18173219154E+02 -0.24565706365E+02  0.18234610618E+03  0.18488872941E+03  0.00000000000E+00 0. -1.
         22    1    3    3    0    0  0.51061749348E+02 -0.14639861333E+02 -0.30115929957E+03  0.30580803048E+03  0.00000000000E+00 0.  1.
         22    1    3    3    0    0 -0.13371724842E+02  0.45931685872E+01  0.72934276450E+01  0.15908938046E+02  0.00000000000E+00 0.  1.
</event>
<event>
 7    1  0.6146596E-006  0.4901663E+02  0.7818608E-02  0.1451160E+00
          2   -1    0    0  502    0  0.00000000000E+00  0.00000000000E+00  0.12710278613E+03  0.12710278613E+03  0.00000000000E+00 0. -1.
          1   -1    0    0  501    0 -0.00000000000E+00 -0.00000000000E+00 -0.14716941016E+04  0.14716941016E+04  0.00000000000E+00 0. -1.
         25    2    1    2    0    0  0.56646722041E+02 -0.10928212263E+01 -0.22363483165E+03  0.26238905444E+03  0.12500173035E+03 0.  0.
          2    1    1    2  501    0 -0.27373735961E+02  0.40660897630E+02 -0.12225432772E+04  0.12235255186E+04  0.00000000000E+00 0. -1.
          1    1    1    2  502    0 -0.29272986080E+02 -0.39568076404E+02  0.10158679337E+03  0.11288231470E+03  0.00000000000E+00 0. -1.
         22    1    3    3    0    0  0.65971091998E+01  0.25704947101E+02  0.48318449211E+01  0.26974300373E+02  0.00000000000E+00 0. -1.
         22    1    3    3    0    0  0.50049612841E+02 -0.26797768328E+02 -0.22846667657E+03  0.23541475407E+03  0.00000000000E+00 0. -1.
</event>
<event>
 7    1  0.6146596E-006  0.1378575E+03  0.7818608E-02  0.1260705E+00
          2   -1    0    0  502    0  0.00000000000E+00  0.00000000000E+00  0.75156973760E+03  0.75156973760E+03  0.00000000000E+00 0. -1.
          1   -1    0    0  501    0 -0.00000000000E+00 -0.00000000000E+00 -0.62579733535E+03  0.62579733535E+03  0.00000000000E+00 0. -1.
         25    2    1    2    0    0 -0.20618141545E+03  0.53089423650E+02  0.23154421878E+03  0.33847217752E+03  0.12498570610E+03 0.  0.
          2    1    1    2  501    0  0.86558950249E+02 -0.13818857562E+02 -0.56036985493E+03  0.56718408565E+03  0.00000000000E+00 0. -1.
          1    1    1    2  502    0  0.11962246520E+03 -0.39270566088E+02  0.45459803841E+03  0.47171080978E+03  0.00000000000E+00 0. -1.
         22    1    3    3    0    0 -0.20005624165E+03  0.81027290949E+02  0.18724570315E+03  0.28574267279E+03  0.00000000000E+00 0. -1.
         22    1    3    3    0    0 -0.61251737952E+01 -0.27937867299E+02  0.44298515621E+02  0.52729504733E+02  0.00000000000E+00 0. -1.
</event>
<event>
 7    1  0.6146596E-006  0.8006179E+02  0.7818608E-02  0.1364088E+00
          2   -1    0    0  502    0  0.00000000000E+00  0.00000000000E+00  0.19530600027E+04  0.19530600027E+04  0.00000000000E+00 0. -1.
          1   -1    0    0  501    0 -0.00000000000E+00 -0.00000000000E+00 -0.50243726351E+03  0.50243726351E+03  0.00000000000E+00 0. -1.
         25    2    1    2    0    0  0.56759763525E+02 -0.84590350343E+02  0.19758292699E+03  0.25503430242E+03  0.12500513689E+03 0.  0.
          2    1    1    2  501    0  0.18040811469E+02  0.56372078300E+02 -0.47093276197E+03  0.47463770224E+03  0.00000000000E+00 0. -1.
          1    1    1    2  502    0 -0.74800574994E+02  0.28218272043E+02  0.17239725742E+04  0.17258252615E+04  0.00000000000E+00 0. -1.
         22    1    3    3    0    0  0.63094144734E+01 -0.99096053974E+02  0.84589902962E+02  0.13044266291E+03  0.00000000000E+00 0.  1.
         22    1    3    3    0    0  0.50450349051E+02  0.14505703631E+02  0.11299302403E+03  0.12459163951E+03  0.00000000000E+00 0.  1.
</event>
<event>
 7    1  0.6146596E-006  0.3513958E+02  0.7818608E-02  0.1565321E+00
          2   -1    0    0  502    0  0.00000000000E+00  0.00000000000E+00  0.61619614183E+03  0.61619614183E+03  0.00000000000E+00 0. -1.
          1   -1    0    0  501    0 -0.00000000000E+00 -0.00000000000E+00 -0.47585518255E+03  0.47585518255E+03  0.00000000000E+00 0. -1.
         25    2    1    2    0    0  0.59006149471E+02 -0.30334805782E+02  0.15382843887E+03  0.20902044494E+03  0.12499772670E+03 0.  0.
          2    1    1    2  501    0 -0.31480981069E+02  0.15345225423E+02 -0.44700852355E+03  0.44837835389E+03  0.00000000000E+00 0. -1.
          1    1    1    2  502    0 -0.27525168401E+02  0.14989580359E+02  0.43352104395E+03  0.43465252555E+03  0.00000000000E+00 0. -1.
         22    1    3    3    0    0 -0.37532634991E+02  0.31158502915E+01  0.27967528834E+02  0.46910445335E+02  0.00000000000E+00 0.  1.
         22    1    3    3    0    0  0.96538784462E+02 -0.33450656074E+02  0.12586091003E+03  0.16210999960E+03  0.00000000000E+00 0.  1.
</event>
<event>
 7    1  0.1260232E-005  0.5844009E+02  0.7818608E-02  0.1463602E+00
          2   -1    0    0  502    0  0.00000000000E+00  0.00000000000E+00  0.17734729852E+04  0.17734729852E+04  0.00000000000E+00 0. -1.
          1   -1    0    0  501    0 -0.00000000000E+00 -0.00000000000E+00 -0.16238074081E+04  0.16238074081E+04  0.00000000000E+00 0. -1.
         25    2    1    2    0    0  0.37413605992E+02  0.59778664019E+02 -0.20207158131E+03  0.24785295496E+03  0.12499958690E+03 0.  0.
          2    1    1    2  501    0 -0.37401636900E+02 -0.13415480187E+01 -0.13981069745E+04  0.13986078058E+04  0.00000000000E+00 0. -1.
          1    1    1    2  502    0 -0.11969091375E-01 -0.58437116000E+02  0.17498441328E+04  0.17508196326E+04  0.00000000000E+00 0. -1.
         22    1    3    3    0    0  0.82741006035E+02  0.25809080094E+02 -0.12860591074E+03  0.15508598574E+03  0.00000000000E+00 0. -1.
         22    1    3    3    0    0 -0.45327400044E+02  0.33969583924E+02 -0.73465670569E+02  0.92766969223E+02  0.00000000000E+00 0. -1.
</event>
<event>
 7    1  0.6146596E-006  0.1417586E+03  0.7818608E-02  0.1286549E+00
          2   -1    0    0  502    0  0.00000000000E+00  0.00000000000E+00  0.20507465165E+04  0.20507465165E+04  0.00000000000E+00 0. -1.
          1   -1    0    0  501    0 -0.00000000000E+00 -0.00000000000E+00 -0.56367755274E+02  0.56367755274E+02  0.00000000000E+00 0. -1.
         25    2    1    2    0    0 -0.18288216783E+03 -0.59400138686E+02  0.53886933590E+03  0.58564409546E+03  0.12499832632E+03 0.  0.
          2    1    1    2  501    0  0.11639860545E+03  0.58535646898E+02  0.99768952333E+02  0.16410027775E+03  0.00000000000E+00 0. -1.
          1    1    1    2  502    0  0.66483562381E+02  0.86449178809E+00  0.13557404730E+04  0.13573698985E+04  0.00000000000E+00 0. -1.
         22    1    3    3    0    0 -0.11408081912E+03 -0.83878704737E+02  0.44331682444E+03  0.46538143198E+03  0.00000000000E+00 0.  1.
         22    1    3    3    0    0 -0.68801348714E+02  0.24478566051E+02  0.95552511462E+02  0.12026266348E+03  0.00000000000E+00 0.  1.
</event>
<event>
 7    1  0.6146596E-006  0.4141684E+02  0.7818608E-02  0.1566985E+00
          2   -1    0    0  502    0  0.00000000000E+00  0.00000000000E+00  0.50326423695E+03  0.50326423695E+03  0.00000000000E+00 0. -1.
          1   -1    0    0  501    0 -0.00000000000E+00 -0.00000000000E+00 -0.77140052564E+03  0.77140052564E+03  0.00000000000E+00 0. -1.
         25    2    1    2    0    0  0.35328844680E+02  0.95795499663E+01  0.63825820709E+02  0.14504865741E+03  0.12500193031E+03 0.  0.
          2    1    1    2  501    0  0.30022143016E+01 -0.26143176896E+02 -0.72945823740E+03  0.72993273601E+03  0.00000000000E+00 0. -1.
          1    1    1    2  502    0 -0.38331058982E+02  0.16563626929E+02  0.39749612800E+03  0.39968336918E+03  0.00000000000E+00 0. -1.
         22    1    3    3    0    0  0.20919715987E+02  0.25325055047E+02 -0.32605865077E+02  0.46283208267E+02  0.00000000000E+00 0. -1.
         22    1    3    3    0    0  0.14409128693E+02 -0.15745505080E+02  0.96431685786E+02  0.98765449138E+02  0.00000000000E+00 0. -1.
</event>
<event>
 7    1  0.6146596E-006  0.3168910E+02  0.7818608E-02  0.1581883E+00
          2   -1    0    0  502    0  0.00000000000E+00  0.00000000000E+00  0.97350154966E+03  0.97350154966E+03  0.00000000000E+00 0. -1.
          1   -1    0    0  501    0 -0.00000000000E+00 -0.00000000000E+00 -0.23730476356E+03  0.23730476356E+03  0.00000000000E+00 0. -1.
         25    2    1    2    0    0  0.95394591170E+01  0.15198744848E+02  0.37482597414E+03  0.39552852716E+03  0.12500520703E+03 0.  0.
          2    1    1    2  501    0 -0.30100389316E+02  0.99078530845E+01 -0.22539678332E+03  0.22761350777E+03  0.00000000000E+00 0. -1.
          1    1    1    2  502    0  0.20560930199E+02 -0.25106597932E+02  0.58676759527E+03  0.58766427828E+03  0.00000000000E+00 0. -1.
         22    1    3    3    0    0 -0.54166008615E+02  0.18278160705E+01  0.23680644051E+03  0.24292918241E+03  0.00000000000E+00 0.  1.
         22    1    3    3    0    0  0.63705467732E+02  0.13370928777E+02  0.13801953363E+03  0.15259934476E+03  0.00000000000E+00 0.  1.
</event>
<event>
 7    1  0.6146596E-006  0.1363507E+03  0.7818608E-02  0.1397609E+00
          2   -1    0    0  502    0  0.00000000000E+00  0.00000000000E+00  0.14104099661E+04  0.14104099661E+04  0.00000000000E+00 0. -1.
          1   -1    0    0  501    0 -0.00000000000E+00 -0.00000000000E+00 -0.18664767224E+04  0.18664767224E+04  0.00000000000E+00 0. -1.
         25    2    1    2    0    0  0.15639058065E+03 -0.33881727567E+02  0.70028423517E+02  0.21479028684E+03  0.12499960815E+03 0.  0.
          2    1    1    2  501    0 -0.13035394866E+03  0.38535149057E+02 -0.17913826752E+04  0.17965324931E+04  0.00000000000E+00 0. -1.
          1    1    1    2  502    0 -0.26036631989E+02 -0.46534214893E+01  0.12652874954E+04  0.12655639086E+04  0.00000000000E+00 0. -1.
         22    1    3    3    0    0  0.32082060992E+01 -0.36132836516E+02  0.47771201239E+02  0.59983015336E+02  0.00000000000E+00 0.  1.
         22    1    3    3    0    0  0.15318237455E+03  0.22511089482E+01  0.22257222279E+02  0.15480727150E+03  0.00000000000E+00 0.  1.
</event>
<event>
 7    1  0.6146596E-006  0.3241776E+02  0.7818608E-02  0.1613293E+00
          2   -1    0    0  502    0  0.00000000000E+00  0.00000000000E+00  0.31932662004E+03  0.31932662004E+03  0.00000000000E+00 0. -1.
          1   -1    0    0  501    0 -0.00000000000E+00 -0.00000000000E+00 -0.84124406967E+03  0.84124406967E+03  0.00000000000E+00 0. -1.
         25    2    1    2    0    0 -0.90562613986E+01 -0.23697864809E+02 -0.11906640333E+03  0.17448961186E+03  0.12500484621E+03 0.  0.
          2    1    1    2  501    0  0.30831167510E+02  0.10713190276E+02 -0.69353049818E+03  0.69429812418E+03  0.00000000000E+00 0. -1.
          1    1    1    2  502    0 -0.21774906111E+02  0.12984674532E+02  0.29067945188E+03  0.29178295367E+03  0.00000000000E+00 0. -1.
         22    1    3    3    0    0 -0.52428457271E+02  0.25016444817E+02 -0.34047650090E+02  0.67333558645E+02  0.00000000000E+00 0. -1.
         22    1    3    3    0    0  0.43372195873E+02 -0.48714309625E+02 -0.85018753240E+02  0.10715605321E+03  0.00000000000E+00 0. -1.
</event>
<event>
 7    1  0.6146596E-006  0.1117470E+03  0.7818608E-02  0.1313183E+00
          2   -1    0    0  502    0  0.00000000000E+00  0.00000000000E+00  0.60288867715E+03  0.60288867715E+03  0.00000000000E+00 0. -1.
          1   -1    0    0  501    0 -0.00000000000E+00 -0.00000000000E+00 -0.53096504243E+03  0.53096504243E+03  0.00000000000E+00 0. -1.
         25    2    1    2    0    0  0.33070727895E+01  0.49821959627E+02 -0.14490544698E+03  0.19777809890E+03  0.12500169379E+03 0.  0.
          2    1    1    2  501    0 -0.20603756310E+02  0.62679830777E+02 -0.35089979369E+03  0.35704893386E+03  0.00000000000E+00 0. -1.
          1    1    1    2  502    0  0.17296683520E+02 -0.11250179040E+03  0.56772887538E+03  0.57902668682E+03  0.00000000000E+00 0. -1.
         22    1    3    3    0    0  0.33631365338E+02  0.57130184039E+02 -0.15196567991E+03  0.16579654560E+03  0.00000000000E+00 0.  1.
         22    1    3    3    0    0 -0.30324292548E+02 -0.73082244122E+01  0.70602329278E+01  0.31981553302E+02  0.00000000000E+00 0.  1.
</event>
<event>
 7    1  0.6146596E-006  0.9437849E+02  0.7818608E-02  0.1462360E+00
          2   -1    0    0  502    0  0.00000000000E+00  0.00000000000E+00  0.80913638726E+03  0.80913638726E+03  0.00000000000E+00 0. -1.
          1   -1    0    0  501    0 -0.00000000000E+00 -0.00000000000E+00 -0.24585339080E+04  0.24585339080E+04  0.00000000000E+00 0. -1.
         25    2    1    2    0    0  0.29265567192E+02  0.79054785692E+02 -0.33111804183E+03  0.36382635792E+03  0.12499731408E+03 0.  0.
          2    1    1    2  501    0 -0.11674470973E+02 -0.94460757586E+02 -0.21098161424E+04  0.21119619510E+04  0.00000000000E+00 0. -1.
          1    1    1    2  502    0 -0.17591096220E+02  0.15405971894E+02  0.79153666347E+03  0.79188198631E+03  0.00000000000E+00 0. -1.
         22    1    3    3    0    0  0.29461465839E+02  0.66066229708E+02 -0.64575967625E+02  0.96967934246E+02  0.00000000000E+00 0. -1.
         22    1    3    3    0    0 -0.19589864662E+00  0.12988555984E+02 -0.26654207420E+03  0.26685842367E+03  0.00000000000E+00 0. -1.
</event>
<event>
 7    1  0.1261410E-005  0.8022550E+02  0.7818608E-02  0.1395493E+00
          2   -1    0    0  502    0  0.00000000000E+00  0.00000000000E+00  0.17492385988E+04  0.17492385988E+04  0.00000000000E+00 0. -1.
          1   -1    0    0  501    0 -0.00000000000E+00 -0.00000000000E+00 -0.14934302644E+04  0.14934302644E+04  0.00000000000E+00 0. -1.
         25    2    1    2    0    0 -0.60278410394E+02  0.49693145999E+02 -0.51972816441E+03  0.54022711225E+03  0.12500028964E+03 0.  0.
          2    1    1    2  501    0 -0.19536653519E+02 -0.41331594695E+02 -0.96198362259E+03  0.96306929744E+03  0.00000000000E+00 0. -1.
          1    1    1    2  502    0  0.79815063913E+02 -0.83615513042E+01  0.17375201214E+04  0.17393724536E+04  0.00000000000E+00 0. -1.
         22    1    3    3    0    0 -0.13318685778E+02  0.63556682597E+02 -0.45207163689E+03  0.45671172984E+03  0.00000000000E+00 0. -1.
         22    1    3    3    0    0 -0.46959724617E+02 -0.13863536597E+02 -0.67656527519E+02  0.83515382410E+02  0.00000000000E+00 0. -1.
</event>
<event>
 7    1  0.6146596E-006  0.2357894E+03  0.7818608E-02  0.1132028E+00
          2   -1    0    0  502    0  0.00000000000E+00  0.00000000000E+00  0.48286462586E+03  0.48286462586E+03  0.00000000000E+00 0. -1.
          1   -1    0    0  501    0 -0.00000000000E+00 -0.00000000000E+00 -0.18713301638E+04  0.18713301638E+04  0.00000000000E+00 0. -1.
         25    2    1    2    0    0  0.33094916245E+02 -0.18994531964E+02 -0.77675614550E+03  0.78767343622E+03  0.12499306714E+03 0.  0.
          2    1    1    2  501    0  0.10788843757E+03 -0.18013355145E+03 -0.10468214684E+04  0.10676718588E+04  0.00000000000E+00 0. -1.
          1    1    1    2  502    0 -0.14098335382E+03  0.19912808342E+03  0.43511207597E+03  0.49884949465E+03  0.00000000000E+00 0. -1.
         22    1    3    3    0    0 -0.34736613444E+02 -0.34492426667E+02 -0.49657068584E+03  0.49897776087E+03  0.00000000000E+00 0. -1.
         22    1    3    3    0    0  0.67831529689E+02  0.15497894703E+02 -0.28018545967E+03  0.28869567535E+03  0.00000000000E+00 0. -1.
</event>
<event>
 7    1  0.6146596E-006  0.6078326E+02  0.7818608E-02  0.1545622E+00
          2   -1    0    0  502    0  0.00000000000E+00  0.00000000000E+00  0.10173776618E+04  0.10173776618E+04  0.00000000000E+00 0. -1.
          1   -1    0    0  501    0 -0.00000000000E+00 -0.00000000000E+00 -0.41066923535E+02  0.41066923535E+02  0.00000000000E+00 0. -1.
         25    2    1    2    0    0 -0.19202573203E+02  0.39952604231E+02  0.44860532995E+03  0.46779955358E+03  0.12499892348E+03 0.  0.
          2    1    1    2  501    0  0.15079641723E+02 -0.60079017111E+02 -0.59487118940E+00  0.61945441828E+02  0.00000000000E+00 0. -1.
          1    1    1    2  502    0  0.41229314807E+01  0.20126412880E+02  0.52830027953E+03  0.52869958995E+03  0.00000000000E+00 0. -1.
         22    1    3    3    0    0  0.24989243885E+02  0.58874001179E+02  0.12270799887E+03  0.13837580465E+03  0.00000000000E+00 0. -1.
         22    1    3    3    0    0 -0.44191817088E+02 -0.18921396948E+02  0.32589733108E+03  0.32942374894E+03  0.00000000000E+00 0. -1.
</event>
<event>
 7    1  0.6146596E-006  0.6681610E+02  0.7818608E-02  0.1420934E+00
          2   -1    0    0  502    0  0.00000000000E+00  0.00000000000E+00  0.29752867970E+04  0.29752867970E+04  0.00000000000E+00 0. -1.
          1   -1    0    0  501    0 -0.00000000000E+00 -0.00000000000E+00 -0.42228232158E+03  0.42228232158E+03  0.00000000000E+00 0. -1.
         25    2    1    2    0    0 -0.33120867249E+02  0.28352221547E+02  0.19790589103E+03  0.23810145626E+03  0.12499888583E+03 0.  0.
          2    1    1    2  501    0  0.23349785882E+02  0.38449305564E+02 -0.40051193762E+03  0.40303023928E+03  0.00000000000E+00 0. -1.
          1    1    1    2  502    0  0.97710813664E+01 -0.66801527111E+02  0.27556105221E+04  0.27564374231E+04  0.00000000000E+00 0. -1.
         22    1    3    3    0    0  0.32523680397E+02  0.47417031017E+02  0.54438841067E+02  0.79181765791E+02  0.00000000000E+00 0. -1.
         22    1    3    3    0    0 -0.65644547646E+02 -0.19064809471E+02  0.14346704996E+03  0.15891969047E+03  0.00000000000E+00 0. -1.
</event>
<event>
 7    1  0.6146596E-006  0.1052363E+03  0.7818608E-02  0.1363770E+00
          2   -1    0    0  502    0  0.00000000000E+00  0.00000000000E+00  0.13371421009E+04  0.13371421009E+04  0.00000000000E+00 0. -1.
          1   -1    0    0  501    0 -0.00000000000E+00 -0.00000000000E+00 -0.20779969755E+04  0.20779969755E+04  0.00000000000E+00 0. -1.
         25    2    1    2    0    0 -0.13715925348E+03 -0.59979942359E+02 -0.17792496002E+03  0.26398426851E+03  0.12498059178E+03 0.  0.
          2    1    1    2  501    0  0.39582562857E+02  0.21718209913E+02 -0.18546450299E+04  0.18551945038E+04  0.00000000000E+00 0. -1.
          1    1    1    2  502    0  0.97576690621E+02  0.38261732446E+02  0.12917151153E+04  0.12959603041E+04  0.00000000000E+00 0. -1.
         22    1    3    3    0    0 -0.89155828178E+02 -0.88371849777E+01 -0.17157122240E+03  0.19355500999E+03  0.00000000000E+00 0.  1.
         22    1    3    3    0    0 -0.48003425299E+02 -0.51142757382E+02 -0.63537376130E+01  0.70429258513E+02  0.00000000000E+00 0.  1.
</event>
<event>
 7    1  0.6146596E-006  0.5099055E+02  0.7818608E-02  0.1496647E+00
          2   -1    0    0  502    0  0.00000000000E+00  0.00000000000E+00  0.46349412102E+03  0.46349412102E+03  0.00000000000E+00 0. -1.
          1   -1    0    0  501    0 -0.00000000000E+00 -0.00000000000E+00 -0.99043080467E+03  0.99043080467E+03  0.00000000000E+00 0. -1.
         25    2    1    2    0    0 -0.33041604510E+02 -0.70379611551E+02 -0.75871752801E+02  0.16561088610E+03  0.12500162148E+03 0.  0.
          2    1    1    2  501    0 -0.21662401582E+01  0.33895348662E+02 -0.86782086774E+03  0.86848525937E+03  0.00000000000E+00 0. -1.
          1    1    1    2  502    0  0.35207844668E+02  0.36484262889E+02  0.41675593689E+03  0.41982878022E+03  0.00000000000E+00 0. -1.
         22    1    3    3    0    0  0.24653070149E+02  0.53100028595E+01  0.18735614126E+02  0.31416448475E+02  0.00000000000E+00 0. -1.
         22    1    3    3    0    0 -0.57694674659E+02 -0.75689614411E+02 -0.94607366927E+02  0.13419443763E+03  0.00000000000E+00 0. -1.
</event>
<event>
 7    1  0.6146596E-006  0.1165818E+03  0.7818608E-02  0.1330363E+00
          2   -1    0    0  502    0  0.00000000000E+00  0.00000000000E+00  0.96770185358E+03  0.96770185358E+03  0.00000000000E+00 0. -1.
          1   -1    0    0  501    0 -0.00000000000E+00 -0.00000000000E+00 -0.44618265079E+03  0.44618265079E+03  0.00000000000E+00 0. -1.
         25    2    1    2    0    0 -0.59579600181E+02 -0.22160575427E+02  0.46584724144E+03  0.48649577094E+03  0.12499465158E+03 0.  0.
          2    1    1    2  501    0  0.10682959292E+03  0.48850546953E+02 -0.42639340627E+03  0.44227850363E+03  0.00000000000E+00 0. -1.
          1    1    1    2  502    0 -0.47249992739E+02 -0.26689971526E+02  0.48206536762E+03  0.48511022980E+03  0.00000000000E+00 0. -1.
         22    1    3    3    0    0 -0.81631112363E+00 -0.20756004245E+02  0.38992874449E+03  0.39048163063E+03  0.00000000000E+00 0.  1.
         22    1    3    3    0    0 -0.58763289058E+02 -0.14045711826E+01  0.75918496948E+02  0.96014140312E+02  0.00000000000E+00 0.  1.
</event>
<event>
 7    1  0.6146596E-006  0.1465184E+03  0.7818608E-02  0.1384955E+00
          2   -1    0    0  502    0  0.00000000000E+00  0.00000000000E+00  0.29215588375E+03  0.29215588375E+03  0.00000000000E+00 0. -1.
          1   -1    0    0  501    0 -0.00000000000E+00 -0.00000000000E+00 -0.26644676548E+04  0.26644676548E+04  0.00000000000E+00 0. -1.
         25    2    1    2    0    0  0.62174514686E+02  0.11463939860E+03 -0.12604094029E+04  0.12732883159E+04  0.12499364175E+03 0.  0.
          2    1    1    2  501    0 -0.76036422336E+02 -0.13809192306E+03 -0.13925118071E+04  0.14014064541E+04  0.00000000000E+00 0. -1.
          1    1    1    2  502    0  0.13861907649E+02  0.23452524462E+02  0.28060943888E+03  0.28192876862E+03  0.00000000000E+00 0. -1.
         22    1    3    3    0    0  0.87348996213E+02  0.55091909808E+02 -0.98469918995E+03  0.99009972243E+03  0.00000000000E+00 0.  1.
         22    1    3    3    0    0 -0.25174481526E+02  0.59547488794E+02 -0.27571021291E+03  0.28318859342E+03  0.00000000000E+00 0.  1.
</event>
<event>
 7    1  0.6146596E-006  0.4748441E+02  0.7818608E-02  0.1483101E+00
          2   -1    0    0  502    0  0.00000000000E+00  0.00000000000E+00  0.23679627030E+03  0.23679627030E+03  0.00000000000E+00 0. -1.
          1   -1    0    0  501    0 -0.00000000000E+00 -0.00000000000E+00 -0.22203280225E+03  0.22203280225E+03  0.00000000000E+00 0. -1.
         25    2    1    2    0    0 -0.19338944626E+01  0.12862976109E+02  0.38336505761E+02  0.13140699979E+03  0.12501566229E+03 0.  0.
          2    1    1    2  501    0  0.37173829350E+02 -0.31961890480E+02 -0.16931445544E+03  0.17626922832E+03  0.00000000000E+00 0. -1.
          1    1    1    2  502    0 -0.35239934887E+02  0.19098914371E+02  0.14574141772E+03  0.15115284444E+03  0.00000000000E+00 0. -1.
         22    1    3    3    0    0 -0.46667358258E+02 -0.31321042463E+02 -0.27949051768E+01  0.56273097682E+02  0.00000000000E+00 0.  1.
         22    1    3    3    0    0  0.44733463795E+02  0.44184018572E+02  0.41131410938E+02  0.75133902108E+02  0.00000000000E+00 0.  1.
</event>
<event>
 7    1  0.6146596E-006  0.1730498E+03  0.7818608E-02  0.1304622E+00
          2   -1    0    0  502    0  0.00000000000E+00  0.00000000000E+00  0.19160274460E+04  0.19160274460E+04  0.00000000000E+00 0. -1.
          1   -1    0    0  501    0 -0.00000000000E+00 -0.00000000000E+00 -0.95860886087E+03  0.95860886087E+03  0.00000000000E+00 0. -1.
         25    2    1    2    0    0 -0.15711021312E+03  0.45397459555E+01  0.67326028048E+02  0.21182710764E+03  0.12503479963E+03 0.  0.
          2    1    1    2  501    0 -0.12577241723E+02 -0.44303558997E+02 -0.88148106785E+03  0.88268333242E+03  0.00000000000E+00 0. -1.
          1    1    1    2  502    0  0.16968745484E+03  0.39763813041E+02  0.17715736249E+04  0.17801258668E+04  0.00000000000E+00 0. -1.
         22    1    3    3    0    0 -0.16113160150E+03 -0.17100580804E+02  0.85565654934E+02  0.18324110939E+03  0.00000000000E+00 0. -1.
         22    1    3    3    0    0  0.40213883833E+01  0.21640326759E+02 -0.18239626886E+02  0.28585998246E+02  0.00000000000E+00 0. -1.
</event>
<event>
 7    1  0.6146596E-006  0.6248972E+02  0.7818608E-02  0.1474106E+00
          2   -1    0    0  502    0  0.00000000000E+00  0.00000000000E+00  0.13390063123E+04  0.13390063123E+04  0.00000000000E+00 0. -1.
          1   -1    0    0  501    0 -0.00000000000E+00 -0.00000000000E+00 -0.17198998833E+02  0.17198998833E+02  0.00000000000E+00 0. -1.
         25    2    1    2    0    0 -0.29655471251E+02 -0.26002810038E+02  0.61765003045E+03  0.63140536683E+03  0.12500233613E+03 0.  0.
          2    1    1    2  501    0  0.62106631945E+02  0.25254008171E+02  0.10382383619E+03  0.12358959350E+03  0.00000000000E+00 0. -1.
          1    1    1    2  502    0 -0.32451160694E+02  0.74880186671E+00  0.60033344684E+03  0.60121035082E+03  0.00000000000E+00 0. -1.
         22    1    3    3    0    0 -0.16489115810E+02  0.47504294686E+02  0.34767683411E+03  0.35129436365E+03  0.00000000000E+00 0.  1.
         22    1    3    3    0    0 -0.13166355441E+02 -0.73507104724E+02  0.26997319634E+03  0.28011100318E+03  0.00000000000E+00 0.  1.
</event>
<event>
 7    1  0.6146596E-006  0.7334608E+02  0.7818608E-02  0.1378006E+00
          2   -1    0    0  502    0  0.00000000000E+00  0.00000000000E+00  0.22960102280E+04  0.22960102280E+04  0.00000000000E+00 0. -1.
          1   -1    0    0  501    0 -0.00000000000E+00 -0.00000000000E+00 -0.48247127292E+02  0.48247127292E+02  0.00000000000E+00 0. -1.
         25    2    1    2    0    0  0.47640191217E+02 -0.55241054174E+02  0.10203375227E+04  0.10305509516E+04  0.12500176692E+03 0.  0.
          2    1    1    2  501    0  0.29761830028E+02  0.49300442351E+02 -0.22165855718E+02  0.61705958402E+02  0.00000000000E+00 0. -1.
          1    1    1    2  502    0 -0.77402021245E+02  0.59406118229E+01  0.12495914337E+04  0.12520004452E+04  0.00000000000E+00 0. -1.
         22    1    3    3    0    0  0.34004941593E+02  0.16525758198E+01  0.64579367683E+02  0.73003847775E+02  0.00000000000E+00 0.  1.
         22    1    3    3    0    0  0.13635249625E+02 -0.56893629994E+02  0.95575815505E+03  0.95754710386E+03  0.00000000000E+00 0.  1.
</event>
<event>
 7    1  0.6146596E-006  0.7596200E+02  0.7818608E-02  0.1381665E+00
          2   -1    0    0  502    0  0.00000000000E+00  0.00000000000E+00  0.24415037011E+04  0.24415037011E+04  0.00000000000E+00 0. -1.
          1   -1    0    0  501    0 -0.00000000000E+00 -0.00000000000E+00 -0.33683633751E+03  0.33683633751E+03  0.00000000000E+00 0. -1.
         25    2    1    2    0    0 -0.36308106833E+02 -0.17418873541E+02  0.21013050475E+02  0.13299776212E+03  0.12500064265E+03 0.  0.
          2    1    1    2  501    0  0.34309697874E+02  0.71351192786E+02 -0.27494940996E+03  0.28612117384E+03  0.00000000000E+00 0. -1.
          1    1    1    2  502    0  0.19984089590E+01 -0.53932319245E+02  0.23586037230E+04  0.23592211026E+04  0.00000000000E+00 0. -1.
         22    1    3    3    0    0 -0.41296182481E+02 -0.45801096741E+02 -0.34345046815E+02  0.70588224166E+02  0.00000000000E+00 0.  1.
         22    1    3    3    0    0  0.49880756485E+01  0.28382223200E+02  0.55358097290E+02  0.62409537957E+02  0.00000000000E+00 0.  1.
</event>
<event>
 7    1  0.6146596E-006  0.4178293E+02  0.7818608E-02  0.1508579E+00
          2   -1    0    0  502    0  0.00000000000E+00  0.00000000000E+00  0.29700596500E+03  0.29700596500E+03  0.00000000000E+00 0. -1.
          1   -1    0    0  501    0 -0.00000000000E+00 -0.00000000000E+00 -0.90259869794E+03  0.90259869794E+03  0.00000000000E+00 0. -1.
         25    2    1    2    0    0  0.17649775596E+02 -0.21457471151E+02  0.22065220603E+03  0.25509086295E+03  0.12494804795E+03 0.  0.
          2    1    1    2  501    0  0.37047241521E+02  0.93039336501E+01 -0.87159390362E+03  0.87243050962E+03  0.00000000000E+00 0. -1.
          1    1    1    2  502    0 -0.54697017117E+02  0.12153537501E+02  0.45348964652E+02  0.72083290368E+02  0.00000000000E+00 0. -1.
         22    1    3    3    0    0 -0.13418314708E+02  0.44288844286E+02  0.43158071109E+02  0.63278527161E+02  0.00000000000E+00 0.  1.
         22    1    3    3    0    0  0.31068090304E+02 -0.65746315437E+02  0.17749413492E+03  0.19181233579E+03  0.00000000000E+00 0.  1.
</event>
<event>
 7    1  0.6146596E-006  0.1039203E+03  0.7818608E-02  0.1278396E+00
          2   -1    0    0  502    0  0.00000000000E+00  0.00000000000E+00  0.43985256468E+03  0.43985256468E+03  0.00000000000E+00 0. -1.
          1   -1    0    0  501    0 -0.00000000000E+00 -0.00000000000E+00 -0.76476972403E+03  0.76476972403E+03  0.00000000000E+00 0. -1.
         25    2    1    2    0    0  0.10783310073E+03  0.10980525810E+03 -0.45781155221E+03  0.49890097704E+03  0.12500238094E+03 0.  0.
          2    1    1    2  501    0 -0.97762376946E+02 -0.66001268322E+01 -0.27129221463E+03  0.28844498563E+03  0.00000000000E+00 0. -1.
          1    1    1    2  502    0 -0.10070723789E+02 -0.10320513126E+03  0.40418660748E+03  0.41727632603E+03  0.00000000000E+00 0. -1.
         22    1    3    3    0    0  0.66749272490E+02  0.92788734953E+02 -0.15363608072E+03  0.19149219308E+03  0.00000000000E+00 0. -1.
         22    1    3    3    0    0  0.41083828245E+02  0.17016523144E+02 -0.30417547149E+03  0.30740878396E+03  0.00000000000E+00 0. -1.
</event>
<event>
 7    1  0.6146596E-006  0.9136063E+02  0.7818608E-02  0.1445686E+00
          2   -1    0    0  502    0  0.00000000000E+00  0.00000000000E+00  0.90301825004E+03  0.90301825004E+03  0.00000000000E+00 0. -1.
          1   -1    0    0  501    0 -0.00000000000E+00 -0.00000000000E+00 -0.54128463904E+03  0.54128463904E+03  0.00000000000E+00 0. -1.
         25    2    1    2    0    0  0.37141695672E+02 -0.67470465335E+02  0.37254155973E+03  0.40042465056E+03  0.12498367013E+03 0.  0.
          2    1    1    2  501    0 -0.64334336486E+02  0.65117444011E+02 -0.52300463315E+03  0.53095483298E+03  0.00000000000E+00 0. -1.
          1    1    1    2  502    0  0.27192640814E+02  0.23530213235E+01  0.51219668442E+03  0.51292340554E+03  0.00000000000E+00 0. -1.
         22    1    3    3    0    0  0.69725662282E+02 -0.66755748914E+02  0.17186042356E+03  0.19711418818E+03  0.00000000000E+00 0. -1.
         22    1    3    3    0    0 -0.32583966610E+02 -0.71471642059E+00  0.20068113617E+03  0.20331046239E+03  0.00000000000E+00 0. -1.
</event>
<event>
 7    1  0.6146596E-006  0.7616113E+02  0.7818608E-02  0.1407423E+00
          2   -1    0    0  502    0  0.00000000000E+00  0.00000000000E+00  0.17440895679E+03  0.17440895679E+03  0.00000000000E+00 0. -1.
          1   -1    0    0  501    0 -0.00000000000E+00 -0.00000000000E+00 -0.51324411533E+03  0.51324411533E+03  0.00000000000E+00 0. -1.
         25    2    1    2    0    0 -0.55910924391E+02  0.17405312246E+02 -0.51089633983E+02  0.14718584184E+03  0.12499817990E+03 0.  0.
          2    1    1    2  501    0  0.49340479958E+02 -0.60734256865E+02 -0.40645909345E+03  0.41392285219E+03  0.00000000000E+00 0. -1.
          1    1    1    2  502    0  0.65704444337E+01  0.43328944619E+02  0.11871356890E+03  0.12654437807E+03  0.00000000000E+00 0. -1.
         22    1    3    3    0    0 -0.32405688713E+02 -0.39088474951E+02 -0.66901577673E+02  0.83987252783E+02  0.00000000000E+00 0. -1.
         22    1    3    3    0    0 -0.23505235678E+02  0.56493787196E+02  0.15811943691E+02  0.63198589062E+02  0.00000000000E+00 0. -1.
</event>
<event>
 7    1  0.6146596E-006  0.6428167E+02  0.7818608E-02  0.1518660E+00
          2   -1    0    0  502    0  0.00000000000E+00  0.00000000000E+00  0.71222979833E+03  0.71222979833E+03  0.00000000000E+00 0. -1.
          1   -1    0    0  501    0 -0.00000000000E+00 -0.00000000000E+00 -0.76160658370E+02  0.76160658370E+02  0.00000000000E+00 0. -1.
         25    2    1    2    0    0 -0.49443662702E+02  0.50471910174E+02  0.30277237883E+03  0.33509419873E+03  0.12499967657E+03 0.  0.
          2    1    1    2  501    0 -0.75917105126E+01 -0.21918914948E+02 -0.55054619662E+02  0.59741811549E+02  0.00000000000E+00 0. -1.
          1    1    1    2  502    0  0.57035373214E+02 -0.28552995226E+02  0.38835138078E+03  0.39355444641E+03  0.00000000000E+00 0. -1.
         22    1    3    3    0    0 -0.10865314279E+02 -0.15393047832E+02 -0.37496321845E+01  0.19210953060E+02  0.00000000000E+00 0.  1.
         22    1    3    3    0    0 -0.38578348423E+02  0.65864958006E+02  0.30652201102E+03  0.31588324567E+03  0.00000000000E+00 0.  1.
</event>
<event>
 7    1  0.6146596E-006  0.1378036E+03  0.7818608E-02  0.1411167E+00
          2   -1    0    0  502    0  0.00000000000E+00  0.00000000000E+00  0.15678560294E+04  0.15678560294E+04  0.00000000000E+00 0. -1.
          1   -1    0    0  501    0 -0.00000000000E+00 -0.00000000000E+00 -0.42452698026E+03  0.42452698026E+03  0.00000000000E+00 0. -1.
         25    2    1    2    0    0  0.11754196573E+03  0.34574264105E+02 -0.12757373377E+02  0.17550607581E+03  0.12501255387E+03 0.  0.
          2    1    1    2  501    0 -0.13864945282E+03 -0.24191949821E+02 -0.31530817741E+03  0.34529432075E+03  0.00000000000E+00 0. -1.
          1    1    1    2  502    0  0.21107487092E+02 -0.10382314284E+02  0.14713946000E+04  0.14715826131E+04  0.00000000000E+00 0. -1.
         22    1    3    3    0    0  0.75719030962E+02  0.79634145129E+02  0.90899471648E+01  0.11026148856E+03  0.00000000000E+00 0. -1.
         22    1    3    3    0    0  0.41822934765E+02 -0.45059881023E+02 -0.21847320542E+02  0.65244587247E+02  0.00000000000E+00 0. -1.
</event>
<event>
 7    1  0.6146596E-006  0.4368401E+02  0.7818608E-02  0.1570419E+00
          2   -1    0    0  502    0  0.00000000000E+00  0.00000000000E+00  0.16314231617E+04  0.16314231617E+04  0.00000000000E+00 0. -1.
          1   -1    0    0  501    0 -0.00000000000E+00 -0.00000000000E+00 -0.31555102532E+03  0.31555102532E+03  0.00000000000E+00 0. -1.
         25    2    1    2    0    0  0.52707963544E+01 -0.48535674233E+02  0.45552460558E+02  0.14171791387E+03  0.12500178991E+03 0.  0.
          2    1    1    2  501    0 -0.22873819260E+02  0.85458849915E+01 -0.26659987871E+03  0.26771578042E+03  0.00000000000E+00 0. -1.
          1    1    1    2  502    0  0.17603022906E+02  0.39989789241E+02  0.15369195546E+04  0.15375404928E+04  0.00000000000E+00 0. -1.
         22    1    3    3    0    0  0.22441511350E+02 -0.50494342774E+02 -0.30918343566E+02  0.63318591682E+02  0.00000000000E+00 0.  1.
         22    1    3    3    0    0 -0.17170714995E+02  0.19586685406E+01  0.76470804124E+02  0.78399322186E+02  0.00000000000E+00 0.  1.
</event>
<event>
 7    1  0.6146596E-006  0.1151238E+03  0.7818608E-02  0.1365040E+00
          2   -1    0    0  502    0  0.00000000000E+00  0.00000000000E+00  0.31726084163E+04  0.31726084163E+04  0.00000000000E+00 0. -1.
          1   -1    0    0  501    0 -0.00000000000E+00 -0.00000000000E+00 -0.73543310300E+03  0.73543310300E+03  0.00000000000E+00 0. -1.
         25    2    1    2    0    0  0.51080828685E+02  0.79865710353E+02  0.29709660836E+03  0.33597271874E+03  0.12499396103E+03 0.  0.
          2    1    1    2  501    0  0.40196035493E+02 -0.72030299102E+01 -0.71422012813E+03  0.71538660621E+03  0.00000000000E+00 0. -1.
          1    1    1    2  502    0 -0.91276864178E+02 -0.72662680443E+02  0.28542988331E+04  0.28566821944E+04  0.00000000000E+00 0. -1.
         22    1    3    3    0    0 -0.11057485396E+02 -0.28987424768E+02  0.70400346298E+02  0.76933396758E+02  0.00000000000E+00 0.  1.
         22    1    3    3    0    0  0.62138314081E+02  0.10885313512E+03  0.22669626206E+03  0.25903932198E+03  0.00000000000E+00 0.  1.
</event>
<event>
 7    1  0.6146596E-006  0.1238956E+03  0.7818608E-02  0.1333762E+00
          2   -1    0    0  502    0  0.00000000000E+00  0.00000000000E+00  0.36149314078E+03  0.36149314078E+03  0.00000000000E+00 0. -1.
          1   -1    0    0  501    0 -0.00000000000E+00 -0.00000000000E+00 -0.73446795323E+03  0.73446795323E+03  0.00000000000E+00 0. -1.
         25    2    1    2    0    0  0.10044567230E+02 -0.88368803508E+02  0.55773392878E+02  0.16323595188E+03  0.12500146347E+03 0.  0.
          2    1    1    2  501    0 -0.52003874888E+02  0.11475111943E+03 -0.67239101280E+03  0.68409202342E+03  0.00000000000E+00 0. -1.
          1    1    1    2  502    0  0.41959307658E+02 -0.26382315926E+02  0.24364280746E+03  0.24863311871E+03  0.00000000000E+00 0. -1.
         22    1    3    3    0    0 -0.29418596323E+02 -0.67778864850E+02  0.82948093524E+02  0.11108471789E+03  0.00000000000E+00 0. -1.
         22    1    3    3    0    0  0.39463163553E+02 -0.20589938658E+02 -0.27174700646E+02  0.52151233990E+02  0.00000000000E+00 0. -1.
</event>
<event>
 7    1  0.6146596E-006  0.1239397E+03  0.7818608E-02  0.1378150E+00
          2   -1    0    0  502    0  0.00000000000E+00  0.00000000000E+00  0.13661970316E+04  0.13661970316E+04  0.00000000000E+00 0. -1.
          1   -1    0    0  501    0 -0.00000000000E+00 -0.00000000000E+00 -0.46610741982E+03  0.46610741982E+03  0.00000000000E+00 0. -1.
         25    2    1    2    0    0 -0.15053662663E+03  0.35403839540E+02  0.11164316450E+03  0.22803192177E+03  0.12497861159E+03 0.  0.
          2    1    1    2  501    0  0.33995632805E+02  0.17254230872E+01 -0.40406932424E+03  0.40550055354E+03  0.00000000000E+00 0. -1.
          1    1    1    2  502    0  0.11654099383E+03 -0.37129262627E+02  0.11925157715E+04  0.11987719761E+04  0.00000000000E+00 0. -1.
         22    1    3    3    0    0 -0.54592432410E+02  0.47304010172E+02 -0.96992196254E+01  0.72884003157E+02  0.00000000000E+00 0. -1.
         22    1    3    3    0    0 -0.95944194224E+02 -0.11900170632E+02  0.12134238412E+03  0.15514791862E+03  0.00000000000E+00 0. -1.
</event>
<event>
 7    1  0.6146596E-006  0.3775426E+02  0.7818608E-02  0.1562529E+00
          2   -1    0    0  502    0  0.00000000000E+00  0.00000000000E+00  0.29282580649E+04  0.29282580649E+04  0.00000000000E+00 0. -1.
          1   -1    0    0  501    0 -0.00000000000E+00 -0.00000000000E+00 -0.16830460768E+04  0.16830460768E+04  0.00000000000E+00 0. -1.
         25    2    1    2    0    0  0.64096333394E+02  0.18998350110E+02  0.11222471464E+04  0.11311639503E+04  0.12499579055E+03 0.  0.
          2    1    1    2  501    0 -0.34694658208E+02 -0.14874731974E+02 -0.16782530965E+04  0.16786775846E+04  0.00000000000E+00 0. -1.
          1    1    1    2  502    0 -0.29401675187E+02 -0.41236181358E+01  0.18012179382E+04  0.18014626068E+04  0.00000000000E+00 0. -1.
         22    1    3    3    0    0  0.58981436656E+02 -0.29775644434E+02  0.28821417530E+03  0.29569039504E+03  0.00000000000E+00 0.  1.
         22    1    3    3    0    0  0.51148967385E+01  0.48773994543E+02  0.83403297110E+03  0.83547355529E+03  0.00000000000E+00 0.  1.
</event>
<event>
 7    1  0.6146596E-006  0.4689350E+02  0.7818608E-02  0.1465648E+00
          2   -1    0    0  502    0  0.00000000000E+00  0.00000000000E+00  0.24985137199E+04  0.24985137199E+04  0.00000000000E+00 0. -1.
          1   -1    0    0  501    0 -0.00000000000E+00 -0.00000000000E+00 -0.74348008303E+02  0.74348008303E+02  0.00000000000E+00 0. -1.
         25    2    1    2    0    0 -0.67483232750E+00 -0.25296547063E+00  0.38637523059E+03  0.40609197959E+03  0.12499743070E+03 0.  0.
          2    1    1    2  501    0  0.20279489978E+02 -0.42345829187E+02 -0.55646459898E+02  0.72807660740E+02  0.00000000000E+00 0. -1.
          1    1    1    2  502    0 -0.19604657650E+02  0.42598794658E+02  0.20934369409E+04  0.20939620879E+04  0.00000000000E+00 0. -1.
         22    1    3    3    0    0  0.29413380663E+02 -0.22853000582E+02  0.30249820121E+02  0.47983937051E+02  0.00000000000E+00 0. -1.
         22    1    3    3    0    0 -0.30088212990E+02  0.22600035111E+02  0.35612541047E+03  0.35810804254E+03  0.00000000000E+00 0. -1.
</event>
<event>
 7    1  0.6146596E-006  0.3432569E+02  0.7818608E-02  0.1575604E+00
          2   -1    0    0  502    0  0.00000000000E+00  0.00000000000E+00  0.19297288891E+04  0.19297288891E+04  0.00000000000E+00 0. -1.
          1   -1    0    0  501    0 -0.00000000000E+00 -0.00000000000E+00 -0.30708763060E+02  0.30708763060E+02  0.00000000000E+00 0. -1.
         25    2    1    2    0    0  0.14786807713E+02  0.92839788224E+01  0.15568468765E+04  0.15619546672E+04  0.12500137432E+03 0.  0.
          2    1    1    2  501    0  0.18381836716E+02 -0.28988978165E+02 -0.16258092051E+02  0.37981289252E+02  0.00000000000E+00 0. -1.
          1    1    1    2  502    0 -0.33168644429E+02  0.19704999343E+02  0.35843134166E+03  0.36050169577E+03  0.00000000000E+00 0. -1.
         22    1    3    3    0    0 -0.29241531986E+02  0.48772437176E+02  0.10731230198E+04  0.10746286956E+04  0.00000000000E+00 0.  1.
         22    1    3    3    0    0  0.44028339699E+02 -0.39488458353E+02  0.48372385668E+03  0.48732597157E+03  0.00000000000E+00 0.  1.
</event>
<event>
 7    1  0.6146596E-006  0.1454229E+03  0.7818608E-02  0.1209520E+00
          2   -1    0    0  502    0  0.00000000000E+00  0.00000000000E+00  0.60288031376E+02  0.60288031376E+02  0.00000000000E+00 0. -1.
          1   -1    0    0  501    0 -0.00000000000E+00 -0.00000000000E+00 -0.40204156475E+04  0.40204156475E+04  0.00000000000E+00 0. -1.
         25    2    1    2    0    0  0.11186155339E+01 -0.34884632456E+02 -0.42754502377E+03  0.44680820071E+03  0.12499852794E+03 0.  0.
          2    1    1    2  501    0  0.75671389982E+02  0.15237598680E+03 -0.34797731005E+04  0.34839295963E+04  0.00000000000E+00 0. -1.
          1    1    1    2  502    0 -0.76790005516E+02 -0.11749135435E+03 -0.52809491764E+02  0.14996588183E+03  0.00000000000E+00 0. -1.
         22    1    3    3    0    0 -0.14358280312E+01 -0.81573123501E+02 -0.30242935812E+03  0.31324072650E+03  0.00000000000E+00 0. -1.
         22    1    3    3    0    0  0.25544435651E+01  0.46688491045E+02 -0.12511566565E+03  0.13356747422E+03  0.00000000000E+00 0. -1.
</event>
<event>
 7    1  0.6146596E-006  0.9017398E+02  0.7818608E-02  0.1316885E+00
          2   -1    0    0  502    0  0.00000000000E+00  0.00000000000E+00  0.10290245354E+04  0.10290245354E+04  0.00000000000E+00 0. -1.
          1   -1    0    0  501    0 -0.00000000000E+00 -0.00000000000E+00 -0.11993343705E+04  0.11993343705E+04  0.00000000000E+00 0. -1.
         25    2    1    2    0    0  0.31607767432E+02 -0.16143456808E+03  0.24806429443E+03  0.32283041349E+03  0.12499364371E+03 0.  0.
          2    1    1    2  501    0 -0.35454206564E+02  0.82444115644E+02 -0.11581076034E+04  0.11615796374E+04  0.00000000000E+00 0. -1.
          1    1    1    2  502    0  0.38464391316E+01  0.78990452433E+02  0.73973347379E+03  0.74394885504E+03  0.00000000000E+00 0. -1.
         22    1    3    3    0    0  0.52629419670E+02 -0.17408670933E+03  0.22295808267E+03  0.28772616289E+03  0.00000000000E+00 0. -1.
         22    1    3    3    0    0 -0.21021652238E+02  0.12652141258E+02  0.25106211757E+02  0.35104250597E+02  0.00000000000E+00 0. -1.
</event>
<event>
 7    1  0.6146596E-006  0.4626275E+02  0.7818608E-02  0.1470236E+00
          2   -1    0    0  502    0  0.00000000000E+00  0.00000000000E+00  0.24041069524E+04  0.24041069524E+04  0.00000000000E+00 0. -1.
          1   -1    0    0  501    0 -0.00000000000E+00 -0.00000000000E+00 -0.22914816409E+03  0.22914816409E+03  0.00000000000E+00 0. -1.
         25    2    1    2    0    0  0.87829140948E+01 -0.51987534600E+01  0.24119433054E+02  0.12771845513E+03  0.12500436038E+03 0.  0.
          2    1    1    2  501    0  0.63497259098E+01  0.47656288635E+02 -0.17386784284E+03  0.18039253765E+03  0.00000000000E+00 0. -1.
          1    1    1    2  502    0 -0.15132640005E+02 -0.42457535175E+02  0.23247071981E+04  0.23251441237E+04  0.00000000000E+00 0. -1.
         22    1    3    3    0    0 -0.30168457391E+01  0.57114619795E+02  0.28969546700E+02  0.64112524429E+02  0.00000000000E+00 0.  1.
         22    1    3    3    0    0  0.11799759834E+02 -0.62313373255E+02 -0.48501136458E+01  0.63605930706E+02  0.00000000000E+00 0.  1.
</event>
<event>
 7    1  0.6146596E-006  0.6528084E+02  0.7818608E-02  0.1481985E+00
          2   -1    0    0  502    0  0.00000000000E+00  0.00000000000E+00  0.13502115490E+03  0.13502115490E+03  0.00000000000E+00 0. -1.
          1   -1    0    0  501    0 -0.00000000000E+00 -0.00000000000E+00 -0.37079340811E+03  0.37079340811E+03  0.00000000000E+00 0. -1.
         25    2    1    2    0    0 -0.40524196756E+02 -0.38072075998E+02 -0.16696438854E+03  0.21585978903E+03  0.12500659177E+03 0.  0.
          2    1    1    2  501    0 -0.22649974429E+02  0.18721307899E+02 -0.16812187386E+03  0.17067065706E+03  0.00000000000E+00 0. -1.
          1    1    1    2  502    0  0.63174171184E+02  0.19350768099E+02  0.99314009182E+02  0.11928411693E+03  0.00000000000E+00 0. -1.
         22    1    3    3    0    0 -0.63648657596E+02  0.15968522812E+02 -0.42412336536E+02  0.78134189860E+02  0.00000000000E+00 0. -1.
         22    1    3    3    0    0  0.23124460841E+02 -0.54040598809E+02 -0.12455205201E+03  0.13772559917E+03  0.00000000000E+00 0. -1.
</event>
<event>
 7    1  0.6146596E-006  0.9182182E+02  0.7818608E-02  0.1341171E+00
          2   -1    0    0  502    0  0.00000000000E+00  0.00000000000E+00  0.31447310902E+02  0.31447310902E+02  0.00000000000E+00 0. -1.
          1   -1    0    0  501    0 -0.00000000000E+00 -0.00000000000E+00 -0.18390716572E+04  0.18390716572E+04  0.00000000000E+00 0. -1.
         25    2    1    2    0    0 -0.65144807146E+02 -0.30617239674E+02 -0.11680592546E+04  0.11769321115E+04  0.12500204653E+03 0.  0.
          2    1    1    2  501    0  0.12314316776E+03  0.67841662325E+01 -0.61334452025E+03  0.62562110355E+03  0.00000000000E+00 0. -1.
          1    1    1    2  502    0 -0.57998360609E+02  0.23833073441E+02 -0.26220571515E+02  0.67965753094E+02  0.00000000000E+00 0. -1.
         22    1    3    3    0    0 -0.72568428761E+02 -0.67236357432E+02 -0.64529015302E+03  0.65282944648E+03  0.00000000000E+00 0.  1.
         22    1    3    3    0    0  0.74236216154E+01  0.36619117758E+02 -0.52276910153E+03  0.52410266500E+03  0.00000000000E+00 0.  1.
</event>
<event>
 7    1  0.6146596E-006  0.1251361E+03  0.7818608E-02  0.1244288E+00
          2   -1    0    0  502    0  0.00000000000E+00  0.00000000000E+00  0.53331405444E+03  0.53331405444E+03  0.00000000000E+00 0. -1.
          1   -1    0    0  501    0 -0.00000000000E+00 -0.00000000000E+00 -0.10139646488E+04  0.10139646488E+04  0.00000000000E+00 0. -1.
         25    2    1    2    0    0  0.86843977550E+02  0.29328152858E+02  0.17590507558E+03  0.23445573855E+03  0.12499952296E+03 0.  0.
          2    1    1    2  501    0 -0.24408703927E+02 -0.12435176717E+03 -0.97059579607E+03  0.97883366624E+03  0.00000000000E+00 0. -1.
          1    1    1    2  502    0 -0.62435273622E+02  0.95023614310E+02  0.31404012612E+03  0.33398929846E+03  0.00000000000E+00 0. -1.
         22    1    3    3    0    0  0.52870072841E+02  0.75908286769E+02  0.78768962512E+02  0.12149840352E+03  0.00000000000E+00 0.  1.
         22    1    3    3    0    0  0.33973904709E+02 -0.46580133911E+02  0.97136113065E+02  0.11295733503E+03  0.00000000000E+00 0.  1.
</event>
<event>
 7    1  0.6146596E-006  0.9145376E+02  0.7818608E-02  0.1398878E+00
          2   -1    0    0  502    0  0.00000000000E+00  0.00000000000E+00  0.39086416823E+03  0.39086416823E+03  0.00000000000E+00 0. -1.
          1   -1    0    0  501    0 -0.00000000000E+00 -0.00000000000E+00 -0.67441965501E+03  0.67441965501E+03  0.00000000000E+00 0. -1.
         25    2    1    2    0    0  0.85173732251E+02  0.66286783066E+02 -0.50402339196E+02  0.17266554227E+03  0.12499796565E+03 0.  0.
          2    1    1    2  501    0 -0.47721179497E+02 -0.77301356596E+02 -0.55804417750E+03  0.56539023227E+03  0.00000000000E+00 0. -1.
          1    1    1    2  502    0 -0.37452552754E+02  0.11014573530E+02  0.32489102992E+03  0.32722804870E+03  0.00000000000E+00 0. -1.
         22    1    3    3    0    0  0.77970502253E+02  0.76865318991E+02  0.10911164402E+02  0.11003058663E+03  0.00000000000E+00 0.  1.
         22    1    3    3    0    0  0.72032299972E+01 -0.10578535925E+02 -0.61313503598E+02  0.62634955642E+02  0.00000000000E+00 0.  1.
</event>
<event>
 7    1  0.6146596E-006  0.5119377E+02  0.7818608E-02  0.1550028E+00
          2   -1    0    0  502    0  0.00000000000E+00  0.00000000000E+00  0.83916369704E+03  0.83916369704E+03  0.00000000000E+00 0. -1.
          1   -1    0    0  501    0 -0.00000000000E+00 -0.00000000000E+00 -0.33949013618E+03  0.33949013618E+03  0.00000000000E+00 0. -1.
         25    2    1    2    0    0  0.45283113344E+02 -0.55881649855E+02 -0.23931035319E+03  0.27940608322E+03  0.12499998021E+03 0.  0.
          2    1    1    2  501    0 -0.62266618195E+01  0.22877822961E+02 -0.77560618041E+02  0.81103733402E+02  0.00000000000E+00 0. -1.
          1    1    1    2  502    0 -0.39056451525E+02  0.33003826893E+02  0.81654453209E+03  0.81814401659E+03  0.00000000000E+00 0. -1.
         22    1    3    3    0    0 -0.28494625901E+02 -0.58009406905E+02 -0.15141288286E+03  0.16462957234E+03  0.00000000000E+00 0.  1.
         22    1    3    3    0    0  0.73777739245E+02  0.21277570504E+01 -0.87897470338E+02  0.11477651088E+03  0.00000000000E+00 0.  1.
</event>
<event>
 7    1  0.6146596E-006  0.8957092E+02  0.7818608E-02  0.1396633E+00
          2   -1    0    0  502    0  0.00000000000E+00  0.00000000000E+00  0.27640038105E+04  0.27640038105E+04  0.00000000000E+00 0. -1.
          1   -1    0    0  501    0 -0.00000000000E+00 -0.00000000000E+00 -0.71501966416E+02  0.71501966416E+02  0.00000000000E+00 0. -1.
         25    2    1    2    0    0 -0.27341811521E+02  0.10619018148E+03  0.55792859534E+03  0.58217939020E+03  0.12499838230E+03 0.  0.
          2    1    1    2  501    0 -0.23059415222E+02 -0.33387401342E+02 -0.51441759897E+02  0.65518774866E+02  0.00000000000E+00 0. -1.
          1    1    1    2  502    0  0.50401226743E+02 -0.72802780143E+02  0.21860150086E+04  0.21878076119E+04  0.00000000000E+00 0. -1.
         22    1    3    3    0    0 -0.18241401887E+02  0.59624722673E+02  0.51319847083E+03  0.51697246228E+03  0.00000000000E+00 0.  1.
         22    1    3    3    0    0 -0.91004096343E+01  0.46565458811E+02  0.44730124508E+02  0.65206927916E+02  0.00000000000E+00 0.  1.
</event>
<event>
 7    1  0.6146596E-006  0.8372475E+02  0.7818608E-02  0.1339104E+00
          2   -1    0    0  502    0  0.00000000000E+00  0.00000000000E+00  0.14422039434E+04  0.14422039434E+04  0.00000000000E+00 0. -1.
          1   -1    0    0  501    0 -0.00000000000E+00 -0.00000000000E+00 -0.21331228239E+04  0.21331228239E+04  0.00000000000E+00 0. -1.
         25    2    1    2    0    0  0.10899351967E+03 -0.32748172860E+02 -0.38571923864E+02  0.17339204777E+03  0.12499991505E+03 0.  0.
          2    1    1    2  501    0 -0.30934570730E+02  0.62805397950E+02 -0.20252631117E+04  0.20264728317E+04  0.00000000000E+00 0. -1.
          1    1    1    2  502    0 -0.78058948936E+02 -0.30057225090E+02  0.13729161550E+04  0.13754618879E+04  0.00000000000E+00 0. -1.
         22    1    3    3    0    0  0.54038997216E+02 -0.24799547189E+02 -0.83125204709E+02  0.10220093159E+03  0.00000000000E+00 0.  1.
         22    1    3    3    0    0  0.54954522449E+02 -0.79486256709E+01  0.44553280844E+02  0.71191116171E+02  0.00000000000E+00 0.  1.
</event>
<event>
 7    1  0.6146596E-006  0.1126087E+03  0.7818608E-02  0.1383421E+00
          2   -1    0    0  502    0  0.00000000000E+00  0.00000000000E+00  0.16086421508E+03  0.16086421508E+03  0.00000000000E+00 0. -1.
          1   -1    0    0  501    0 -0.00000000000E+00 -0.00000000000E+00 -0.24700705237E+04  0.24700705237E+04  0.00000000000E+00 0. -1.
         25    2    1    2    0    0  0.89998599376E+01 -0.10669417870E+03 -0.56088204596E+03  0.58453690086E+03  0.12502029329E+03 0.  0.
          2    1    1    2  501    0  0.35770788708E+02  0.29234643371E+01 -0.18757391451E+04  0.18760824705E+04  0.00000000000E+00 0. -1.
          1    1    1    2  502    0 -0.44770648646E+02  0.10377071436E+03  0.12741488235E+03  0.17031536744E+03  0.00000000000E+00 0. -1.
         22    1    3    3    0    0 -0.53636299277E+02 -0.47718428503E+02 -0.33989986769E+03  0.34739864864E+03  0.00000000000E+00 0. -1.
         22    1    3    3    0    0  0.62636159214E+02 -0.58975750198E+02 -0.22098217827E+03  0.23713825222E+03  0.00000000000E+00 0. -1.
</event>
<event>
 7    1  0.6146596E-006  0.6252793E+02  0.7818608E-02  0.1455619E+00
          2   -1    0    0  502    0  0.00000000000E+00  0.00000000000E+00  0.16952234346E+04  0.16952234346E+04  0.00000000000E+00 0. -1.
          1   -1    0    0  501    0 -0.00000000000E+00 -0.00000000000E+00 -0.65179859081E+03  0.65179859081E+03  0.00000000000E+00 0. -1.
         25    2    1    2    0    0  0.23544998550E+02  0.81725845267E+02  0.22058185376E+03  0.26742159373E+03  0.12499789537E+03 0.  0.
          2    1    1    2  501    0  0.78007869040E+01 -0.61939009418E+02 -0.62659063706E+03  0.62969287722E+03  0.00000000000E+00 0. -1.
          1    1    1    2  502    0 -0.31345785454E+02 -0.19786835849E+02  0.14494336271E+04  0.14499075545E+04  0.00000000000E+00 0. -1.
         22    1    3    3    0    0 -0.64758760288E+01  0.13624194378E+02 -0.14448973552E+02  0.20888477194E+02  0.00000000000E+00 0. -1.
         22    1    3    3    0    0  0.30020874579E+02  0.68101650889E+02  0.23503082731E+03  0.24653311654E+03  0.00000000000E+00 0. -1.
</event>
<event>
 7    1  0.6146596E-006  0.5038989E+02  0.7818608E-02  0.1493816E+00
          2   -1    0    0  502    0  0.00000000000E+00  0.00000000000E+00  0.21105217958E+04  0.21105217958E+04  0.00000000000E+00 0. -1.
          1   -1    0    0  501    0 -0.00000000000E+00 -0.00000000000E+00 -0.72611858074E+03  0.72611858074E+03  0.00000000000E+00 0. -1.
         25    2    1    2    0    0  0.33511353183E+02 -0.45916887458E+02  0.14384705569E+04  0.14450103286E+04  0.12500374122E+03 0.  0.
          2    1    1    2  501    0 -0.48360246167E+02  0.14168751100E+02 -0.72151004117E+03  0.72326772804E+03  0.00000000000E+00 0. -1.
          1    1    1    2  502    0  0.14848892984E+02  0.31748136358E+02  0.66744269930E+03  0.66836231988E+03  0.00000000000E+00 0. -1.
         22    1    3    3    0    0 -0.10816798961E+02 -0.79540191916E+02  0.94861294661E+03  0.95200323936E+03  0.00000000000E+00 0.  1.
         22    1    3    3    0    0  0.44328152144E+02  0.33623304458E+02  0.48985761029E+03  0.49300708923E+03  0.00000000000E+00 0.  1.
</event>
<event>
 7    1  0.6146596E-006  0.3710053E+02  0.7818608E-02  0.1597556E+00
          2   -1    0    0  502    0  0.00000000000E+00  0.00000000000E+00  0.68560955483E+03  0.68560955483E+03  0.00000000000E+00 0. -1.
          1   -1    0    0  501    0 -0.00000000000E+00 -0.00000000000E+00 -0.70206150912E+03  0.70206150912E+03  0.00000000000E+00 0. -1.
         25    2    1    2    0    0  0.21602197073E+02  0.57443618312E+02  0.18858519536E+03  0.23442136170E+03  0.12499029846E+03 0.  0.
          2    1    1    2  501    0 -0.13488065554E+02 -0.34499606960E+02 -0.67832544965E+03  0.67933612184E+03  0.00000000000E+00 0. -1.
          1    1    1    2  502    0 -0.81141315185E+01 -0.22944011352E+02  0.47328830000E+03  0.47391358041E+03  0.00000000000E+00 0. -1.
         22    1    3    3    0    0  0.67367161262E+02  0.42088608909E+02  0.68114466126E+02  0.10463921785E+03  0.00000000000E+00 0.  1.
         22    1    3    3    0    0 -0.45764964189E+02  0.15355009402E+02  0.12047072923E+03  0.12978214385E+03  0.00000000000E+00 0.  1.
</event>
<event>
 7    1  0.6146596E-006  0.1078893E+03  0.7818608E-02  0.1403946E+00
          2   -1    0    0  502    0  0.00000000000E+00  0.00000000000E+00  0.13950458172E+04  0.13950458172E+04  0.00000000000E+00 0. -1.
          1   -1    0    0  501    0 -0.00000000000E+00 -0.00000000000E+00 -0.27657650672E+02  0.27657650672E+02  0.00000000000E+00 0. -1.
         25    2    1    2    0    0 -0.12449103278E+03  0.40047676455E+02  0.69882023820E+03  0.72185633426E+03  0.12500003345E+03 0.  0.
          2    1    1    2  501    0  0.26639900209E+02 -0.17351751976E+02  0.81321157762E+01  0.32816137597E+02  0.00000000000E+00 0. -1.
          1    1    1    2  502    0  0.97851132568E+02 -0.22695924478E+02  0.66043581252E+03  0.66803099598E+03  0.00000000000E+00 0. -1.
         22    1    3    3    0    0 -0.11988655770E+03 -0.16958479918E+02  0.52842020455E+03  0.54211464593E+03  0.00000000000E+00 0. -1.
         22    1    3    3    0    0 -0.46044750764E+01  0.57006156373E+02  0.17040003365E+03  0.17974168833E+03  0.00000000000E+00 0. -1.
</event>
<event>
 7    1  0.6146596E-006  0.3102908E+02  0.7818608E-02  0.1587779E+00
          2   -1    0    0  502    0  0.00000000000E+00  0.00000000000E+00  0.11899598074E+04  0.11899598074E+04  0.00000000000E+00 0. -1.
          1   -1    0    0  501    0 -0.00000000000E+00 -0.00000000000E+00 -0.23826040160E+03  0.23826040160E+03  0.00000000000E+00 0. -1.
         25    2    1    2    0    0 -0.21051222742E+01 -0.18980410170E+02  0.18263468239E+02  0.12776218994E+03  0.12499974159E+03 0.  0.
          2    1    1    2  501    0 -0.28390525189E+02  0.13251611952E+02 -0.18195642283E+03  0.18463414351E+03  0.00000000000E+00 0. -1.
          1    1    1    2  502    0  0.30495647463E+02  0.57287982178E+01  0.11153923604E+04  0.11158238756E+04  0.00000000000E+00 0. -1.
         22    1    3    3    0    0  0.36457394146E+02 -0.58543497833E+02 -0.17822651565E+01  0.68990283341E+02  0.00000000000E+00 0.  1.
         22    1    3    3    0    0 -0.38562516420E+02  0.39563087663E+02  0.20045733395E+02  0.58771906600E+02  0.00000000000E+00 0.  1.
</event>
<event>
 7    1  0.6146596E-006  0.1071826E+03  0.7818608E-02  0.1430564E+00
          2   -1    0    0  502    0  0.00000000000E+00  0.00000000000E+00  0.55531510739E+03  0.55531510739E+03  0.00000000000E+00 0. -1.
          1   -1    0    0  501    0 -0.00000000000E+00 -0.00000000000E+00 -0.94762778224E+02  0.94762778224E+02  0.00000000000E+00 0. -1.
         25    2    1    2    0    0  0.18906293216E+02 -0.81394733821E+02 -0.17204238355E+02  0.15134362701E+03  0.12500542789E+03 0.  0.
          2    1    1    2  501    0  0.11633953133E+02 -0.23315010282E+02  0.41119655561E+02  0.48680228465E+02  0.00000000000E+00 0. -1.
          1    1    1    2  502    0 -0.30540246350E+02  0.10470974410E+03  0.43663691196E+03  0.45005403014E+03  0.00000000000E+00 0. -1.
         22    1    3    3    0    0  0.16781700801E+02 -0.17032488832E+02 -0.66226213212E+02  0.70410528147E+02  0.00000000000E+00 0.  1.
         22    1    3    3    0    0  0.21245924155E+01 -0.64362244989E+02  0.49021974857E+02  0.80933098865E+02  0.00000000000E+00 0.  1.
</event>
<event>
 7    1  0.6146596E-006  0.6683056E+02  0.7818608E-02  0.1508704E+00
          2   -1    0    0  502    0  0.00000000000E+00  0.00000000000E+00  0.17530751778E+04  0.17530751778E+04  0.00000000000E+00 0. -1.
          1   -1    0    0  501    0 -0.00000000000E+00 -0.00000000000E+00 -0.76943493326E+02  0.76943493326E+02  0.00000000000E+00 0. -1.
         25    2    1    2    0    0 -0.46379978129E+02 -0.29019965427E+02  0.61789593388E+03  0.63278211857E+03  0.12499825484E+03 0.  0.
          2    1    1    2  501    0 -0.20447571662E+02  0.12298427617E+02 -0.66366891850E+02  0.70526015360E+02  0.00000000000E+00 0. -1.
          1    1    1    2  502    0  0.66827549791E+02  0.16721537811E+02  0.11246026424E+04  0.11267105372E+04  0.00000000000E+00 0. -1.
         22    1    3    3    0    0 -0.35183326559E+02  0.35824984528E+01  0.38180808983E+02  0.52043010458E+02  0.00000000000E+00 0.  1.
         22    1    3    3    0    0 -0.11196651570E+02 -0.32602463880E+02  0.57971512490E+03  0.58073910811E+03  0.00000000000E+00 0.  1.
</event>
<event>
 7    1  0.6146596E-006  0.4912001E+02  0.7818608E-02  0.1482459E+00
          2   -1    0    0  502    0  0.00000000000E+00  0.00000000000E+00  0.19968071617E+04  0.19968071617E+04  0.00000000000E+00 0. -1.
          1   -1    0    0  501    0 -0.00000000000E+00 -0.00000000000E+00 -0.35434430242E+03  0.35434430242E+03  0.00000000000E+00 0. -1.
         25    2    1    2    0    0 -0.29306219283E+02 -0.48552883703E+02  0.32486318410E+03  0.35267337085E+03  0.12500472438E+03 0.  0.
          2    1    1    2  501    0 -0.17958503802E+02  0.34532870139E+02 -0.33895873539E+03  0.34118624134E+03  0.00000000000E+00 0. -1.
          1    1    1    2  502    0  0.47264723085E+02  0.14020013564E+02  0.16565584105E+04  0.16572918519E+04  0.00000000000E+00 0. -1.
         22    1    3    3    0    0 -0.37672362108E+02 -0.19745769345E+01  0.29346783098E+03  0.29588253352E+03  0.00000000000E+00 0. -1.
         22    1    3    3    0    0  0.83661428254E+01 -0.46578306769E+02  0.31395353123E+02  0.56790837333E+02  0.00000000000E+00 0. -1.
</event>
<event>
 7    1  0.6146596E-006  0.1629966E+03  0.7818608E-02  0.1273542E+00
          2   -1    0    0  502    0  0.00000000000E+00  0.00000000000E+00  0.30671405770E+03  0.30671405770E+03  0.00000000000E+00 0. -1.
          1   -1    0    0  501    0 -0.00000000000E+00 -0.00000000000E+00 -0.86209097947E+03  0.86209097947E+03  0.00000000000E+00 0. -1.
         25    2    1    2    0    0  0.78175501798E+02  0.19043873315E+03 -0.35857178886E+03  0.43194543030E+03  0.12499922729E+03 0.  0.
          2    1    1    2  501    0 -0.82202552184E+02 -0.12511874234E+03 -0.45057109084E+03  0.47479076146E+03  0.00000000000E+00 0. -1.
          1    1    1    2  502    0  0.40270503856E+01 -0.65319990812E+02  0.25376595792E+03  0.26206884541E+03  0.00000000000E+00 0. -1.
         22    1    3    3    0    0  0.59916772154E+02  0.11542691496E+03 -0.32046972877E+03  0.34585291576E+03  0.00000000000E+00 0.  1.
         22    1    3    3    0    0  0.18258729644E+02  0.75011818188E+02 -0.38102060090E+02  0.86092514536E+02  0.00000000000E+00 0.  1.
</event>
<event>
 7    1  0.6146596E-006  0.7013861E+02  0.7818608E-02  0.1426520E+00
          2   -1    0    0  502    0  0.00000000000E+00  0.00000000000E+00  0.69721749393E+03  0.69721749393E+03  0.00000000000E+00 0. -1.
          1   -1    0    0  501    0 -0.00000000000E+00 -0.00000000000E+00 -0.15519094392E+04  0.15519094392E+04  0.00000000000E+00 0. -1.
         25    2    1    2    0    0  0.62483246934E+02 -0.17624803436E+02 -0.23648143145E+03  0.27525136550E+03  0.12500022778E+03 0.  0.
          2    1    1    2  501    0 -0.67066773521E+02 -0.23179209398E+02 -0.12944485855E+04  0.12963920581E+04  0.00000000000E+00 0. -1.
          1    1    1    2  502    0  0.45835265871E+01  0.40804012834E+02  0.67623807164E+03  0.67748350955E+03  0.00000000000E+00 0. -1.
         22    1    3    3    0    0 -0.15752122833E+02  0.40409422877E+02 -0.76984173636E+02  0.88360702925E+02  0.00000000000E+00 0. -1.
         22    1    3    3    0    0  0.78235369767E+02 -0.58034226313E+02 -0.15949725782E+03  0.18689066258E+03  0.00000000000E+00 0. -1.
</event>
<event>
 7    1  0.6146596E-006  0.1168243E+03  0.7818608E-02  0.1356848E+00
          2   -1    0    0  502    0  0.00000000000E+00  0.00000000000E+00  0.24936288640E+03  0.24936288640E+03  0.00000000000E+00 0. -1.
          1   -1    0    0  501    0 -0.00000000000E+00 -0.00000000000E+00 -0.83070418888E+03  0.83070418888E+03  0.00000000000E+00 0. -1.
         25    2    1    2    0    0  0.14194110434E+03  0.33642717393E+02 -0.19759313654E+03  0.27558514746E+03  0.12500006543E+03 0.  0.
          2    1    1    2  501    0 -0.11319354456E+03 -0.15232918136E+01 -0.58643541813E+03  0.59726175048E+03  0.00000000000E+00 0. -1.
          1    1    1    2  502    0 -0.28747559776E+02 -0.32119425579E+02  0.20268725220E+03  0.20722017734E+03  0.00000000000E+00 0. -1.
         22    1    3    3    0    0  0.44557662807E+02  0.72427104778E+02 -0.10963772167E+03  0.13874977778E+03  0.00000000000E+00 0.  1.
         22    1    3    3    0    0  0.97383441528E+02 -0.38784387386E+02 -0.87955414874E+02  0.13683536968E+03  0.00000000000E+00 0.  1.
</event>
<event>
 7    1  0.6146596E-006  0.1615766E+03  0.7818608E-02  0.1367135E+00
          2   -1    0    0  502    0  0.00000000000E+00  0.00000000000E+00  0.18803128862E+03  0.18803128862E+03  0.00000000000E+00 0. -1.
          1   -1    0    0  501    0 -0.00000000000E+00 -0.00000000000E+00 -0.34907623444E+03  0.34907623444E+03  0.00000000000E+00 0. -1.
         25    2    1    2    0    0 -0.58344874985E+02  0.13190768964E+03 -0.52368832180E+02  0.19792406427E+03  0.12501070999E+03 0.  0.
          2    1    1    2  501    0  0.81608469371E+02 -0.14853153409E+03 -0.18903964029E+03  0.25388490403E+03  0.00000000000E+00 0. -1.
          1    1    1    2  502    0 -0.23263594386E+02  0.16623844451E+02  0.80363526646E+02  0.85298554754E+02  0.00000000000E+00 0. -1.
         22    1    3    3    0    0 -0.82880549585E+02  0.69896315741E+02 -0.69862999563E+02  0.12897875469E+03  0.00000000000E+00 0. -1.
         22    1    3    3    0    0  0.24535674600E+02  0.62011373901E+02  0.17494167383E+02  0.68945309584E+02  0.00000000000E+00 0. -1.
</event>
<event>
 7    1  0.6146596E-006  0.1855785E+03  0.7818608E-02  0.1371621E+00
          2   -1    0    0  502    0  0.00000000000E+00  0.00000000000E+00  0.10692495498E+04  0.10692495498E+04  0.00000000000E+00 0. -1.
          1   -1    0    0  501    0 -0.00000000000E+00 -0.00000000000E+00 -0.46455895285E+03  0.46455895285E+03  0.00000000000E+00 0. -1.
         25    2    1    2    0    0 -0.21755992034E+02 -0.20525931090E+03  0.76006831359E+02  0.25299677646E+03  0.12500249030E+03 0.  0.
          2    1    1    2  501    0  0.15451151911E+02  0.18211623637E+03 -0.35368433448E+03  0.39811765862E+03  0.00000000000E+00 0. -1.
          1    1    1    2  502    0  0.63048401228E+01  0.23143074535E+02  0.88236810009E+03  0.88269406759E+03  0.00000000000E+00 0. -1.
         22    1    3    3    0    0 -0.17676917652E+02 -0.22269741806E+03  0.70690107405E+02  0.23431539581E+03  0.00000000000E+00 0.  1.
         22    1    3    3    0    0 -0.40790743818E+01  0.17438107160E+02  0.53167239536E+01  0.18681380643E+02  0.00000000000E+00 0.  1.
</event>
<event>
 7    1  0.6146596E-006  0.7291268E+02  0.7818608E-02  0.1403473E+00
          2   -1    0    0  502    0  0.00000000000E+00  0.00000000000E+00  0.60361529759E+02  0.60361529759E+02  0.00000000000E+00 0. -1.
          1   -1    0    0  501    0 -0.00000000000E+00 -0.00000000000E+00 -0.17983835881E+04  0.17983835881E+04  0.00000000000E+00 0. -1.
         25    2    1    2    0    0 -0.35110468788E+02 -0.98254229374E+01 -0.27161385877E+03  0.30120982938E+03  0.12499595627E+03 0.  0.
          2    1    1    2  501    0  0.53538971816E+02  0.53300330757E+02 -0.14985253549E+04  0.15004284675E+04  0.00000000000E+00 0. -1.
          1    1    1    2  502    0 -0.18428503028E+02 -0.43474907820E+02  0.32117155350E+02  0.57106820973E+02  0.00000000000E+00 0. -1.
         22    1    3    3    0    0 -0.49284672017E+02 -0.59338320185E+02 -0.18505897857E+03  0.20049149779E+03  0.00000000000E+00 0.  1.
         22    1    3    3    0    0  0.14174203230E+02  0.49512897248E+02 -0.86554880203E+02  0.10071833159E+03  0.00000000000E+00 0.  1.
</event>
<event>
 7    1  0.6146596E-006  0.2294359E+03  0.7818608E-02  0.1236384E+00
          2   -1    0    0  502    0  0.00000000000E+00  0.00000000000E+00  0.33096796092E+04  0.33096796092E+04  0.00000000000E+00 0. -1.
          1   -1    0    0  501    0 -0.00000000000E+00 -0.00000000000E+00 -0.25293334072E+03  0.25293334072E+03  0.00000000000E+00 0. -1.
         25    2    1    2    0    0 -0.16667099955E+03  0.16019657840E+03  0.15614993930E+03  0.30569644775E+03  0.12500139521E+03 0.  0.
          2    1    1    2  501    0  0.53904799615E+02  0.40113253275E+02 -0.16736831214E+03  0.18035230084E+03  0.00000000000E+00 0. -1.
          1    1    1    2  502    0  0.11276619993E+03 -0.20030983167E+03  0.30679646413E+04  0.30765642013E+04  0.00000000000E+00 0. -1.
         22    1    3    3    0    0  0.53783830327E+01  0.57690900694E+02  0.60453725247E+02  0.83736610411E+02  0.00000000000E+00 0.  1.
         22    1    3    3    0    0 -0.17204938258E+03  0.10250567770E+03  0.95696214056E+02  0.22195983734E+03  0.00000000000E+00 0.  1.
</event>
<event>
 7    1  0.6146596E-006  0.6855473E+02  0.7818608E-02  0.1384290E+00
          2   -1    0    0  502    0  0.00000000000E+00  0.00000000000E+00  0.60079369495E+03  0.60079369495E+03  0.00000000000E+00 0. -1.
          1   -1    0    0  501    0 -0.00000000000E+00 -0.00000000000E+00 -0.88070809398E+03  0.88070809398E+03  0.00000000000E+00 0. -1.
         25    2    1    2    0    0 -0.64089179595E+02 -0.61869044513E+02  0.77778642859E+02  0.17207457826E+03  0.12499976635E+03 0.  0.
          2    1    1    2  501    0  0.58184431727E+02 -0.64388052569E+01 -0.83005430587E+03  0.83211599972E+03  0.00000000000E+00 0. -1.
          1    1    1    2  502    0  0.59047478680E+01  0.68307849770E+02  0.47236126398E+03  0.47731121095E+03  0.00000000000E+00 0. -1.
         22    1    3    3    0    0  0.30790604526E+01  0.12876704731E+02 -0.25026599866E+02  0.28312909403E+02  0.00000000000E+00 0.  1.
         22    1    3    3    0    0 -0.67168240048E+02 -0.74745749244E+02  0.10280524272E+03  0.14376166886E+03  0.00000000000E+00 0.  1.
</event>
<event>
 7    1  0.6146596E-006  0.3887005E+03  0.7818608E-02  0.1230169E+00
          2   -1    0    0  502    0  0.00000000000E+00  0.00000000000E+00  0.82464012875E+03  0.82464012875E+03  0.00000000000E+00 0. -1.
          1   -1    0    0  501    0 -0.00000000000E+00 -0.00000000000E+00 -0.87705596836E+03  0.87705596836E+03  0.00000000000E+00 0. -1.
         25    2    1    2    0    0 -0.32257286736E+03 -0.13504594407E+03 -0.60017070826E+03  0.70577677589E+03  0.12500126625E+03 0.  0.
          2    1    1    2  501    0 -0.40727871843E+02 -0.11330920674E+02 -0.17166109838E+03  0.17678993751E+03  0.00000000000E+00 0. -1.
          1    1    1    2  502    0  0.36330073920E+03  0.14637686475E+03  0.71941596703E+03  0.81912938371E+03  0.00000000000E+00 0. -1.
         22    1    3    3    0    0 -0.24944191629E+03 -0.14484688809E+03 -0.40578704108E+03  0.49786043557E+03  0.00000000000E+00 0.  1.
         22    1    3    3    0    0 -0.73130951068E+02  0.98009440139E+01 -0.19438366718E+03  0.20791634032E+03  0.00000000000E+00 0.  1.
</event>
<event>
 7    1  0.6146596E-006  0.6151617E+02  0.7818608E-02  0.1500366E+00
          2   -1    0    0  502    0  0.00000000000E+00  0.00000000000E+00  0.10492500410E+04  0.10492500410E+04  0.00000000000E+00 0. -1.
          1   -1    0    0  501    0 -0.00000000000E+00 -0.00000000000E+00 -0.11766973045E+04  0.11766973045E+04  0.00000000000E+00 0. -1.
         25    2    1    2    0    0 -0.17111581344E+02 -0.34034199179E+02  0.35406401555E+02  0.13538700358E+03  0.12499957815E+03 0.  0.
          2    1    1    2  501    0 -0.24862729261E+02 -0.11613252669E+02 -0.11255421602E+04  0.11258766262E+04  0.00000000000E+00 0. -1.
          1    1    1    2  502    0  0.41974310605E+02  0.45647451847E+02  0.96268849522E+03  0.96468371575E+03  0.00000000000E+00 0. -1.
         22    1    3    3    0    0  0.44117608683E+02 -0.25318117712E+02  0.50551154757E+02  0.71713246528E+02  0.00000000000E+00 0. -1.
         22    1    3    3    0    0 -0.61229190027E+02 -0.87160814664E+01 -0.15144753202E+02  0.63673757052E+02  0.00000000000E+00 0. -1.
</event>
<event>
 7    1  0.6146596E-006  0.1264283E+03  0.7818608E-02  0.1274674E+00
          2   -1    0    0  502    0  0.00000000000E+00  0.00000000000E+00  0.99094781342E+03  0.99094781342E+03  0.00000000000E+00 0. -1.
          1   -1    0    0  501    0 -0.00000000000E+00 -0.00000000000E+00 -0.72378284341E+03  0.72378284341E+03  0.00000000000E+00 0. -1.
         25    2    1    2    0    0  0.58022060621E+01 -0.20332767134E+03  0.84671338281E+02  0.25331435496E+03  0.12499247726E+03 0.  0.
          2    1    1    2  501    0 -0.17676951991E+02  0.81567088410E+02 -0.63215109808E+03  0.63763678952E+03  0.00000000000E+00 0. -1.
          1    1    1    2  502    0  0.11874745929E+02  0.12176058293E+03  0.81464472982E+03  0.82377951235E+03  0.00000000000E+00 0. -1.
         22    1    3    3    0    0  0.13505059526E+02 -0.21804851253E+03  0.89383960488E+02  0.23604455690E+03  0.00000000000E+00 0. -1.
         22    1    3    3    0    0 -0.77028534642E+01  0.14720841189E+02 -0.47126222065E+01  0.17269798055E+02  0.00000000000E+00 0. -1.
</event>
<event>
 7    1  0.6146596E-006  0.7155880E+02  0.7818608E-02  0.1475808E+00
          2   -1    0    0  502    0  0.00000000000E+00  0.00000000000E+00  0.16809487831E+03  0.16809487831E+03  0.00000000000E+00 0. -1.
          1   -1    0    0  501    0 -0.00000000000E+00 -0.00000000000E+00 -0.16690373120E+03  0.16690373120E+03  0.00000000000E+00 0. -1.
         25    2    1    2    0    0 -0.30072724836E+02 -0.52767271492E+02  0.15575439148E+02  0.13984331248E+03  0.12499921608E+03 0.  0.
          2    1    1    2  501    0 -0.27626700605E+02  0.45862173478E+01 -0.86539705537E+02  0.90958169563E+02  0.00000000000E+00 0. -1.
          1    1    1    2  502    0  0.57699425441E+02  0.48181054145E+02  0.72155413494E+02  0.10419712746E+03  0.00000000000E+00 0. -1.
         22    1    3    3    0    0  0.38868058553E+02 -0.37124389064E+02  0.37833174771E+02  0.65728953684E+02  0.00000000000E+00 0. -1.
         22    1    3    3    0    0 -0.68940783389E+02 -0.15642882428E+02 -0.22257735624E+02  0.74114358798E+02  0.00000000000E+00 0. -1.
</event>
<event>
 7    1  0.7723691E-006  0.4937631E+02  0.7818608E-02  0.1456405E+00
          2   -1    0    0  502    0  0.00000000000E+00  0.00000000000E+00  0.33088215882E+04  0.33088215882E+04  0.00000000000E+00 0. -1.
          1   -1    0    0  501    0 -0.00000000000E+00 -0.00000000000E+00 -0.12894785216E+04  0.12894785216E+04  0.00000000000E+00 0. -1.
         25    2    1    2    0    0  0.48599293242E+02 -0.22325311283E+02 -0.28548343337E+03  0.31620605622E+03  0.12500067373E+03 0.  0.
          2    1    1    2  501    0 -0.43882852852E+02 -0.24108801386E+02 -0.98783434281E+03  0.98910243550E+03  0.00000000000E+00 0. -1.
          1    1    1    2  502    0 -0.47164403898E+01  0.46434112669E+02  0.32926608427E+04  0.32929916181E+04  0.00000000000E+00 0. -1.
         22    1    3    3    0    0  0.37904790300E+02  0.23194988339E+02 -0.25835013780E+03  0.26214418611E+03  0.00000000000E+00 0.  1.
         22    1    3    3    0    0  0.10694502942E+02 -0.45520299623E+02 -0.27133295575E+02  0.54061870109E+02  0.00000000000E+00 0.  1.
</event>
<event>
 7    1  0.6146596E-006  0.4375531E+02  0.7818608E-02  0.1482906E+00
          2   -1    0    0  502    0  0.00000000000E+00  0.00000000000E+00  0.26835342448E+02  0.26835342448E+02  0.00000000000E+00 0. -1.
          1   -1    0    0  501    0 -0.00000000000E+00 -0.00000000000E+00 -0.10078418048E+04  0.10078418048E+04  0.00000000000E+00 0. -1.
         25    2    1    2    0    0  0.19467392197E+02 -0.13086388260E+02 -0.68847247215E+03  0.70012110771E+03  0.12499995054E+03 0.  0.
          2    1    1    2  501    0 -0.31741067517E+02 -0.30116967342E+02 -0.28581314946E+03  0.28914301564E+03  0.00000000000E+00 0. -1.
          1    1    1    2  502    0  0.12273675321E+02  0.43203355602E+02 -0.67208407667E+01  0.45413023922E+02  0.00000000000E+00 0. -1.
         22    1    3    3    0    0  0.66520718030E+02  0.63188222542E+01 -0.25265823633E+03  0.26134482553E+03  0.00000000000E+00 0.  1.
         22    1    3    3    0    0 -0.47053325834E+02 -0.19405210514E+02 -0.43581423582E+03  0.43877628219E+03  0.00000000000E+00 0.  1.
</event>
<event>
 7    1  0.6146596E-006  0.8231451E+02  0.7818608E-02  0.1368170E+00
          2   -1    0    0  502    0  0.00000000000E+00  0.00000000000E+00  0.14913670326E+03  0.14913670326E+03  0.00000000000E+00 0. -1.
          1   -1    0    0  501    0 -0.00000000000E+00 -0.00000000000E+00 -0.15569923686E+04  0.15569923686E+04  0.00000000000E+00 0. -1.
         25    2    1    2    0    0  0.11495548623E+03 -0.23231482066E+02 -0.74728431688E+03  0.76669140613E+03  0.12500958529E+03 0.  0.
          2    1    1    2  501    0 -0.49307734873E+02 -0.25789969327E+02 -0.78690084999E+03  0.78886584598E+03  0.00000000000E+00 0. -1.
          1    1    1    2  502    0 -0.65647751359E+02  0.49021451393E+02  0.12632950151E+03  0.15057181977E+03  0.00000000000E+00 0. -1.
         22    1    3    3    0    0 -0.22672062376E+02 -0.21071491329E+01 -0.22556006028E+03  0.22670642532E+03  0.00000000000E+00 0. -1.
         22    1    3    3    0    0  0.13762754861E+03 -0.21124332933E+02 -0.52172425660E+03  0.53998498081E+03  0.00000000000E+00 0. -1.
</event>
<event>
 7    1  0.6146596E-006  0.1011015E+03  0.7818608E-02  0.1341349E+00
          2   -1    0    0  502    0  0.00000000000E+00  0.00000000000E+00  0.91905124418E+02  0.91905124418E+02  0.00000000000E+00 0. -1.
          1   -1    0    0  501    0 -0.00000000000E+00 -0.00000000000E+00 -0.43387665542E+03  0.43387665542E+03  0.00000000000E+00 0. -1.
         25    2    1    2    0    0 -0.12153925969E+03  0.16649934230E+02 -0.23122646769E+03  0.29006754185E+03  0.12499795006E+03 0.  0.
          2    1    1    2  501    0  0.89524288463E+02  0.30341608638E+02 -0.14218591313E+03  0.17073970051E+03  0.00000000000E+00 0. -1.
          1    1    1    2  502    0  0.32014971231E+02 -0.46991542868E+02  0.31440849808E+02  0.64974537479E+02  0.00000000000E+00 0. -1.
         22    1    3    3    0    0 -0.62550396491E+02 -0.55174904082E+01 -0.14609259301E+02  0.64470344026E+02  0.00000000000E+00 0.  1.
         22    1    3    3    0    0 -0.58988863203E+02  0.22167424638E+02 -0.21661720839E+03  0.22559719782E+03  0.00000000000E+00 0.  1.
</event>
<event>
 7    1  0.6146596E-006  0.1029301E+03  0.7818608E-02  0.1329777E+00
          2   -1    0    0  502    0  0.00000000000E+00  0.00000000000E+00  0.11971704217E+04  0.11971704217E+04  0.00000000000E+00 0. -1.
          1   -1    0    0  501    0 -0.00000000000E+00 -0.00000000000E+00 -0.32026499329E+03  0.32026499329E+03  0.00000000000E+00 0. -1.
         25    2    1    2    0    0  0.10278636922E+02  0.54232250260E+02  0.17741690639E+03  0.22394243717E+03  0.12500667641E+03 0.  0.
          2    1    1    2  501    0 -0.64898814463E+02 -0.83105328376E+02 -0.28664613032E+03  0.30542487743E+03  0.00000000000E+00 0. -1.
          1    1    1    2  502    0  0.54620177541E+02  0.28873078115E+02  0.98613465231E+03  0.98806810034E+03  0.00000000000E+00 0. -1.
         22    1    3    3    0    0 -0.57075487580E+02  0.28402247987E+02  0.71510451360E+02  0.95802106589E+02  0.00000000000E+00 0. -1.
         22    1    3    3    0    0  0.67354124502E+02  0.25830002273E+02  0.10590645503E+03  0.12814033058E+03  0.00000000000E+00 0. -1.
</event>
<event>
 7    1  0.6146596E-006  0.8878432E+02  0.7818608E-02  0.1377960E+00
          2   -1    0    0  502    0  0.00000000000E+00  0.00000000000E+00  0.12288608062E+04  0.12288608062E+04  0.00000000000E+00 0. -1.
          1   -1    0    0  501    0 -0.00000000000E+00 -0.00000000000E+00 -0.14272112651E+04  0.14272112651E+04  0.00000000000E+00 0. -1.
         25    2    1    2    0    0 -0.39705131626E+02 -0.35831261289E+02  0.50855628926E+02  0.14516048167E+03  0.12499957473E+03 0.  0.
          2    1    1    2  501    0  0.33228431414E+02  0.82980094627E+02 -0.13781095810E+04  0.13810053737E+04  0.00000000000E+00 0. -1.
          1    1    1    2  502    0  0.64767002117E+01 -0.47148833337E+02  0.11289034931E+04  0.11299062160E+04  0.00000000000E+00 0. -1.
         22    1    3    3    0    0  0.34513818109E+02 -0.22941497261E+02 -0.16017013725E+02  0.44430402493E+02  0.00000000000E+00 0. -1.
         22    1    3    3    0    0 -0.74218949735E+02 -0.12889764029E+02  0.66872642650E+02  0.10073007918E+03  0.00000000000E+00 0. -1.
</event>
<event>
 7    1  0.6146596E-006  0.6140667E+02  0.7818608E-02  0.1414409E+00
          2   -1    0    0  502    0  0.00000000000E+00  0.00000000000E+00  0.10551223725E+04  0.10551223725E+04  0.00000000000E+00 0. -1.
          1   -1    0    0  501    0 -0.00000000000E+00 -0.00000000000E+00 -0.15506220928E+03  0.15506220928E+03  0.00000000000E+00 0. -1.
         25    2    1    2    0    0 -0.18648212478E+02 -0.93163464706E+02  0.31871566438E+03  0.35529223834E+03  0.12500285164E+03 0.  0.
          2    1    1    2  501    0  0.39758657109E+02  0.46217388136E+02 -0.12900238322E+03  0.14268290948E+03  0.00000000000E+00 0. -1.
          1    1    1    2  502    0 -0.21110444631E+02  0.46946076570E+02  0.71034688203E+03  0.71220943393E+03  0.00000000000E+00 0. -1.
         22    1    3    3    0    0  0.44457366611E+02 -0.30980404914E+00  0.10032560417E+03  0.10973504580E+03  0.00000000000E+00 0.  1.
         22    1    3    3    0    0 -0.63105579089E+02 -0.92853660657E+02  0.21839006021E+03  0.24555719254E+03  0.00000000000E+00 0.  1.
</event>
<event>
 7    1  0.6146596E-006  0.1497690E+03  0.7818608E-02  0.1350380E+00
          2   -1    0    0  502    0  0.00000000000E+00  0.00000000000E+00  0.11740291381E+04  0.11740291381E+04  0.00000000000E+00 0. -1.
          1   -1    0    0  501    0 -0.00000000000E+00 -0.00000000000E+00 -0.96257765701E+03  0.96257765701E+03  0.00000000000E+00 0. -1.
         25    2    1    2    0    0 -0.52542306660E+02 -0.16445660362E+03 -0.94527537012E+02  0.23316930229E+03  0.12500319921E+03 0.  0.
          2    1    1    2  501    0 -0.15712884345E+02  0.31855912787E+02 -0.79329662306E+03  0.79409144692E+03  0.00000000000E+00 0. -1.
          1    1    1    2  502    0  0.68255191005E+02  0.13260069083E+03  0.10992756411E+04  0.11093460459E+04  0.00000000000E+00 0. -1.
         22    1    3    3    0    0 -0.84638744407E+02 -0.60174483333E+02 -0.51016048982E+02  0.11570359870E+03  0.00000000000E+00 0.  1.
         22    1    3    3    0    0  0.32096437747E+02 -0.10428212029E+03 -0.43511488030E+02  0.11746570358E+03  0.00000000000E+00 0.  1.
</event>
<event>
 7    1  0.6146596E-006  0.1166929E+03  0.7818608E-02  0.1286789E+00
          2   -1    0    0  502    0  0.00000000000E+00  0.00000000000E+00  0.46676214235E+03  0.46676214235E+03  0.00000000000E+00 0. -1.
          1   -1    0    0  501    0 -0.00000000000E+00 -0.00000000000E+00 -0.19104436313E+03  0.19104436313E+03  0.00000000000E+00 0. -1.
         25    2    1    2    0    0  0.37698255186E+02  0.10275208436E+02  0.18018526938E+03  0.22275809301E+03  0.12501079294E+03 0.  0.
          2    1    1    2  501    0  0.47034384959E+02 -0.10679417453E+03 -0.13050661770E+03  0.17506914732E+03  0.00000000000E+00 0. -1.
          1    1    1    2  502    0 -0.84732640145E+02  0.96518966093E+02  0.22603912755E+03  0.25997926514E+03  0.00000000000E+00 0. -1.
         22    1    3    3    0    0  0.36301050636E+02  0.48594181221E+02  0.29837333297E+02  0.67597538299E+02  0.00000000000E+00 0.  1.
         22    1    3    3    0    0  0.13972045500E+01 -0.38318972785E+02  0.15034793608E+03  0.15516055471E+03  0.00000000000E+00 0.  1.
</event>
<event>
 7    1  0.6146596E-006  0.1251262E+03  0.7818608E-02  0.1283763E+00
          2   -1    0    0  502    0  0.00000000000E+00  0.00000000000E+00  0.13966463022E+03  0.13966463022E+03  0.00000000000E+00 0. -1.
          1   -1    0    0  501    0 -0.00000000000E+00 -0.00000000000E+00 -0.30718941001E+03  0.30718941001E+03  0.00000000000E+00 0. -1.
         25    2    1    2    0    0 -0.18058386275E+02 -0.15354910309E+03  0.14159259396E+02  0.19932243720E+03  0.12500206786E+03 0.  0.
          2    1    1    2  501    0  0.40489518821E+02  0.65887470830E+02 -0.76436985039E+02  0.10873441327E+03  0.00000000000E+00 0. -1.
          1    1    1    2  502    0 -0.22431132545E+02  0.87661632264E+02 -0.10524705415E+03  0.13879718976E+03  0.00000000000E+00 0. -1.
         22    1    3    3    0    0  0.43717594878E+01 -0.16713683276E+03  0.28231283000E+02  0.16956072212E+03  0.00000000000E+00 0.  1.
         22    1    3    3    0    0 -0.22430145763E+02  0.13587729663E+02 -0.14072023604E+02  0.29761715083E+02  0.00000000000E+00 0.  1.
</event>
<event>
 7    1  0.6146596E-006  0.8333841E+02  0.7818608E-02  0.1501898E+00
          2   -1    0    0  502    0  0.00000000000E+00  0.00000000000E+00  0.91881416787E+03  0.91881416787E+03  0.00000000000E+00 0. -1.
          1   -1    0    0  501    0 -0.00000000000E+00 -0.00000000000E+00 -0.55737418713E+03  0.55737418713E+03  0.00000000000E+00 0. -1.
         25    2    1    2    0    0  0.52920999387E+02 -0.56290924980E+02  0.22971612648E+03  0.27269587092E+03  0.12499695532E+03 0.  0.
          2    1    1    2  501    0 -0.10903369744E+02 -0.16819109905E+02 -0.53303249692E+03  0.53340923192E+03  0.00000000000E+00 0. -1.
          1    1    1    2  502    0 -0.42017629643E+02  0.73110034885E+02  0.66475635117E+03  0.67008325216E+03  0.00000000000E+00 0. -1.
         22    1    3    3    0    0 -0.22281146758E+02 -0.67264579099E+02  0.10607477222E+03  0.12756500462E+03  0.00000000000E+00 0.  1.
         22    1    3    3    0    0  0.75202146145E+02  0.10973654119E+02  0.12364135426E+03  0.14513086630E+03  0.00000000000E+00 0.  1.
</event>
<event>
 7    1  0.6146596E-006  0.1408180E+03  0.7818608E-02  0.1398943E+00
          2   -1    0    0  502    0  0.00000000000E+00  0.00000000000E+00  0.11999967318E+04  0.11999967318E+04  0.00000000000E+00 0. -1.
          1   -1    0    0  501    0 -0.00000000000E+00 -0.00000000000E+00 -0.44564826714E+03  0.44564826714E+03  0.00000000000E+00 0. -1.
         25    2    1    2    0    0  0.10157660735E+03  0.13058527641E+03 -0.18929295279E+03  0.28076144722E+03  0.12499938678E+03 0.  0.
          2    1    1    2  501    0 -0.18109159896E+02 -0.17725505790E+02 -0.20557253110E+03  0.20712846442E+03  0.00000000000E+00 0. -1.
          1    1    1    2  502    0 -0.83467447450E+02 -0.11285977062E+03  0.11492139485E+04  0.11577550873E+04  0.00000000000E+00 0. -1.
         22    1    3    3    0    0  0.61574519905E+02  0.14116124726E+03 -0.18255582863E+03  0.23884000878E+03  0.00000000000E+00 0.  1.
         22    1    3    3    0    0  0.40002087442E+02 -0.10575970842E+02 -0.67371241587E+01  0.41921438440E+02  0.00000000000E+00 0.  1.
</event>
<event>
 7    1  0.6146596E-006  0.1792283E+03  0.7818608E-02  0.1304988E+00
          2   -1    0    0  502    0  0.00000000000E+00  0.00000000000E+00  0.29897651578E+03  0.29897651578E+03  0.00000000000E+00 0. -1.
          1   -1    0    0  501    0 -0.00000000000E+00 -0.00000000000E+00 -0.19502067064E+03  0.19502067064E+03  0.00000000000E+00 0. -1.
         25    2    1    2    0    0 -0.11322402133E+03  0.11238345570E+03  0.85714926398E+02  0.22004997530E+03  0.12500089159E+03 0.  0.
          2    1    1    2  501    0 -0.40957695468E+02  0.16927110493E+02 -0.44857059987E+02  0.63057241601E+02  0.00000000000E+00 0. -1.
          1    1    1    2  502    0  0.15418171680E+03 -0.12931056619E+03  0.63097978731E+02  0.21088996952E+03  0.00000000000E+00 0. -1.
         22    1    3    3    0    0 -0.11942399231E+03  0.39112894429E+02  0.73287024780E+02  0.14547472788E+03  0.00000000000E+00 0.  1.
         22    1    3    3    0    0  0.61999709781E+01  0.73270561269E+02  0.12427901618E+02  0.74575247418E+02  0.00000000000E+00 0.  1.
</event>
<event>
 7    1  0.6146596E-006  0.6013321E+02  0.7818608E-02  0.1460708E+00
          2   -1    0    0  502    0  0.00000000000E+00  0.00000000000E+00  0.86729678304E+02  0.86729678304E+02  0.00000000000E+00 0. -1.
          1   -1    0    0  501    0 -0.00000000000E+00 -0.00000000000E+00 -0.86844875468E+03  0.86844875468E+03  0.00000000000E+00 0. -1.
         25    2    1    2    0    0 -0.91570896880E+01 -0.40188045895E+02 -0.23975933807E+03  0.27351172690E+03  0.12500077295E+03 0.  0.
          2    1    1    2  501    0 -0.37140487365E+02 -0.36329390986E+00 -0.59756728898E+03  0.59872047956E+03  0.00000000000E+00 0. -1.
          1    1    1    2  502    0  0.46297577053E+02  0.40551339805E+02  0.55607550679E+02  0.82946226517E+02  0.00000000000E+00 0. -1.
         22    1    3    3    0    0 -0.54409758875E+02 -0.37379725911E+02 -0.20781839304E+03  0.21805079742E+03  0.00000000000E+00 0. -1.
         22    1    3    3    0    0  0.45252669187E+02 -0.28083199839E+01 -0.31940945032E+02  0.55460929484E+02  0.00000000000E+00 0. -1.
</event>
<event>
 7    1  0.6146596E-006  0.5322259E+02  0.7818608E-02  0.1489540E+00
          2   -1    0    0  502    0  0.00000000000E+00  0.00000000000E+00  0.21592406426E+04  0.21592406426E+04  0.00000000000E+00 0. -1.
          1   -1    0    0  501    0 -0.00000000000E+00 -0.00000000000E+00 -0.12375544042E+03  0.12375544042E+03  0.00000000000E+00 0. -1.
         25    2    1    2    0    0  0.78642195277E+02  0.32641454444E+02  0.10910867734E+03  0.18649742726E+03  0.12500610976E+03 0.  0.
          2    1    1    2  501    0 -0.49278618144E+02 -0.15138375017E+02 -0.77091125031E+02  0.92739388411E+02  0.00000000000E+00 0. -1.
          1    1    1    2  502    0 -0.29363577133E+02 -0.17503079427E+02  0.20034676499E+04  0.20037592674E+04  0.00000000000E+00 0. -1.
         22    1    3    3    0    0  0.34746190055E+02 -0.30184883774E+02  0.99019924827E+02  0.10919418686E+03  0.00000000000E+00 0. -1.
         22    1    3    3    0    0  0.43896005222E+02  0.62826338218E+02  0.10088752512E+02  0.77303240395E+02  0.00000000000E+00 0. -1.
</event>
<event>
 7    1  0.7302748E-006  0.8397273E+02  0.7818608E-02  0.1468083E+00
          2   -1    0    0  502    0  0.00000000000E+00  0.00000000000E+00  0.10529717545E+04  0.10529717545E+04  0.00000000000E+00 0. -1.
          1   -1    0    0  501    0 -0.00000000000E+00 -0.00000000000E+00 -0.25451782915E+04  0.25451782915E+04  0.00000000000E+00 0. -1.
         25    2    1    2    0    0 -0.28623379235E+02 -0.82238776064E+02 -0.15146338368E+04  0.15222758777E+04  0.12500269705E+03 0.  0.
          2    1    1    2  501    0  0.25163745983E+02 -0.16633465757E+01 -0.10248877790E+04  0.10251980006E+04  0.00000000000E+00 0. -1.
          1    1    1    2  502    0  0.34596332524E+01  0.83902122639E+02  0.10473150787E+04  0.10506761677E+04  0.00000000000E+00 0. -1.
         22    1    3    3    0    0 -0.56872116870E+02 -0.21873645406E+02 -0.31786500494E+03  0.32365267712E+03  0.00000000000E+00 0. -1.
         22    1    3    3    0    0  0.28248737635E+02 -0.60365130658E+02 -0.11967688319E+04  0.11986232006E+04  0.00000000000E+00 0. -1.
</event>
<event>
 7    1  0.6146596E-006  0.1181002E+03  0.7818608E-02  0.1279914E+00
          2   -1    0    0  502    0  0.00000000000E+00  0.00000000000E+00  0.21247061978E+03  0.21247061978E+03  0.00000000000E+00 0. -1.
          1   -1    0    0  501    0 -0.00000000000E+00 -0.00000000000E+00 -0.31113366716E+03  0.31113366716E+03  0.00000000000E+00 0. -1.
         25    2    1    2    0    0 -0.13985505901E+03 -0.61519841043E+02 -0.12693120875E+03  0.23469347807E+03  0.12500147407E+03 0.  0.
          2    1    1    2  501    0  0.10745947969E+03 -0.17045183679E+02 -0.91426603267E+02  0.14211580435E+03  0.00000000000E+00 0. -1.
          1    1    1    2  502    0  0.32395579321E+02  0.78565024722E+02  0.11969476465E+03  0.14679500452E+03  0.00000000000E+00 0. -1.
         22    1    3    3    0    0 -0.59738568297E+02  0.25872300456E+02 -0.60575541114E+01  0.65381698012E+02  0.00000000000E+00 0. -1.
         22    1    3    3    0    0 -0.80116490713E+02 -0.87392141499E+02 -0.12087365464E+03  0.16931178006E+03  0.00000000000E+00 0. -1.
</event>
<event>
 7    1  0.6146596E-006  0.1358019E+03  0.7818608E-02  0.1279933E+00
          2   -1    0    0  502    0  0.00000000000E+00  0.00000000000E+00  0.18456432101E+03  0.18456432101E+03  0.00000000000E+00 0. -1.
          1   -1    0    0  501    0 -0.00000000000E+00 -0.00000000000E+00 -0.45645958158E+03  0.45645958158E+03  0.00000000000E+00 0. -1.
         25    2    1    2    0    0  0.11054762240E+03 -0.13695636359E+03 -0.13551092097E+03  0.25488381290E+03  0.12499890412E+03 0.  0.
          2    1    1    2  501    0 -0.38324576181E+02  0.12134460612E+03 -0.23241496979E+03  0.26497170558E+03  0.00000000000E+00 0. -1.
          1    1    1    2  502    0 -0.72223046215E+02  0.15611757472E+02  0.96030630184E+02  0.12116838412E+03  0.00000000000E+00 0. -1.
         22    1    3    3    0    0  0.99234506387E+02 -0.76741004682E+02 -0.24103956694E+02  0.12774063483E+03  0.00000000000E+00 0. -1.
         22    1    3    3    0    0  0.11313116009E+02 -0.60215358912E+02 -0.11140696427E+03  0.12714317808E+03  0.00000000000E+00 0. -1.
</event>
<event>
 7    1  0.6146596E-006  0.1019670E+03  0.7818608E-02  0.1345999E+00
          2   -1    0    0  502    0  0.00000000000E+00  0.00000000000E+00  0.23489622886E+03  0.23489622886E+03  0.00000000000E+00 0. -1.
          1   -1    0    0  501    0 -0.00000000000E+00 -0.00000000000E+00 -0.18896110063E+04  0.18896110063E+04  0.00000000000E+00 0. -1.
         25    2    1    2    0    0  0.14636683350E+03  0.45738724889E+02  0.12064501960E+03  0.23172652472E+03  0.12500672222E+03 0.  0.
          2    1    1    2  501    0 -0.92307324531E+02 -0.42362729109E+02 -0.18198527903E+04  0.18226846741E+04  0.00000000000E+00 0. -1.
          1    1    1    2  502    0 -0.54059508971E+02 -0.33759957803E+01  0.44492993258E+02  0.70096036313E+02  0.00000000000E+00 0. -1.
         22    1    3    3    0    0  0.91847564482E+01  0.59169012840E+02  0.40393247996E+02  0.72228431487E+02  0.00000000000E+00 0.  1.
         22    1    3    3    0    0  0.13718207705E+03 -0.13430287951E+02  0.80251771603E+02  0.15949809323E+03  0.00000000000E+00 0.  1.
</event>
<event>
 7    1  0.6146596E-006  0.1155605E+03  0.7818608E-02  0.1442362E+00
          2   -1    0    0  502    0  0.00000000000E+00  0.00000000000E+00  0.10028398114E+04  0.10028398114E+04  0.00000000000E+00 0. -1.
          1   -1    0    0  501    0 -0.00000000000E+00 -0.00000000000E+00 -0.54003521832E+02  0.54003521832E+02  0.00000000000E+00 0. -1.
         25    2    1    2    0    0 -0.84927644494E+02 -0.55381132686E+02  0.27174832879E+03  0.31583524270E+03  0.12499988669E+03 0.  0.
          2    1    1    2  501    0  0.95384988504E+02  0.74870935911E+02  0.84010943917E+02  0.14751878448E+03  0.00000000000E+00 0. -1.
          1    1    1    2  502    0 -0.10457344010E+02 -0.19489803226E+02  0.59307701681E+03  0.59348930601E+03  0.00000000000E+00 0. -1.
         22    1    3    3    0    0 -0.38468788669E+02 -0.28609703171E+02  0.10417318848E+02  0.49059997443E+02  0.00000000000E+00 0.  1.
         22    1    3    3    0    0 -0.46458855825E+02 -0.26771429515E+02  0.26133100994E+03  0.26677524525E+03  0.00000000000E+00 0.  1.
</event>
<event>
 7    1  0.6146596E-006  0.8678866E+02  0.7818608E-02  0.1316762E+00
          2   -1    0    0  502    0  0.00000000000E+00  0.00000000000E+00  0.90899971109E+03  0.90899971109E+03  0.00000000000E+00 0. -1.
          1   -1    0    0  501    0 -0.00000000000E+00 -0.00000000000E+00 -0.35439062253E+03  0.35439062253E+03  0.00000000000E+00 0. -1.
         25    2    1    2    0    0  0.81256406933E+02 -0.45603855112E+02  0.13157351482E+02  0.15646155152E+03  0.12499914374E+03 0.  0.
          2    1    1    2  501    0 -0.14618070582E+01  0.82246440143E+02 -0.27434928705E+03  0.28641603499E+03  0.00000000000E+00 0. -1.
          1    1    1    2  502    0 -0.79794599875E+02 -0.36642585031E+02  0.81580102413E+03  0.82051274711E+03  0.00000000000E+00 0. -1.
         22    1    3    3    0    0  0.92763463274E+02 -0.66608133889E+02 -0.19613064539E+02  0.11587223964E+03  0.00000000000E+00 0. -1.
         22    1    3    3    0    0 -0.11507056341E+02  0.21004278777E+02  0.32770416021E+02  0.40589311878E+02  0.00000000000E+00 0. -1.
</event>
<event>
 7    1  0.6146596E-006  0.9040743E+02  0.7818608E-02  0.1335111E+00
          2   -1    0    0  502    0  0.00000000000E+00  0.00000000000E+00  0.93353233707E+02  0.93353233707E+02  0.00000000000E+00 0. -1.
          1   -1    0    0  501    0 -0.00000000000E+00 -0.00000000000E+00 -0.41769920527E+03  0.41769920527E+03  0.00000000000E+00 0. -1.
         25    2    1    2    0    0 -0.40116067585E+01 -0.39575143525E+02 -0.19743231116E+03  0.23703070122E+03  0.12498700276E+03 0.  0.
          2    1    1    2  501    0 -0.84525090459E+02  0.57871510434E+02 -0.14913095150E+03  0.18092441331E+03  0.00000000000E+00 0. -1.
          1    1    1    2  502    0  0.88536697218E+02 -0.18296366909E+02  0.22217291090E+02  0.93097324450E+02  0.00000000000E+00 0. -1.
         22    1    3    3    0    0 -0.23078896644E+02 -0.47932366414E+00 -0.19178357327E+03  0.19316781356E+03  0.00000000000E+00 0.  1.
         22    1    3    3    0    0  0.19067289885E+02 -0.39095819861E+02 -0.56487378947E+01  0.43862887661E+02  0.00000000000E+00 0.  1.
</event>
<event>
 7    1  0.6146596E-006  0.4804286E+02  0.7818608E-02  0.1566116E+00
          2   -1    0    0  502    0  0.00000000000E+00  0.00000000000E+00  0.42762322821E+03  0.42762322821E+03  0.00000000000E+00 0. -1.
          1   -1    0    0  501    0 -0.00000000000E+00 -0.00000000000E+00 -0.66438290556E+03  0.66438290556E+03  0.00000000000E+00 0. -1.
         25    2    1    2    0    0  0.63882696548E+02 -0.10469566797E+02  0.13245255238E+03  0.19328621585E+03  0.12500108743E+03 0.  0.
          2    1    1    2  501    0 -0.21011775503E+02 -0.88766774230E+01 -0.63166968195E+03  0.63208138495E+03  0.00000000000E+00 0. -1.
          1    1    1    2  502    0 -0.42870921045E+02  0.19346244220E+02  0.26245745221E+03  0.26663853296E+03  0.00000000000E+00 0. -1.
         22    1    3    3    0    0  0.67282850100E+02  0.40089752584E+02  0.11608415077E+03  0.14003463943E+03  0.00000000000E+00 0. -1.
         22    1    3    3    0    0 -0.34001535515E+01 -0.50559319381E+02  0.16368401614E+02  0.53251576426E+02  0.00000000000E+00 0. -1.
</event>
<event>
 7    1  0.6146596E-006  0.7134865E+02  0.7818608E-02  0.1370743E+00
          2   -1    0    0  502    0  0.00000000000E+00  0.00000000000E+00  0.17052743572E+04  0.17052743572E+04  0.00000000000E+00 0. -1.
          1   -1    0    0  501    0 -0.00000000000E+00 -0.00000000000E+00 -0.14862983749E+04  0.14862983749E+04  0.00000000000E+00 0. -1.
         25    2    1    2    0    0  0.12913824963E+03 -0.33253845631E+02  0.16113628187E+02  0.18348562314E+03  0.12499927646E+03 0.  0.
          2    1    1    2  501    0 -0.59675299671E+02  0.19701306714E+02 -0.14011277758E+04  0.14025363906E+04  0.00000000000E+00 0. -1.
          1    1    1    2  502    0 -0.69462949962E+02  0.13552538917E+02  0.16039901298E+04  0.16055507184E+04  0.00000000000E+00 0. -1.
         22    1    3    3    0    0  0.13650163323E+03  0.14152450284E+01  0.38164443786E+02  0.14174351330E+03  0.00000000000E+00 0. -1.
         22    1    3    3    0    0 -0.73633835958E+01 -0.34669090659E+02 -0.22050815598E+02  0.41742109837E+02  0.00000000000E+00 0. -1.
</event>
<event>
 7    1  0.6146596E-006  0.8869891E+02  0.7818608E-02  0.1455090E+00
          2   -1    0    0  502    0  0.00000000000E+00  0.00000000000E+00  0.58576219577E+03  0.58576219577E+03  0.00000000000E+00 0. -1.
          1   -1    0    0  501    0 -0.00000000000E+00 -0.00000000000E+00 -0.91607855993E+02  0.91607855993E+02  0.00000000000E+00 0. -1.
         25    2    1    2    0    0 -0.10742845324E+03  0.34047560879E+02  0.10410485820E+03  0.19789618770E+03  0.12499988255E+03 0.  0.
          2    1    1    2  501    0  0.24762140831E+02 -0.86590793711E+01 -0.36107856409E+02  0.44630937348E+02  0.00000000000E+00 0. -1.
          1    1    1    2  502    0  0.82666312407E+02 -0.25388481507E+02  0.42615733798E+03  0.43484292671E+03  0.00000000000E+00 0. -1.
         22    1    3    3    0    0 -0.85708234304E+02  0.70854593197E+02  0.34887766699E+02  0.11654797755E+03  0.00000000000E+00 0.  1.
         22    1    3    3    0    0 -0.21720218933E+02 -0.36807032318E+02  0.69217091505E+02  0.81348210152E+02  0.00000000000E+00 0.  1.
</event>
<event>
 7    1  0.6146596E-006  0.1226974E+03  0.7818608E-02  0.1371114E+00
          2   -1    0    0  502    0  0.00000000000E+00  0.00000000000E+00  0.16311917712E+03  0.16311917712E+03  0.00000000000E+00 0. -1.
          1   -1    0    0  501    0 -0.00000000000E+00 -0.00000000000E+00 -0.57656142654E+03  0.57656142654E+03  0.00000000000E+00 0. -1.
         25    2    1    2    0    0  0.89401269409E+02 -0.86758256811E+02 -0.29756058934E+03  0.34595647607E+03  0.12499598758E+03 0.  0.
          2    1    1    2  501    0 -0.29883342023E+02 -0.20838321369E+02 -0.22584559160E+03  0.22876512193E+03  0.00000000000E+00 0. -1.
          1    1    1    2  502    0 -0.59517927385E+02  0.10759657818E+03  0.10996393151E+03  0.16495900567E+03  0.00000000000E+00 0. -1.
         22    1    3    3    0    0 -0.27160597277E+02 -0.19569765541E+01 -0.83983309216E+02  0.88287734304E+02  0.00000000000E+00 0. -1.
         22    1    3    3    0    0  0.11656186669E+03 -0.84801280257E+02 -0.21357728012E+03  0.25766874176E+03  0.00000000000E+00 0. -1.
</event>
<event>
 7    1  0.6146596E-006  0.4300963E+02  0.7818608E-02  0.1518014E+00
          2   -1    0    0  502    0  0.00000000000E+00  0.00000000000E+00  0.32779402512E+04  0.32779402512E+04  0.00000000000E+00 0. -1.
          1   -1    0    0  501    0 -0.00000000000E+00 -0.00000000000E+00 -0.70995032922E+02  0.70995032922E+02  0.00000000000E+00 0. -1.
         25    2    1    2    0    0 -0.61534413210E+02  0.47103394731E+02  0.12353086241E+03  0.19206597349E+03  0.12499700156E+03 0.  0.
          2    1    1    2  501    0  0.29198114184E+02 -0.18969895260E+02 -0.28294002043E+02  0.44865770357E+02  0.00000000000E+00 0. -1.
          1    1    1    2  502    0  0.32336299026E+02 -0.28133499471E+02  0.31117083579E+04  0.31120035403E+04  0.00000000000E+00 0. -1.
         22    1    3    3    0    0 -0.55135287123E+02  0.21700288476E+02  0.14599239837E+03  0.15755818857E+03  0.00000000000E+00 0.  1.
         22    1    3    3    0    0 -0.63991260868E+01  0.25403106255E+02 -0.22461535955E+02  0.34507784912E+02  0.00000000000E+00 0.  1.
</event>
<event>
 7    1  0.6501704E-006  0.1351935E+03  0.7818608E-02  0.1399772E+00
          2   -1    0    0  502    0  0.00000000000E+00  0.00000000000E+00  0.32223265609E+04  0.32223265609E+04  0.00000000000E+00 0. -1.
          1   -1    0    0  501    0 -0.00000000000E+00 -0.00000000000E+00 -0.11991413276E+04  0.11991413276E+04  0.00000000000E+00 0. -1.
         25    2    1    2    0    0  0.85616938900E+01 -0.10935877257E+03 -0.45022653453E+03  0.47996094222E+03  0.12500371963E+03 0.  0.
          2    1    1    2  501    0  0.83733525473E+01 -0.24849025136E+02 -0.73238660441E+03  0.73285586946E+03  0.00000000000E+00 0. -1.
          1    1    1    2  502    0 -0.16935046437E+02  0.13420779771E+03  0.32057983723E+04  0.32086510768E+04  0.00000000000E+00 0. -1.
         22    1    3    3    0    0  0.48480532189E+02 -0.26578914146E+02 -0.72278825588E+02  0.91000161027E+02  0.00000000000E+00 0. -1.
         22    1    3    3    0    0 -0.39918838299E+02 -0.82779858425E+02 -0.37794770895E+03  0.38896078120E+03  0.00000000000E+00 0. -1.
</event>
<event>
 7    1  0.6146596E-006  0.6131263E+02  0.7818608E-02  0.1432432E+00
          2   -1    0    0  502    0  0.00000000000E+00  0.00000000000E+00  0.73017487217E+03  0.73017487217E+03  0.00000000000E+00 0. -1.
          1   -1    0    0  501    0 -0.00000000000E+00 -0.00000000000E+00 -0.36226121379E+03  0.36226121379E+03  0.00000000000E+00 0. -1.
         25    2    1    2    0    0 -0.77562341656E+02  0.67871087011E+02 -0.47699014637E+02  0.16888577392E+03  0.12499922936E+03 0.  0.
          2    1    1    2  501    0  0.48377412488E+02 -0.33735189090E+02 -0.24977753225E+03  0.25664616233E+03  0.00000000000E+00 0. -1.
          1    1    1    2  502    0  0.29184929169E+02 -0.34135897921E+02  0.66539020527E+03  0.66690414970E+03  0.00000000000E+00 0. -1.
         22    1    3    3    0    0 -0.87056595882E+02  0.66551818679E+02  0.10333318081E+02  0.11006712915E+03  0.00000000000E+00 0.  1.
         22    1    3    3    0    0  0.94942542256E+01  0.13192683312E+01 -0.58032332718E+02  0.58818644773E+02  0.00000000000E+00 0.  1.
</event>
<event>
 7    1  0.6146596E-006  0.4350016E+02  0.7818608E-02  0.1514278E+00
          2   -1    0    0  502    0  0.00000000000E+00  0.00000000000E+00  0.38601830335E+03  0.38601830335E+03  0.00000000000E+00 0. -1.
          1   -1    0    0  501    0 -0.00000000000E+00 -0.00000000000E+00 -0.74532863283E+03  0.74532863283E+03  0.00000000000E+00 0. -1.
         25    2    1    2    0    0  0.33196879567E+02 -0.27173556327E+02 -0.25095620156E+02  0.13452191846E+03  0.12500368562E+03 0.  0.
          2    1    1    2  501    0 -0.31184826389E+02 -0.16545481542E+02 -0.66360329954E+03  0.66454163566E+03  0.00000000000E+00 0. -1.
          1    1    1    2  502    0 -0.20120531781E+01  0.43719037869E+02  0.32938859021E+03  0.33228338206E+03  0.00000000000E+00 0. -1.
         22    1    3    3    0    0  0.18785406588E+02  0.25276431051E+02  0.39213441842E+02  0.50293970697E+02  0.00000000000E+00 0. -1.
         22    1    3    3    0    0  0.14411472979E+02 -0.52449987378E+02 -0.64309061998E+02  0.84227947764E+02  0.00000000000E+00 0. -1.
</event>
<event>
 7    1  0.6146596E-006  0.1620384E+03  0.7818608E-02  0.1196196E+00
          2   -1    0    0  502    0  0.00000000000E+00  0.00000000000E+00  0.19676110501E+04  0.19676110501E+04  0.00000000000E+00 0. -1.
          1   -1    0    0  501    0 -0.00000000000E+00 -0.00000000000E+00 -0.41455460126E+03  0.41455460126E+03  0.00000000000E+00 0. -1.
         25    2    1    2    0    0  0.12250812477E+03 -0.17188555396E+03 -0.87183206587E+02  0.26034330497E+03  0.12499936254E+03 0.  0.
          2    1    1    2  501    0  0.36672841101E+02  0.14077881598E+03 -0.21495252641E+03  0.25955377268E+03  0.00000000000E+00 0. -1.
          1    1    1    2  502    0 -0.15918096587E+03  0.31106737984E+02  0.18551921818E+04  0.18622685737E+04  0.00000000000E+00 0. -1.
         22    1    3    3    0    0  0.11719735732E+03 -0.12805840434E+03 -0.11493935862E+03  0.20819517681E+03  0.00000000000E+00 0. -1.
         22    1    3    3    0    0  0.53107674474E+01 -0.43827149617E+02  0.27756152037E+02  0.52148128157E+02  0.00000000000E+00 0. -1.
</event>
<event>
 7    1  0.6146596E-006  0.7240532E+02  0.7818608E-02  0.1393253E+00
          2   -1    0    0  502    0  0.00000000000E+00  0.00000000000E+00  0.51088126404E+03  0.51088126404E+03  0.00000000000E+00 0. -1.
          1   -1    0    0  501    0 -0.00000000000E+00 -0.00000000000E+00 -0.20012444866E+03  0.20012444866E+03  0.00000000000E+00 0. -1.
         25    2    1    2    0    0 -0.62937130956E+02 -0.99251747757E+02  0.10581639864E+03  0.20157763887E+03  0.12499776952E+03 0.  0.
          2    1    1    2  501    0  0.49824167357E+02  0.49378855553E+02 -0.14215621685E+03  0.15852163581E+03  0.00000000000E+00 0. -1.
          1    1    1    2  502    0  0.13112963599E+02  0.49872892203E+02  0.34709663360E+03  0.35090643802E+03  0.00000000000E+00 0. -1.
         22    1    3    3    0    0  0.20858043847E+01 -0.84345675578E+02  0.10193925609E+02  0.84985055674E+02  0.00000000000E+00 0.  1.
         22    1    3    3    0    0 -0.65022935341E+02 -0.14906072179E+02  0.95622473026E+02  0.11659258319E+03  0.00000000000E+00 0.  1.
</event>
<event>
 7    1  0.6146596E-006  0.1033700E+03  0.7818608E-02  0.1357439E+00
          2   -1    0    0  502    0  0.00000000000E+00  0.00000000000E+00  0.12797572101E+04  0.12797572101E+04  0.00000000000E+00 0. -1.
          1   -1    0    0  501    0 -0.00000000000E+00 -0.00000000000E+00 -0.25863763607E+03  0.25863763607E+03  0.00000000000E+00 0. -1.
         25    2    1    2    0    0 -0.11918407932E+02 -0.13308418062E+03  0.96830413306E+02  0.20701192332E+03  0.12499743948E+03 0.  0.
          2    1    1    2  501    0 -0.28645268928E+02  0.39104094668E+02 -0.19829901945E+03  0.20413765642E+03  0.00000000000E+00 0. -1.
          1    1    1    2  502    0  0.40563676860E+02  0.93980085952E+02  0.11225881801E+04  0.11272452664E+04  0.00000000000E+00 0. -1.
         22    1    3    3    0    0 -0.61001815444E+02 -0.40301764874E+02  0.16802152254E+02  0.75018438132E+02  0.00000000000E+00 0.  1.
         22    1    3    3    0    0  0.49083407512E+02 -0.92782415746E+02  0.80028261052E+02  0.13199348519E+03  0.00000000000E+00 0.  1.
</event>
<event>
 7    1  0.6146596E-006  0.1052026E+03  0.7818608E-02  0.1428746E+00
          2   -1    0    0  502    0  0.00000000000E+00  0.00000000000E+00  0.87579606296E+02  0.87579606296E+02  0.00000000000E+00 0. -1.
          1   -1    0    0  501    0 -0.00000000000E+00 -0.00000000000E+00 -0.42510990865E+03  0.42510990865E+03  0.00000000000E+00 0. -1.
         25    2    1    2    0    0 -0.29726809420E+02  0.10026733741E+03 -0.86918817630E+02  0.18470624401E+03  0.12499717424E+03 0.  0.
          2    1    1    2  501    0  0.54845490622E+02 -0.90598217712E+02 -0.27309595077E+03  0.29291204007E+03  0.00000000000E+00 0. -1.
          1    1    1    2  502    0 -0.25118681202E+02 -0.96691197014E+01  0.22484466042E+02  0.35071230865E+02  0.00000000000E+00 0. -1.
         22    1    3    3    0    0  0.14103820145E+02 -0.13903490756E+02  0.15531821237E+02  0.25168676343E+02  0.00000000000E+00 0. -1.
         22    1    3    3    0    0 -0.43830629565E+02  0.11417082817E+03 -0.10245063887E+03  0.15953756767E+03  0.00000000000E+00 0. -1.
</event>
<event>
 7    1  0.6146596E-006  0.8430938E+02  0.7818608E-02  0.1390610E+00
          2   -1    0    0  502    0  0.00000000000E+00  0.00000000000E+00  0.50274085843E+03  0.50274085843E+03  0.00000000000E+00 0. -1.
          1   -1    0    0  501    0 -0.00000000000E+00 -0.00000000000E+00 -0.64499883288E+03  0.64499883288E+03  0.00000000000E+00 0. -1.
         25    2    1    2    0    0 -0.45171532671E+02 -0.11687313995E+03  0.15001410054E+02  0.17761954039E+03  0.12499544240E+03 0.  0.
          2    1    1    2  501    0  0.17325440744E+02  0.81225075863E+02 -0.55935550119E+03  0.56548763077E+03  0.00000000000E+00 0. -1.
          1    1    1    2  502    0  0.27846091926E+02  0.35648064088E+02  0.40209611668E+03  0.40463252014E+03  0.00000000000E+00 0. -1.
         22    1    3    3    0    0 -0.48768025442E+02 -0.53864475393E+02 -0.49075112326E+02  0.87681632425E+02  0.00000000000E+00 0.  1.
         22    1    3    3    0    0  0.35964927712E+01 -0.63008664557E+02  0.64076522380E+02  0.89937907969E+02  0.00000000000E+00 0.  1.
</event>
<event>
 7    1  0.6146596E-006  0.7458603E+02  0.7818608E-02  0.1475815E+00
          2   -1    0    0  502    0  0.00000000000E+00  0.00000000000E+00  0.26551223823E+03  0.26551223823E+03  0.00000000000E+00 0. -1.
          1   -1    0    0  501    0 -0.00000000000E+00 -0.00000000000E+00 -0.13639923613E+04  0.13639923613E+04  0.00000000000E+00 0. -1.
         25    2    1    2    0    0 -0.39716219151E+02  0.73388542575E+02  0.14537656682E+03  0.20910067254E+03  0.12500195531E+03 0.  0.
          2    1    1    2  501    0  0.12849416968E+02 -0.73443473517E+02 -0.13290166427E+04  0.13311064150E+04  0.00000000000E+00 0. -1.
          1    1    1    2  502    0  0.26866802183E+02  0.54930942020E-01  0.85159952864E+02  0.89297511996E+02  0.00000000000E+00 0. -1.
         22    1    3    3    0    0 -0.14382834143E+02  0.43762297499E+02  0.16073331737E+03  0.16720407864E+03  0.00000000000E+00 0.  1.
         22    1    3    3    0    0 -0.25333385008E+02  0.29626245076E+02 -0.15356750549E+02  0.41896593903E+02  0.00000000000E+00 0.  1.
</event>
<event>
 7    1  0.6146596E-006  0.3349662E+02  0.7818608E-02  0.1578443E+00
          2   -1    0    0  502    0  0.00000000000E+00  0.00000000000E+00  0.12719647320E+03  0.12719647320E+03  0.00000000000E+00 0. -1.
          1   -1    0    0  501    0 -0.00000000000E+00 -0.00000000000E+00 -0.76239965803E+03  0.76239965803E+03  0.00000000000E+00 0. -1.
         25    2    1    2    0    0 -0.39921848251E+02  0.30351080814E+02 -0.30309311677E+03  0.33167026053E+03  0.12499912885E+03 0.  0.
          2    1    1    2  501    0  0.64903468404E+01 -0.29590749251E+02 -0.44201207984E+03  0.44304899929E+03  0.00000000000E+00 0. -1.
          1    1    1    2  502    0  0.33431501411E+02 -0.76033156227E+00  0.10990201179E+03  0.11487687141E+03  0.00000000000E+00 0. -1.
         22    1    3    3    0    0 -0.81810294310E+02 -0.86039503226E+00 -0.20031409111E+03  0.21637790929E+03  0.00000000000E+00 0.  1.
         22    1    3    3    0    0  0.41888446059E+02  0.31211475846E+02 -0.10277902566E+03  0.11529235124E+03  0.00000000000E+00 0.  1.
</event>
<event>
 7    1  0.6146596E-006  0.7011985E+02  0.7818608E-02  0.1456761E+00
          2   -1    0    0  502    0  0.00000000000E+00  0.00000000000E+00  0.91658427878E+03  0.91658427878E+03  0.00000000000E+00 0. -1.
          1   -1    0    0  501    0 -0.00000000000E+00 -0.00000000000E+00 -0.14912440938E+04  0.14912440938E+04  0.00000000000E+00 0. -1.
         25    2    1    2    0    0  0.76401229404E+02  0.55601436137E+02 -0.11510830969E+03  0.19442759529E+03  0.12499399704E+03 0.  0.
          2    1    1    2  501    0 -0.65050687809E+02 -0.24848669455E+02 -0.13352622119E+04  0.13370767453E+04  0.00000000000E+00 0. -1.
          1    1    1    2  502    0 -0.11350541596E+02 -0.30752766682E+02  0.87571070656E+03  0.87632403198E+03  0.00000000000E+00 0. -1.
         22    1    3    3    0    0  0.34569702843E+02 -0.16946104676E+02 -0.10281427516E+03  0.10978620129E+03  0.00000000000E+00 0. -1.
         22    1    3    3    0    0  0.41831526561E+02  0.72547540813E+02 -0.12294034531E+02  0.84641393996E+02  0.00000000000E+00 0. -1.
</event>
<event>
 7    1  0.6146596E-006  0.3045960E+03  0.7818608E-02  0.1112049E+00
          2   -1    0    0  502    0  0.00000000000E+00  0.00000000000E+00  0.40109017283E+03  0.40109017283E+03  0.00000000000E+00 0. -1.
          1   -1    0    0  501    0 -0.00000000000E+00 -0.00000000000E+00 -0.12862582048E+04  0.12862582048E+04  0.00000000000E+00 0. -1.
         25    2    1    2    0    0 -0.94973432972E+02 -0.74103106320E+02 -0.82064594025E+03  0.83880753588E+03  0.12500839838E+03 0.  0.
          2    1    1    2  501    0 -0.89284612606E+02 -0.18839607208E+03 -0.35769745851E+03  0.41401967810E+03  0.00000000000E+00 0. -1.
          1    1    1    2  502    0  0.18425804558E+03  0.26249917840E+03  0.29317536676E+03  0.43452116369E+03  0.00000000000E+00 0. -1.
         22    1    3    3    0    0 -0.14774995206E+02 -0.56870325246E+01 -0.53298106120E+01  0.16704780856E+02  0.00000000000E+00 0.  1.
         22    1    3    3    0    0 -0.80198437766E+02 -0.68416073796E+02 -0.81531612964E+03  0.82210275503E+03  0.00000000000E+00 0.  1.
</event>
<event>
 7    1  0.6146596E-006  0.6807886E+02  0.7818608E-02  0.1390518E+00
          2   -1    0    0  502    0  0.00000000000E+00  0.00000000000E+00  0.82463137104E+02  0.82463137104E+02  0.00000000000E+00 0. -1.
          1   -1    0    0  501    0 -0.00000000000E+00 -0.00000000000E+00 -0.34550279511E+03  0.34550279511E+03  0.00000000000E+00 0. -1.
         25    2    1    2    0    0 -0.19387807714E+02  0.38469302367E+02 -0.10904705676E+03  0.17138200466E+03  0.12499902647E+03 0.  0.
          2    1    1    2  501    0  0.73563627736E+02 -0.24056290946E+02 -0.17913775122E+03  0.19514263085E+03  0.00000000000E+00 0. -1.
          1    1    1    2  502    0 -0.54175820021E+02 -0.14413011421E+02  0.25145149985E+02  0.61441296707E+02  0.00000000000E+00 0. -1.
         22    1    3    3    0    0 -0.64445604405E+01 -0.71413935917E+01  0.26282544542E+02  0.27987568835E+02  0.00000000000E+00 0. -1.
         22    1    3    3    0    0 -0.12943247274E+02  0.45610695959E+02 -0.13532960130E+03  0.14339443582E+03  0.00000000000E+00 0. -1.
</event>
<event>
 7    1  0.6146596E-006  0.8436346E+02  0.7818608E-02  0.1383176E+00
          2   -1    0    0  502    0  0.00000000000E+00  0.00000000000E+00  0.77434881578E+03  0.77434881578E+03  0.00000000000E+00 0. -1.
          1   -1    0    0  501    0 -0.00000000000E+00 -0.00000000000E+00 -0.29480920886E+03  0.29480920886E+03  0.00000000000E+00 0. -1.
         25    2    1    2    0    0 -0.12084160460E+03 -0.25440903771E+01  0.35613666845E+03  0.39631435778E+03  0.12499031072E+03 0.  0.
          2    1    1    2  501    0  0.45247963510E+02 -0.16023660389E+02 -0.26876869728E+03  0.27302151661E+03  0.00000000000E+00 0. -1.
          1    1    1    2  502    0  0.75593641093E+02  0.18567750766E+02  0.39217163576E+03  0.39982215025E+03  0.00000000000E+00 0. -1.
         22    1    3    3    0    0 -0.36495936955E+02  0.59035523465E+02  0.14605051788E+03  0.16170312371E+03  0.00000000000E+00 0. -1.
         22    1    3    3    0    0 -0.84345667648E+02 -0.61579613842E+02  0.21008615056E+03  0.23461123407E+03  0.00000000000E+00 0. -1.
</event>
<event>
 7    1  0.6146596E-006  0.8557786E+02  0.7818608E-02  0.1443376E+00
          2   -1    0    0  502    0  0.00000000000E+00  0.00000000000E+00  0.45531679173E+03  0.45531679173E+03  0.00000000000E+00 0. -1.
          1   -1    0    0  501    0 -0.00000000000E+00 -0.00000000000E+00 -0.24003191753E+03  0.24003191753E+03  0.00000000000E+00 0. -1.
         25    2    1    2    0    0  0.98574590052E+02  0.24649613978E+02 -0.58266064411E+02  0.17129946878E+03  0.12499608182E+03 0.  0.
          2    1    1    2  501    0 -0.72551868043E+02 -0.38844943706E+02 -0.11109860734E+03  0.13825919051E+03  0.00000000000E+00 0. -1.
          1    1    1    2  502    0 -0.26022722009E+02  0.14195329728E+02  0.38464954596E+03  0.38579004997E+03  0.00000000000E+00 0. -1.
         22    1    3    3    0    0 -0.15038979959E+01 -0.21565104051E+00  0.33334798493E+02  0.33369402229E+02  0.00000000000E+00 0.  1.
         22    1    3    3    0    0  0.10007848805E+03  0.24865265019E+02 -0.91600862904E+02  0.13793006655E+03  0.00000000000E+00 0.  1.
</event>
<event>
 7    1  0.6146596E-006  0.1931441E+03  0.7818608E-02  0.1214351E+00
          2   -1    0    0  502    0  0.00000000000E+00  0.00000000000E+00  0.33653585268E+04  0.33653585268E+04  0.00000000000E+00 0. -1.
          1   -1    0    0  501    0 -0.00000000000E+00 -0.00000000000E+00 -0.52221935451E+02  0.52221935451E+02  0.00000000000E+00 0. -1.
         25    2    1    2    0    0 -0.10765877894E+03  0.52544317523E+02  0.14121604762E+04  0.14227371360E+04  0.12502971508E+03 0.  0.
          2    1    1    2  501    0  0.20452554507E+03 -0.26205175943E+02  0.18833370309E+03  0.27926151463E+03  0.00000000000E+00 0. -1.
          1    1    1    2  502    0 -0.96866766130E+02 -0.26339141580E+02  0.17126424121E+04  0.17155818117E+04  0.00000000000E+00 0. -1.
         22    1    3    3    0    0  0.10686542538E+02 -0.23671669504E+02  0.11165759352E+03  0.11463842427E+03  0.00000000000E+00 0.  1.
         22    1    3    3    0    0 -0.11834532148E+03  0.76215987027E+02  0.13005028827E+04  0.13080987117E+04  0.00000000000E+00 0.  1.
</event>
<event>
 7    1  0.6146596E-006  0.1641048E+03  0.7818608E-02  0.1193164E+00
          2   -1    0    0  502    0  0.00000000000E+00  0.00000000000E+00  0.56321440273E+03  0.56321440273E+03  0.00000000000E+00 0. -1.
          1   -1    0    0  501    0 -0.00000000000E+00 -0.00000000000E+00 -0.25510525217E+03  0.25510525217E+03  0.00000000000E+00 0. -1.
         25    2    1    2    0    0  0.58348763483E+02 -0.68940103039E+02 -0.76630245159E+02  0.17220551574E+03  0.12500091668E+03 0.  0.
          2    1    1    2  501    0 -0.10584069786E+03 -0.10416143354E+03 -0.64831556919E+02  0.16203391106E+03  0.00000000000E+00 0. -1.
          1    1    1    2  502    0  0.47491934372E+02  0.17310153658E+03  0.44957095263E+03  0.48408022811E+03  0.00000000000E+00 0. -1.
         22    1    3    3    0    0  0.27056714558E+02 -0.50955788030E+02  0.26097729921E+02  0.63321794380E+02  0.00000000000E+00 0. -1.
         22    1    3    3    0    0  0.31292048925E+02 -0.17984315009E+02 -0.10272797508E+03  0.10888372136E+03  0.00000000000E+00 0. -1.
</event>
<event>
 7    1  0.6146596E-006  0.1305230E+03  0.7818608E-02  0.1343752E+00
          2   -1    0    0  502    0  0.00000000000E+00  0.00000000000E+00  0.35922001421E+04  0.35922001421E+04  0.00000000000E+00 0. -1.
          1   -1    0    0  501    0 -0.00000000000E+00 -0.00000000000E+00 -0.74457816696E+02  0.74457816696E+02  0.00000000000E+00 0. -1.
         25    2    1    2    0    0  0.12112024591E+03  0.33764159222E+02  0.16916466832E+04  0.17009126229E+04  0.12500047023E+03 0.  0.
          2    1    1    2  501    0  0.14037807949E+02 -0.40792278979E+02 -0.60497682425E+02  0.74303698798E+02  0.00000000000E+00 0. -1.
          1    1    1    2  502    0 -0.13515805386E+03  0.70281197571E+01  0.18865933246E+04  0.18914416371E+04  0.00000000000E+00 0. -1.
         22    1    3    3    0    0 -0.17041494002E+02  0.20876123637E+02  0.58199160967E+03  0.58261518928E+03  0.00000000000E+00 0. -1.
         22    1    3    3    0    0  0.13816173991E+03  0.12888035585E+02  0.11096550736E+04  0.11182974337E+04  0.00000000000E+00 0. -1.
</event>
<event>
 7    1  0.6146596E-006  0.5593392E+02  0.7818608E-02  0.1418333E+00
          2   -1    0    0  502    0  0.00000000000E+00  0.00000000000E+00  0.33342120499E+03  0.33342120499E+03  0.00000000000E+00 0. -1.
          1   -1    0    0  501    0 -0.00000000000E+00 -0.00000000000E+00 -0.75166289486E+02  0.75166289486E+02  0.00000000000E+00 0. -1.
         25    2    1    2    0    0  0.16024839520E+02  0.12801515942E+02  0.82026618374E+02  0.15091111309E+03  0.12500049456E+03 0.  0.
          2    1    1    2  501    0  0.42459867181E+02 -0.34678770098E+02 -0.14731341974E+02  0.56766802384E+02  0.00000000000E+00 0. -1.
          1    1    1    2  502    0 -0.58484706701E+02  0.21877254157E+02  0.19095963911E+03  0.20090957900E+03  0.00000000000E+00 0. -1.
         22    1    3    3    0    0 -0.27135410993E+02 -0.18611991923E+02  0.91012625407E+02  0.96778276264E+02  0.00000000000E+00 0.  1.
         22    1    3    3    0    0  0.43160250513E+02  0.31413507865E+02 -0.89860070329E+01  0.54132836828E+02  0.00000000000E+00 0.  1.
</event>
<event>
 7    1  0.6146596E-006  0.3861840E+02  0.7818608E-02  0.1561608E+00
          2   -1    0    0  502    0  0.00000000000E+00  0.00000000000E+00  0.25111283233E+04  0.25111283233E+04  0.00000000000E+00 0. -1.
          1   -1    0    0  501    0 -0.00000000000E+00 -0.00000000000E+00 -0.11283943039E+03  0.11283943039E+03  0.00000000000E+00 0. -1.
         25    2    1    2    0    0 -0.32804549979E+02 -0.55824508402E+02  0.66086738235E+03  0.67569426533E+03  0.12499811560E+03 0.  0.
          2    1    1    2  501    0  0.21723534169E+02  0.19504068059E+02 -0.10320526127E+03  0.10725505378E+03  0.00000000000E+00 0. -1.
          1    1    1    2  502    0  0.11081015810E+02  0.36320440343E+02  0.18406267718E+04  0.18410184345E+04  0.00000000000E+00 0. -1.
         22    1    3    3    0    0  0.27098202852E+02 -0.72013334660E+02  0.41817551875E+03  0.42519524627E+03  0.00000000000E+00 0. -1.
         22    1    3    3    0    0 -0.59902752831E+02  0.16188826258E+02  0.24269186360E+03  0.25049901906E+03  0.00000000000E+00 0. -1.
</event>
<event>
 7    1  0.6146596E-006  0.1080017E+03  0.7818608E-02  0.1346765E+00
          2   -1    0    0  502    0  0.00000000000E+00  0.00000000000E+00  0.24750493055E+03  0.24750493055E+03  0.00000000000E+00 0. -1.
          1   -1    0    0  501    0 -0.00000000000E+00 -0.00000000000E+00 -0.15393268424E+04  0.15393268424E+04  0.00000000000E+00 0. -1.
         25    2    1    2    0    0 -0.86272400993E+02  0.33582992391E+02 -0.10485882444E+04  0.10600625564E+04  0.12499829050E+03 0.  0.
          2    1    1    2  501    0 -0.21303051713E+02 -0.46121323545E+02 -0.47143877194E+03  0.47416823195E+03  0.00000000000E+00 0. -1.
          1    1    1    2  502    0  0.10757545271E+03  0.12538331154E+02  0.22820510442E+03  0.25260098467E+03  0.00000000000E+00 0. -1.
         22    1    3    3    0    0 -0.43682056530E+00 -0.38004823063E+02 -0.15896265919E+03  0.16344321462E+03  0.00000000000E+00 0.  1.
         22    1    3    3    0    0 -0.85835580428E+02  0.71587815454E+02 -0.88962558519E+03  0.89661934176E+03  0.00000000000E+00 0.  1.
</event>
<event>
 7    1  0.6146596E-006  0.6232745E+02  0.7818608E-02  0.1392242E+00
          2   -1    0    0  502    0  0.00000000000E+00  0.00000000000E+00  0.41241845657E+02  0.41241845657E+02  0.00000000000E+00 0. -1.
          1   -1    0    0  501    0 -0.00000000000E+00 -0.00000000000E+00 -0.12064443041E+04  0.12064443041E+04  0.00000000000E+00 0. -1.
         25    2    1    2    0    0 -0.51989779208E+02 -0.29889975896E+02 -0.51027978988E+03  0.52877897781E+03  0.12500158241E+03 0.  0.
          2    1    1    2  501    0  0.56501336298E+02 -0.32273973198E+02 -0.65332695125E+03  0.65655930088E+03  0.00000000000E+00 0. -1.
          1    1    1    2  502    0 -0.45115570902E+01  0.62163949094E+02 -0.15957173229E+01  0.62347871079E+02  0.00000000000E+00 0. -1.
         22    1    3    3    0    0 -0.71594220133E+02  0.69145750827E+01 -0.44857400369E+03  0.45430406172E+03  0.00000000000E+00 0. -1.
         22    1    3    3    0    0  0.19604440925E+02 -0.36804550979E+02 -0.61705786193E+02  0.74474916089E+02  0.00000000000E+00 0. -1.
</event>
<event>
 7    1  0.6146596E-006  0.8012522E+02  0.7818608E-02  0.1484498E+00
          2   -1    0    0  502    0  0.00000000000E+00  0.00000000000E+00  0.29989206450E+04  0.29989206450E+04  0.00000000000E+00 0. -1.
          1   -1    0    0  501    0 -0.00000000000E+00 -0.00000000000E+00 -0.78084742072E+03  0.78084742072E+03  0.00000000000E+00 0. -1.
         25    2    1    2    0    0 -0.83601027501E+02 -0.45375089350E+02 -0.13582744054E+03  0.20765865847E+03  0.12499997722E+03 0.  0.
          2    1    1    2  501    0  0.22601756256E+02 -0.65151524463E+01 -0.60833590546E+03  0.60879048980E+03  0.00000000000E+00 0. -1.
          1    1    1    2  502    0  0.60999271245E+02  0.51890241796E+02  0.29622365702E+04  0.29633189174E+04  0.00000000000E+00 0. -1.
         22    1    3    3    0    0 -0.10481480459E+03 -0.68770184279E+02 -0.11186798044E+03  0.16801763763E+03  0.00000000000E+00 0.  1.
         22    1    3    3    0    0  0.21213777093E+02  0.23395094929E+02 -0.23959460092E+02  0.39641020840E+02  0.00000000000E+00 0.  1.
</event>
<event>
 7    1  0.6146596E-006  0.6748074E+02  0.7818608E-02  0.1416805E+00
          2   -1    0    0  502    0  0.00000000000E+00  0.00000000000E+00  0.23549274355E+04  0.23549274355E+04  0.00000000000E+00 0. -1.
          1   -1    0    0  501    0 -0.00000000000E+00 -0.00000000000E+00 -0.17914717068E+02  0.17914717068E+02  0.00000000000E+00 0. -1.
         25    2    1    2    0    0 -0.65925839605E+01  0.30102949643E+02  0.17743892044E+04  0.17790536473E+04  0.12500072583E+03 0.  0.
          2    1    1    2  501    0  0.60920337087E+02  0.29023483888E+02  0.80582535462E+02  0.10510563786E+03  0.00000000000E+00 0. -1.
          1    1    1    2  502    0 -0.54327753126E+02 -0.59126433531E+02  0.48204097856E+03  0.48868286742E+03  0.00000000000E+00 0. -1.
         22    1    3    3    0    0 -0.50329080408E+02  0.41600622870E+02  0.14566095345E+04  0.14580723454E+04  0.00000000000E+00 0. -1.
         22    1    3    3    0    0  0.43736496447E+02 -0.11497673227E+02  0.31777966985E+03  0.32098130191E+03  0.00000000000E+00 0. -1.
</event>
<event>
 7    1  0.6146596E-006  0.1291123E+03  0.7818608E-02  0.1376080E+00
          2   -1    0    0  502    0  0.00000000000E+00  0.00000000000E+00  0.10257949294E+03  0.10257949294E+03  0.00000000000E+00 0. -1.
          1   -1    0    0  501    0 -0.00000000000E+00 -0.00000000000E+00 -0.10523217335E+04  0.10523217335E+04  0.00000000000E+00 0. -1.
         25    2    1    2    0    0 -0.11658731769E+03 -0.68167854861E+02 -0.19132345059E+03  0.26546160390E+03  0.12500296523E+03 0.  0.
          2    1    1    2  501    0  0.25064468612E+02 -0.21824102750E+02 -0.76034428373E+03  0.76107026538E+03  0.00000000000E+00 0. -1.
          1    1    1    2  502    0  0.91522849080E+02  0.89991957611E+02  0.19254937233E+01  0.12836935719E+03  0.00000000000E+00 0. -1.
         22    1    3    3    0    0  0.20787662180E+02  0.67870009885E+01 -0.55544570476E+01  0.22561965216E+02  0.00000000000E+00 0. -1.
         22    1    3    3    0    0 -0.13737497987E+03 -0.74954855849E+02 -0.18576899354E+03  0.24289963868E+03  0.00000000000E+00 0. -1.
</event>
<event>
 7    1  0.6146596E-006  0.5265958E+02  0.7818608E-02  0.1447275E+00
          2   -1    0    0  502    0  0.00000000000E+00  0.00000000000E+00  0.16099730507E+04  0.16099730507E+04  0.00000000000E+00 0. -1.
          1   -1    0    0  501    0 -0.00000000000E+00 -0.00000000000E+00 -0.95076780125E+02  0.95076780125E+02  0.00000000000E+00 0. -1.
         25    2    1    2    0    0  0.45631754691E+02  0.60540981648E+02  0.23827531738E+03  0.27954593333E+03  0.12499333772E+03 0.  0.
          2    1    1    2  501    0 -0.46096664345E+02 -0.80811099727E+01 -0.66522974501E+02  0.81335803546E+02  0.00000000000E+00 0. -1.
          1    1    1    2  502    0  0.46490965325E+00 -0.52459871676E+02  0.13431439277E+04  0.13441680940E+04  0.00000000000E+00 0. -1.
         22    1    3    3    0    0 -0.25231057993E+02  0.53204511076E+02  0.46705061640E+02  0.75157761203E+02  0.00000000000E+00 0. -1.
         22    1    3    3    0    0  0.70862812684E+02  0.73364705725E+01  0.19157025574E+03  0.20438817213E+03  0.00000000000E+00 0. -1.
</event>
<event>
 7    1  0.6146596E-006  0.5316722E+02  0.7818608E-02  0.1501253E+00
          2   -1    0    0  502    0  0.00000000000E+00  0.00000000000E+00  0.25796295881E+02  0.25796295881E+02  0.00000000000E+00 0. -1.
          1   -1    0    0  501    0 -0.00000000000E+00 -0.00000000000E+00 -0.19257371602E+04  0.19257371602E+04  0.00000000000E+00 0. -1.
         25    2    1    2    0    0 -0.31873755860E+01  0.59589105333E+02 -0.38063052053E+03  0.40504868014E+03  0.12499527707E+03 0.  0.
          2    1    1    2  501    0 -0.27308340726E+02 -0.15815926804E+02 -0.14797059085E+04  0.14800423861E+04  0.00000000000E+00 0. -1.
          1    1    1    2  502    0  0.30495716312E+02 -0.43773178529E+02 -0.39604435286E+02  0.66442389829E+02  0.00000000000E+00 0. -1.
         22    1    3    3    0    0 -0.50448433733E+02  0.48537678600E+02 -0.31904932324E+03  0.32663958941E+03  0.00000000000E+00 0. -1.
         22    1    3    3    0    0  0.47261058147E+02  0.11051426732E+02 -0.61581197283E+02  0.78409090728E+02  0.00000000000E+00 0. -1.
</event>
<event>
 7    1  0.6146596E-006  0.1163313E+03  0.7818608E-02  0.1436669E+00
          2   -1    0    0  502    0  0.00000000000E+00  0.00000000000E+00  0.49921972012E+03  0.49921972012E+03  0.00000000000E+00 0. -1.
          1   -1    0    0  501    0 -0.00000000000E+00 -0.00000000000E+00 -0.87240487113E+03  0.87240487113E+03  0.00000000000E+00 0. -1.
         25    2    1    2    0    0 -0.65335356959E+02 -0.98251746542E+02 -0.12034917520E+03  0.20983188454E+03  0.12499352475E+03 0.  0.
          2    1    1    2  501    0  0.20954091030E+02 -0.93047520161E+01 -0.69967644122E+03  0.70005198002E+03  0.00000000000E+00 0. -1.
          1    1    1    2  502    0  0.44381265929E+02  0.10755649856E+03  0.44684046542E+03  0.46174072669E+03  0.00000000000E+00 0. -1.
         22    1    3    3    0    0 -0.28602509625E+02 -0.36402113236E+02 -0.12930373540E+03  0.13734144820E+03  0.00000000000E+00 0.  1.
         22    1    3    3    0    0 -0.36732847334E+02 -0.61849633306E+02  0.89545601939E+01  0.72490436346E+02  0.00000000000E+00 0.  1.
</event>
<event>
 7    1  0.6146596E-006  0.4523024E+02  0.7818608E-02  0.1556190E+00
          2   -1    0    0  502    0  0.00000000000E+00  0.00000000000E+00  0.38052252647E+04  0.38052252647E+04  0.00000000000E+00 0. -1.
          1   -1    0    0  501    0 -0.00000000000E+00 -0.00000000000E+00 -0.83707138594E+02  0.83707138594E+02  0.00000000000E+00 0. -1.
         25    2    1    2    0    0  0.29894848214E+02  0.13207138548E+01  0.65154111394E+03  0.66409781332E+03  0.12499854506E+03 0.  0.
          2    1    1    2  501    0  0.78185285116E+01  0.24585810605E+02 -0.75108719290E+02  0.79416063769E+02  0.00000000000E+00 0. -1.
          1    1    1    2  502    0 -0.37713376725E+02 -0.25906524460E+02  0.31450857314E+04  0.31454185262E+04  0.00000000000E+00 0. -1.
         22    1    3    3    0    0  0.44342552295E+02 -0.82065500342E+01  0.76543642853E+02  0.88839960990E+02  0.00000000000E+00 0. -1.
         22    1    3    3    0    0 -0.14447704081E+02  0.95272638891E+01  0.57499747109E+03  0.57525785233E+03  0.00000000000E+00 0. -1.
</event>
<event>
 7    1  0.6146596E-006  0.1812841E+03  0.7818608E-02  0.1286505E+00
          2   -1    0    0  502    0  0.00000000000E+00  0.00000000000E+00  0.32154504376E+04  0.32154504376E+04  0.00000000000E+00 0. -1.
          1   -1    0    0  501    0 -0.00000000000E+00 -0.00000000000E+00 -0.49422459401E+02  0.49422459401E+02  0.00000000000E+00 0. -1.
         25    2    1    2    0    0  0.13595660942E+03  0.15762892386E+03  0.16617692960E+04  0.16794138457E+04  0.12499037784E+03 0.  0.
          2    1    1    2  501    0 -0.50417965242E+02 -0.12786890277E+02 -0.17158206738E+02  0.54771158839E+02  0.00000000000E+00 0. -1.
          1    1    1    2  502    0 -0.85538644176E+02 -0.14484203359E+03  0.15214168890E+04  0.15306878925E+04  0.00000000000E+00 0. -1.
         22    1    3    3    0    0  0.12407142414E+03  0.11914134413E+03  0.88270501470E+03  0.89930891308E+03  0.00000000000E+00 0.  1.
         22    1    3    3    0    0  0.11885185279E+02  0.38487579731E+02  0.77906428131E+03  0.78010493258E+03  0.00000000000E+00 0.  1.
</event>
<event>
 7    1  0.6146596E-006  0.1039556E+03  0.7818608E-02  0.1326180E+00
          2   -1    0    0  502    0  0.00000000000E+00  0.00000000000E+00  0.13057604793E+04  0.13057604793E+04  0.00000000000E+00 0. -1.
          1   -1    0    0  501    0 -0.00000000000E+00 -0.00000000000E+00 -0.12362208057E+04  0.12362208057E+04  0.00000000000E+00 0. -1.
         25    2    1    2    0    0 -0.12178404768E+03  0.10792622417E+03  0.25872417903E+02  0.20681759680E+03  0.12499884881E+03 0.  0.
          2    1    1    2  501    0  0.55939926398E+02 -0.29292762225E+02 -0.11426639908E+04  0.11444074175E+04  0.00000000000E+00 0. -1.
          1    1    1    2  502    0  0.65844121285E+02 -0.78633461946E+02  0.11863312466E+04  0.11907562707E+04  0.00000000000E+00 0. -1.
         22    1    3    3    0    0 -0.11834754933E+03  0.10870103822E+03 -0.18995794302E+02  0.16181130475E+03  0.00000000000E+00 0. -1.
         22    1    3    3    0    0 -0.34364983549E+01 -0.77481404872E+00  0.44868212205E+02  0.45006292052E+02  0.00000000000E+00 0. -1.
</event>
<event>
 7    1  0.6146596E-006  0.1093396E+03  0.7818608E-02  0.1398353E+00
          2   -1    0    0  502    0  0.00000000000E+00  0.00000000000E+00  0.32278990471E+03  0.32278990471E+03  0.00000000000E+00 0. -1.
          1   -1    0    0  501    0 -0.00000000000E+00 -0.00000000000E+00 -0.12928652087E+03  0.12928652087E+03  0.00000000000E+00 0. -1.
         25    2    1    2    0    0 -0.50001171276E+02  0.86197230913E+02 -0.23647655105E+02  0.16159916092E+03  0.12499998989E+03 0.  0.
          2    1    1    2  501    0  0.24322551383E+02  0.21989421275E+02 -0.12684961618E+02  0.35157209859E+02  0.00000000000E+00 0. -1.
          1    1    1    2  502    0  0.25678619892E+02 -0.10818665219E+03  0.22983600057E+03  0.25532005481E+03  0.00000000000E+00 0. -1.
         22    1    3    3    0    0 -0.57962995923E-01 -0.27329071182E+01 -0.54865879658E+02  0.54933932061E+02  0.00000000000E+00 0.  1.
         22    1    3    3    0    0 -0.49943208280E+02  0.88930138031E+02  0.31218224553E+02  0.10666522886E+03  0.00000000000E+00 0.  1.
</event>
<event>
 7    1  0.6146596E-006  0.1198095E+03  0.7818608E-02  0.1274191E+00
          2   -1    0    0  502    0  0.00000000000E+00  0.00000000000E+00  0.18400974292E+04  0.18400974292E+04  0.00000000000E+00 0. -1.
          1   -1    0    0  501    0 -0.00000000000E+00 -0.00000000000E+00 -0.50120513801E+02  0.50120513801E+02  0.00000000000E+00 0. -1.
         25    2    1    2    0    0 -0.37085016476E+02  0.44434410907E+02  0.40705377026E+03  0.42972865847E+03  0.12499693077E+03 0.  0.
          2    1    1    2  501    0  0.12188271918E+03 -0.69696460607E+02  0.94982722316E+02  0.16951315994E+03  0.00000000000E+00 0. -1.
          1    1    1    2  502    0 -0.84797702699E+02  0.25262049700E+02  0.12879404228E+04  0.12909761246E+04  0.00000000000E+00 0. -1.
         22    1    3    3    0    0 -0.46965173735E+02 -0.21576315278E+02  0.29346106985E+03  0.29797762407E+03  0.00000000000E+00 0.  1.
         22    1    3    3    0    0  0.98801572591E+01  0.66010726185E+02  0.11359270041E+03  0.13175103440E+03  0.00000000000E+00 0.  1.
</event>
<event>
 7    1  0.6146596E-006  0.7428737E+02  0.7818608E-02  0.1416034E+00
          2   -1    0    0  502    0  0.00000000000E+00  0.00000000000E+00  0.25054480888E+03  0.25054480888E+03  0.00000000000E+00 0. -1.
          1   -1    0    0  501    0 -0.00000000000E+00 -0.00000000000E+00 -0.70096022060E+03  0.70096022060E+03  0.00000000000E+00 0. -1.
         25    2    1    2    0    0  0.20036803085E+02  0.38998319069E+02 -0.19331677598E+03  0.23434668673E+03  0.12499860534E+03 0.  0.
          2    1    1    2  501    0 -0.59838081916E+02 -0.52462627360E+02 -0.48191901560E+03  0.48844535100E+03  0.00000000000E+00 0. -1.
          1    1    1    2  502    0  0.39801278832E+02  0.13464308291E+02  0.22482037986E+03  0.22871299175E+03  0.00000000000E+00 0. -1.
         22    1    3    3    0    0  0.52674351846E+02 -0.33694531869E+00 -0.24748110650E+02  0.58199397379E+02  0.00000000000E+00 0. -1.
         22    1    3    3    0    0 -0.32637548761E+02  0.39335264388E+02 -0.16856866533E+03  0.17614728935E+03  0.00000000000E+00 0. -1.
</event>
<event>
 7    1  0.6146596E-006  0.1162590E+03  0.7818608E-02  0.1328845E+00
          2   -1    0    0  502    0  0.00000000000E+00  0.00000000000E+00  0.27827443032E+03  0.27827443032E+03  0.00000000000E+00 0. -1.
          1   -1    0    0  501    0 -0.00000000000E+00 -0.00000000000E+00 -0.41481397066E+03  0.41481397066E+03  0.00000000000E+00 0. -1.
         25    2    1    2    0    0 -0.62884264980E+02  0.14304551573E+03 -0.15668261098E+03  0.25414648067E+03  0.12499817078E+03 0.  0.
          2    1    1    2  501    0  0.58211853607E+02 -0.88093900681E+02 -0.19234075688E+03  0.21941768842E+03  0.00000000000E+00 0. -1.
          1    1    1    2  502    0  0.46724113729E+01 -0.54951615050E+02  0.21248382753E+03  0.21952423188E+03  0.00000000000E+00 0. -1.
         22    1    3    3    0    0 -0.64822114994E+02  0.58732204355E+02 -0.14259808663E+02  0.88626861412E+02  0.00000000000E+00 0.  1.
         22    1    3    3    0    0  0.19378500147E+01  0.84313311376E+02 -0.14242280232E+03  0.16551961926E+03  0.00000000000E+00 0.  1.
</event>
<event>
 7    1  0.6146596E-006  0.7149500E+02  0.7818608E-02  0.1452408E+00
          2   -1    0    0  502    0  0.00000000000E+00  0.00000000000E+00  0.10145009097E+03  0.10145009097E+03  0.00000000000E+00 0. -1.
          1   -1    0    0  501    0 -0.00000000000E+00 -0.00000000000E+00 -0.10806216482E+04  0.10806216482E+04  0.00000000000E+00 0. -1.
         25    2    1    2    0    0  0.32106615757E+02  0.26469336562E+02 -0.16074298401E+03  0.20783545370E+03  0.12500323336E+03 0.  0.
          2    1    1    2  501    0  0.20704838545E+02  0.25941066142E+02 -0.87818198464E+03  0.87880898232E+03  0.00000000000E+00 0. -1.
          1    1    1    2  502    0 -0.52811454302E+02 -0.52410402704E+02  0.59753411399E+02  0.95427303173E+02  0.00000000000E+00 0. -1.
         22    1    3    3    0    0  0.49760796006E+02  0.35094452138E+02 -0.17647212124E+02  0.63397014801E+02  0.00000000000E+00 0.  1.
         22    1    3    3    0    0 -0.17654180249E+02 -0.86251155757E+01 -0.14309577189E+03  0.14443843890E+03  0.00000000000E+00 0.  1.
</event>
<event>
 7    1  0.6146596E-006  0.1071903E+03  0.7818608E-02  0.1329257E+00
          2   -1    0    0  502    0  0.00000000000E+00  0.00000000000E+00  0.67667045322E+03  0.67667045322E+03  0.00000000000E+00 0. -1.
          1   -1    0    0  501    0 -0.00000000000E+00 -0.00000000000E+00 -0.18265207922E+03  0.18265207922E+03  0.00000000000E+00 0. -1.
         25    2    1    2    0    0  0.83579320611E+02 -0.16404917980E+02  0.13434954661E+03  0.20230941169E+03  0.12499869287E+03 0.  0.
          2    1    1    2  501    0 -0.81527744982E+02  0.75968418547E+02 -0.12570882746E+03  0.16799012804E+03  0.00000000000E+00 0. -1.
          1    1    1    2  502    0 -0.20515756287E+01 -0.59563500567E+02  0.48537765485E+03  0.48902299270E+03  0.00000000000E+00 0. -1.
         22    1    3    3    0    0 -0.16858691652E+02 -0.43163099846E+02  0.52383757437E+02  0.69938020531E+02  0.00000000000E+00 0. -1.
         22    1    3    3    0    0  0.10043801226E+03  0.26758181866E+02  0.81965789170E+02  0.13237139116E+03  0.00000000000E+00 0. -1.
</event>
<event>
 7    1  0.6146596E-006  0.7093105E+02  0.7818608E-02  0.1421189E+00
          2   -1    0    0  502    0  0.00000000000E+00  0.00000000000E+00  0.14881524603E+03  0.14881524603E+03  0.00000000000E+00 0. -1.
          1   -1    0    0  501    0 -0.00000000000E+00 -0.00000000000E+00 -0.19275167245E+04  0.19275167245E+04  0.00000000000E+00 0. -1.
         25    2    1    2    0    0 -0.53855875125E+02  0.98814702882E+02 -0.13175736715E+02  0.16871196479E+03  0.12500130493E+03 0.  0.
          2    1    1    2  501    0  0.30092053374E+02 -0.63831183779E+02 -0.18295382042E+04  0.18308986843E+04  0.00000000000E+00 0. -1.
          1    1    1    2  502    0  0.23763821751E+02 -0.34983519103E+02  0.64012462362E+02  0.76721321487E+02  0.00000000000E+00 0. -1.
         22    1    3    3    0    0 -0.47173076122E+02 -0.18224194185E+02 -0.92960281616E+01  0.51418250690E+02  0.00000000000E+00 0.  1.
         22    1    3    3    0    0 -0.66827990038E+01  0.11703889707E+03 -0.38797085530E+01  0.11729371410E+03  0.00000000000E+00 0.  1.
</event>
<event>
 7    1  0.6146596E-006  0.8530721E+02  0.7818608E-02  0.1320748E+00
          2   -1    0    0  502    0  0.00000000000E+00  0.00000000000E+00  0.20644813636E+03  0.20644813636E+03  0.00000000000E+00 0. -1.
          1   -1    0    0  501    0 -0.00000000000E+00 -0.00000000000E+00 -0.20919045201E+04  0.20919045201E+04  0.00000000000E+00 0. -1.
         25    2    1    2    0    0 -0.14095927550E+03 -0.76162173303E+02 -0.11745530414E+03  0.23471193206E+03  0.12499499426E+03 0.  0.
          2    1    1    2  501    0  0.81344872824E+02  0.21687676980E+02 -0.19037916047E+04  0.19056520715E+04  0.00000000000E+00 0. -1.
          1    1    1    2  502    0  0.59614402681E+02  0.54474496323E+02  0.13579052503E+03  0.15798865290E+03  0.00000000000E+00 0. -1.
         22    1    3    3    0    0  0.13777129947E+02 -0.57370323486E+01 -0.49369895484E+02  0.51576248698E+02  0.00000000000E+00 0. -1.
         22    1    3    3    0    0 -0.15473640545E+03 -0.70425140954E+02 -0.68085408654E+02  0.18313568337E+03  0.00000000000E+00 0. -1.
</event>
<event>
 7    1  0.6146596E-006  0.1072329E+03  0.7818608E-02  0.1269704E+00
          2   -1    0    0  502    0  0.00000000000E+00  0.00000000000E+00  0.42462552283E+03  0.42462552283E+03  0.00000000000E+00 0. -1.
          1   -1    0    0  501    0 -0.00000000000E+00 -0.00000000000E+00 -0.16255148697E+03  0.16255148697E+03  0.00000000000E+00 0. -1.
         25    2    1    2    0    0  0.23760645344E+02 -0.11305403884E+02  0.10676076145E+03  0.16648606303E+03  0.12500947394E+03 0.  0.
          2    1    1    2  501    0 -0.87029208970E+02  0.92871085648E+02 -0.89105973484E+02  0.15536729474E+03  0.00000000000E+00 0. -1.
          1    1    1    2  502    0  0.63268563627E+02 -0.81565681764E+02  0.24441924790E+03  0.26532365203E+03  0.00000000000E+00 0. -1.
         22    1    3    3    0    0  0.62141715453E+02 -0.15850479330E+02  0.11039011350E+03  0.12766678367E+03  0.00000000000E+00 0. -1.
         22    1    3    3    0    0 -0.38381070109E+02  0.45450754456E+01 -0.36293520557E+01  0.38819279358E+02  0.00000000000E+00 0. -1.
</event>
<event>
 7    1  0.6146596E-006  0.7668529E+02  0.7818608E-02  0.1429963E+00
          2   -1    0    0  502    0  0.00000000000E+00  0.00000000000E+00  0.13199811933E+04  0.13199811933E+04  0.00000000000E+00 0. -1.
          1   -1    0    0  501    0 -0.00000000000E+00 -0.00000000000E+00 -0.35181563676E+02  0.35181563676E+02  0.00000000000E+00 0. -1.
         25    2    1    2    0    0  0.10657350480E+03 -0.61396405740E+01  0.47708571037E+03  0.50461022836E+03  0.12500040166E+03 0.  0.
          2    1    1    2  501    0 -0.71247810704E+02  0.15656438596E+02  0.42420789500E+02  0.84385413321E+02  0.00000000000E+00 0. -1.
          1    1    1    2  502    0 -0.35325694101E+02 -0.95167980225E+01  0.76529312979E+03  0.76616711533E+03  0.00000000000E+00 0. -1.
         22    1    3    3    0    0  0.90661725412E+02 -0.59355829617E+02  0.33306752992E+03  0.35025225545E+03  0.00000000000E+00 0.  1.
         22    1    3    3    0    0  0.15911779393E+02  0.53216189043E+02  0.14401818045E+03  0.15435797291E+03  0.00000000000E+00 0.  1.
</event>
<event>
 7    1  0.6146596E-006  0.4333002E+02  0.7818608E-02  0.1531265E+00
          2   -1    0    0  502    0  0.00000000000E+00  0.00000000000E+00  0.14694690832E+04  0.14694690832E+04  0.00000000000E+00 0. -1.
          1   -1    0    0  501    0 -0.00000000000E+00 -0.00000000000E+00 -0.25331733643E+02  0.25331733643E+02  0.00000000000E+00 0. -1.
         25    2    1    2    0    0  0.22319115135E+02 -0.43072591055E+02  0.83528213143E+03  0.84597517588E+03  0.12499747245E+03 0.  0.
          2    1    1    2  501    0  0.93242215478E+01  0.42483630904E+02  0.45946682733E+01  0.43736837778E+02  0.00000000000E+00 0. -1.
          1    1    1    2  502    0 -0.31643336683E+02  0.58896015073E+00  0.60426054990E+03  0.60508880323E+03  0.00000000000E+00 0. -1.
         22    1    3    3    0    0  0.46731525459E+02 -0.34967455028E+02  0.16185507845E+03  0.17205703939E+03  0.00000000000E+00 0.  1.
         22    1    3    3    0    0 -0.24412410324E+02 -0.81051360275E+01  0.67342705297E+03  0.67391813648E+03  0.00000000000E+00 0.  1.
</event>
<event>
 7    1  0.6146596E-006  0.4493356E+02  0.7818608E-02  0.1504378E+00
          2   -1    0    0  502    0  0.00000000000E+00  0.00000000000E+00  0.38716155835E+03  0.38716155835E+03  0.00000000000E+00 0. -1.
          1   -1    0    0  501    0 -0.00000000000E+00 -0.00000000000E+00 -0.26085576145E+03  0.26085576145E+03  0.00000000000E+00 0. -1.
         25    2    1    2    0    0  0.73075258414E+02  0.31711740905E+02  0.13347613563E+02  0.14882442144E+03  0.12499968691E+03 0.  0.
          2    1    1    2  501    0 -0.37731454802E+02 -0.22397977889E+02 -0.18951045123E+03  0.19452388856E+03  0.00000000000E+00 0. -1.
          1    1    1    2  502    0 -0.35343803611E+02 -0.93137630163E+01  0.30246863457E+03  0.30466900980E+03  0.00000000000E+00 0. -1.
         22    1    3    3    0    0  0.84300566983E+02 -0.26797379433E+02  0.42665611147E+01  0.88560085151E+02  0.00000000000E+00 0. -1.
         22    1    3    3    0    0 -0.11225308570E+02  0.58509120339E+02  0.90810524478E+01  0.60264336293E+02  0.00000000000E+00 0. -1.
</event>
<event>
 7    1  0.6146596E-006  0.2292527E+03  0.7818608E-02  0.1195316E+00
          2   -1    0    0  502    0  0.00000000000E+00  0.00000000000E+00  0.18656762448E+03  0.18656762448E+03  0.00000000000E+00 0. -1.
          1   -1    0    0  501    0 -0.00000000000E+00 -0.00000000000E+00 -0.12928292284E+04  0.12928292284E+04  0.00000000000E+00 0. -1.
         25    2    1    2    0    0  0.19407464480E+03 -0.64546185355E+02 -0.16569014953E+03  0.29139320065E+03  0.12500237571E+03 0.  0.
          2    1    1    2  501    0 -0.88615263278E+01 -0.10344042872E+03 -0.93204728828E+03  0.93781159970E+03  0.00000000000E+00 0. -1.
          1    1    1    2  502    0 -0.18521311847E+03  0.16798661407E+03 -0.85241661562E+01  0.25019205257E+03  0.00000000000E+00 0. -1.
         22    1    3    3    0    0  0.17554444883E+03 -0.34327242781E+01 -0.11538374867E+03  0.21009770720E+03  0.00000000000E+00 0.  1.
         22    1    3    3    0    0  0.18530195966E+02 -0.61113461077E+02 -0.50306400860E+02  0.81295493448E+02  0.00000000000E+00 0.  1.
</event>
<event>
 7    1  0.6146596E-006  0.6471085E+02  0.7818608E-02  0.1380821E+00
          2   -1    0    0  502    0  0.00000000000E+00  0.00000000000E+00  0.15641175603E+03  0.15641175603E+03  0.00000000000E+00 0. -1.
          1   -1    0    0  501    0 -0.00000000000E+00 -0.00000000000E+00 -0.10396376705E+04  0.10396376705E+04  0.00000000000E+00 0. -1.
         25    2    1    2    0    0 -0.50045459501E+02  0.84072832003E+02 -0.13667829994E+03  0.20947186037E+03  0.12499885405E+03 0.  0.
          2    1    1    2  501    0  0.60311332646E+02 -0.20774878319E+02 -0.85672573656E+03  0.85909722389E+03  0.00000000000E+00 0. -1.
          1    1    1    2  502    0 -0.10265873145E+02 -0.63297953683E+02  0.11017812203E+03  0.12748034227E+03  0.00000000000E+00 0. -1.
         22    1    3    3    0    0 -0.65752156382E+01 -0.27581757692E+02 -0.62289652545E+02  0.68439664174E+02  0.00000000000E+00 0.  1.
         22    1    3    3    0    0 -0.43470243863E+02  0.11165458970E+03 -0.74388647395E+02  0.14103219619E+03  0.00000000000E+00 0.  1.
</event>
<event>
 7    1  0.6146596E-006  0.6893956E+02  0.7818608E-02  0.1388072E+00
          2   -1    0    0  502    0  0.00000000000E+00  0.00000000000E+00  0.10658549401E+04  0.10658549401E+04  0.00000000000E+00 0. -1.
          1   -1    0    0  501    0 -0.00000000000E+00 -0.00000000000E+00 -0.74093897871E+02  0.74093897871E+02  0.00000000000E+00 0. -1.
         25    2    1    2    0    0 -0.50953881521E+02  0.40085240824E+02  0.50348304016E+03  0.52280079180E+03  0.12498948599E+03 0.  0.
          2    1    1    2  501    0  0.44842572652E+02  0.34306708887E+02 -0.48970568400E+02  0.74739033752E+02  0.00000000000E+00 0. -1.
          1    1    1    2  502    0  0.61113088691E+01 -0.74391949711E+02  0.53724857046E+03  0.54240901240E+03  0.00000000000E+00 0. -1.
         22    1    3    3    0    0  0.35769632132E+02  0.40135556948E+02  0.21000538773E+03  0.21677774884E+03  0.00000000000E+00 0.  1.
         22    1    3    3    0    0 -0.86723513653E+02 -0.50316123982E-01  0.29347765243E+03  0.30602304297E+03  0.00000000000E+00 0.  1.
</event>
<event>
 7    1  0.6146596E-006  0.8682490E+02  0.7818608E-02  0.1366314E+00
          2   -1    0    0  502    0  0.00000000000E+00  0.00000000000E+00  0.15761905768E+04  0.15761905768E+04  0.00000000000E+00 0. -1.
          1   -1    0    0  501    0 -0.00000000000E+00 -0.00000000000E+00 -0.46964239701E+03  0.46964239701E+03  0.00000000000E+00 0. -1.
         25    2    1    2    0    0  0.11640229770E+03 -0.70473602902E+02  0.15563351472E+02  0.18540839626E+03  0.12497212441E+03 0.  0.
          2    1    1    2  501    0 -0.35954106839E+02  0.39717939895E+02 -0.38159036998E+03  0.38533287299E+03  0.00000000000E+00 0. -1.
          1    1    1    2  502    0 -0.80448190862E+02  0.30755663007E+02  0.14725751983E+04  0.14750917046E+04  0.00000000000E+00 0. -1.
         22    1    3    3    0    0  0.47421903383E+02  0.29471256719E+02  0.29543309909E+02  0.63168022396E+02  0.00000000000E+00 0.  1.
         22    1    3    3    0    0  0.68980394318E+02 -0.99944859622E+02 -0.13979958437E+02  0.12224037387E+03  0.00000000000E+00 0.  1.
</event>
<event>
 7    1  0.6146596E-006  0.8856375E+02  0.7818608E-02  0.1466630E+00
          2   -1    0    0  502    0  0.00000000000E+00  0.00000000000E+00  0.94794490865E+03  0.94794490865E+03  0.00000000000E+00 0. -1.
          1   -1    0    0  501    0 -0.00000000000E+00 -0.00000000000E+00 -0.12981357192E+04  0.12981357192E+04  0.00000000000E+00 0. -1.
         25    2    1    2    0    0 -0.46321576479E+02  0.66064178063E+02  0.84440997269E+02  0.17107361201E+03  0.12500293851E+03 0.  0.
          2    1    1    2  501    0 -0.22344330882E+02 -0.91954171489E+01 -0.12522795855E+04  0.12525126687E+04  0.00000000000E+00 0. -1.
          1    1    1    2  502    0  0.68665907361E+02 -0.56868760914E+02  0.81764777770E+03  0.82249434720E+03  0.00000000000E+00 0. -1.
         22    1    3    3    0    0  0.31789692930E+02  0.44110380496E+02  0.70040509749E+02  0.88667825336E+02  0.00000000000E+00 0. -1.
         22    1    3    3    0    0 -0.78111269409E+02  0.21953797567E+02  0.14400487521E+02  0.82405786672E+02  0.00000000000E+00 0. -1.
</event>
<event>
 7    1  0.6146596E-006  0.1750154E+03  0.7818608E-02  0.1241691E+00
          2   -1    0    0  502    0  0.00000000000E+00  0.00000000000E+00  0.21865203999E+04  0.21865203999E+04  0.00000000000E+00 0. -1.
          1   -1    0    0  501    0 -0.00000000000E+00 -0.00000000000E+00 -0.39239579109E+03  0.39239579109E+03  0.00000000000E+00 0. -1.
         25    2    1    2    0    0  0.37649568984E+01 -0.25080278572E+03  0.67228284281E+03  0.72835209743E+03  0.12496537470E+03 0.  0.
          2    1    1    2  501    0 -0.27208569986E+02  0.17070598518E+03 -0.34260381159E+03  0.38374237631E+03  0.00000000000E+00 0. -1.
          1    1    1    2  502    0  0.23443613088E+02  0.80096800535E+02  0.14644455776E+04  0.14668217173E+04  0.00000000000E+00 0. -1.
         22    1    3    3    0    0  0.32741688862E+02 -0.16549386595E+03  0.55730732940E+03  0.58228145880E+03  0.00000000000E+00 0.  1.
         22    1    3    3    0    0 -0.28976731963E+02 -0.85308919768E+02  0.11497551340E+03  0.14607063863E+03  0.00000000000E+00 0.  1.
</event>
<event>
 7    1  0.6146596E-006  0.1683854E+03  0.7818608E-02  0.1248634E+00
          2   -1    0    0  502    0  0.00000000000E+00  0.00000000000E+00  0.25277794559E+04  0.25277794559E+04  0.00000000000E+00 0. -1.
          1   -1    0    0  501    0 -0.00000000000E+00 -0.00000000000E+00 -0.87479013089E+03  0.87479013089E+03  0.00000000000E+00 0. -1.
         25    2    1    2    0    0 -0.25574117484E+02  0.20322420354E+03  0.55203668406E+03  0.60193346990E+03  0.12500115699E+03 0.  0.
          2    1    1    2  501    0  0.68063056828E+02 -0.43704026018E+02 -0.84441324288E+03  0.84827846038E+03  0.00000000000E+00 0. -1.
          1    1    1    2  502    0 -0.42488939344E+02 -0.15952017752E+03  0.19453658838E+04  0.19523576565E+04  0.00000000000E+00 0. -1.
         22    1    3    3    0    0  0.13179701739E+02  0.19980340567E+03  0.44262080346E+03  0.48580683518E+03  0.00000000000E+00 0. -1.
         22    1    3    3    0    0 -0.38753819223E+02  0.34207978618E+01  0.10941588060E+03  0.11612663472E+03  0.00000000000E+00 0. -1.
</event>
<event>
 7    1  0.6146596E-006  0.8707047E+02  0.7818608E-02  0.1401113E+00
          2   -1    0    0  502    0  0.00000000000E+00  0.00000000000E+00  0.83665750137E+03  0.83665750137E+03  0.00000000000E+00 0. -1.
          1   -1    0    0  501    0 -0.00000000000E+00 -0.00000000000E+00 -0.39915813422E+03  0.39915813422E+03  0.00000000000E+00 0. -1.
         25    2    1    2    0    0 -0.12627141725E+03 -0.10962907673E+02  0.71492459255E+03  0.73675419329E+03  0.12499964855E+03 0.  0.
          2    1    1    2  501    0  0.86745343669E+02  0.31816094294E+01 -0.37951261723E+03  0.38931311809E+03  0.00000000000E+00 0. -1.
          1    1    1    2  502    0  0.39526073580E+02  0.77812982440E+01  0.10208739182E+03  0.10974832420E+03  0.00000000000E+00 0. -1.
         22    1    3    3    0    0 -0.25331806821E+02 -0.10086561335E+02  0.48355474149E+03  0.48432285428E+03  0.00000000000E+00 0. -1.
         22    1    3    3    0    0 -0.10093961043E+03 -0.87634633844E+00  0.23136985106E+03  0.25243133902E+03  0.00000000000E+00 0. -1.
</event>
<event>
 7    1  0.6146596E-006  0.9239369E+02  0.7818608E-02  0.1352452E+00
          2   -1    0    0  502    0  0.00000000000E+00  0.00000000000E+00  0.14434175069E+04  0.14434175069E+04  0.00000000000E+00 0. -1.
          1   -1    0    0  501    0 -0.00000000000E+00 -0.00000000000E+00 -0.12333935192E+03  0.12333935192E+03  0.00000000000E+00 0. -1.
         25    2    1    2    0    0  0.36288475564E+02 -0.27949100052E+02  0.70526371556E+03  0.71771775225E+03  0.12499543090E+03 0.  0.
          2    1    1    2  501    0 -0.40993783529E+02  0.84324303231E+02 -0.97042279675E+02  0.13493806893E+03  0.00000000000E+00 0. -1.
          1    1    1    2  502    0  0.47053079644E+01 -0.56375203179E+02  0.71185671908E+03  0.71410103764E+03  0.00000000000E+00 0. -1.
         22    1    3    3    0    0 -0.36757507127E+02 -0.44777566683E+02  0.28661121202E+03  0.29240747539E+03  0.00000000000E+00 0.  1.
         22    1    3    3    0    0  0.73045982691E+02  0.16828466631E+02  0.41865250355E+03  0.42531027686E+03  0.00000000000E+00 0.  1.
</event>
<event>
 7    1  0.6146596E-006  0.7418466E+02  0.7818608E-02  0.1458437E+00
          2   -1    0    0  502    0  0.00000000000E+00  0.00000000000E+00  0.82562417527E+03  0.82562417527E+03  0.00000000000E+00 0. -1.
          1   -1    0    0  501    0 -0.00000000000E+00 -0.00000000000E+00 -0.52657081561E+02  0.52657081561E+02  0.00000000000E+00 0. -1.
         25    2    1    2    0    0 -0.55945177852E+02 -0.17534591656E+02  0.16337600564E+03  0.21390036796E+03  0.12499729343E+03 0.  0.
          2    1    1    2  501    0 -0.29200028175E+01 -0.30468653419E+02 -0.15764404263E+02  0.34429372626E+02  0.00000000000E+00 0. -1.
          1    1    1    2  502    0  0.58865180670E+02  0.48003245076E+02  0.62535549233E+03  0.62995151624E+03  0.00000000000E+00 0. -1.
         22    1    3    3    0    0 -0.20036801894E+02 -0.60325994555E+02  0.13920868158E+03  0.15303514654E+03  0.00000000000E+00 0.  1.
         22    1    3    3    0    0 -0.35908375958E+02  0.42791402899E+02  0.24167324058E+02  0.60865221417E+02  0.00000000000E+00 0.  1.
</event>
<event>
 7    1  0.6146596E-006  0.2324258E+03  0.7818608E-02  0.1193060E+00
          2   -1    0    0  502    0  0.00000000000E+00  0.00000000000E+00  0.42363581630E+03  0.42363581630E+03  0.00000000000E+00 0. -1.
          1   -1    0    0  501    0 -0.00000000000E+00 -0.00000000000E+00 -0.15101016460E+04  0.15101016460E+04  0.00000000000E+00 0. -1.
         25    2    1    2    0    0 -0.72840914763E+02 -0.15473294039E+03 -0.33573468711E+03  0.39697702822E+03  0.12499959641E+03 0.  0.
          2    1    1    2  501    0  0.57738541889E+02  0.25860821180E+03 -0.11210048852E+04  0.11518957848E+04  0.00000000000E+00 0. -1.
          1    1    1    2  502    0  0.15102372874E+02 -0.10387527141E+03  0.37027374268E+03  0.38486464919E+03  0.00000000000E+00 0. -1.
         22    1    3    3    0    0 -0.10298272273E+03 -0.94746575132E+02 -0.18496290528E+03  0.23193454036E+03  0.00000000000E+00 0. -1.
         22    1    3    3    0    0  0.30141807969E+02 -0.59986365256E+02 -0.15077178183E+03  0.16504248787E+03  0.00000000000E+00 0. -1.
</event>
<event>
 7    1  0.6146596E-006  0.6446115E+02  0.7818608E-02  0.1399447E+00
          2   -1    0    0  502    0  0.00000000000E+00  0.00000000000E+00  0.38124495632E+03  0.38124495632E+03  0.00000000000E+00 0. -1.
          1   -1    0    0  501    0 -0.00000000000E+00 -0.00000000000E+00 -0.53896766303E+03  0.53896766303E+03  0.00000000000E+00 0. -1.
         25    2    1    2    0    0 -0.19430843258E+02 -0.54555726385E+01 -0.12762873052E+03  0.17977547689E+03  0.12499123288E+03 0.  0.
          2    1    1    2  501    0  0.66363933344E+02 -0.23480792679E+02 -0.37987228924E+03  0.38633984444E+03  0.00000000000E+00 0. -1.
          1    1    1    2  502    0 -0.46933090086E+02  0.28936365318E+02  0.34977831305E+03  0.35409729801E+03  0.00000000000E+00 0. -1.
         22    1    3    3    0    0  0.31377947874E+01  0.39426273692E+02  0.31535687852E+01  0.39676464176E+02  0.00000000000E+00 0. -1.
         22    1    3    3    0    0 -0.22568638045E+02 -0.44881846331E+02 -0.13078229930E+03  0.14009901271E+03  0.00000000000E+00 0. -1.
</event>
<event>
 7    1  0.6146596E-006  0.1173372E+03  0.7818608E-02  0.1298873E+00
          2   -1    0    0  502    0  0.00000000000E+00  0.00000000000E+00  0.57400623246E+02  0.57400623246E+02  0.00000000000E+00 0. -1.
          1   -1    0    0  501    0 -0.00000000000E+00 -0.00000000000E+00 -0.13154069391E+04  0.13154069391E+04  0.00000000000E+00 0. -1.
         25    2    1    2    0    0  0.34962177535E+02 -0.69880482554E+02 -0.35026759077E+03  0.38002446071E+03  0.12500227955E+03 0.  0.
          2    1    1    2  501    0  0.71334749810E+02 -0.62392144112E+01 -0.84453655562E+03  0.84756685170E+03  0.00000000000E+00 0. -1.
          1    1    1    2  502    0 -0.10629692735E+03  0.76119696965E+02 -0.63202169520E+02  0.14521624999E+03  0.00000000000E+00 0. -1.
         22    1    3    3    0    0  0.18979035138E+02 -0.10439107697E+03 -0.28956280597E+03  0.30838988201E+03  0.00000000000E+00 0.  1.
         22    1    3    3    0    0  0.15983142398E+02  0.34510594413E+02 -0.60704784797E+02  0.71634578695E+02  0.00000000000E+00 0.  1.
</event>
<event>
 7    1  0.6146596E-006  0.3895787E+02  0.7818608E-02  0.1579011E+00
          2   -1    0    0  502    0  0.00000000000E+00  0.00000000000E+00  0.88094490773E+03  0.88094490773E+03  0.00000000000E+00 0. -1.
          1   -1    0    0  501    0 -0.00000000000E+00 -0.00000000000E+00 -0.17420023948E+03  0.17420023948E+03  0.00000000000E+00 0. -1.
         25    2    1    2    0    0 -0.50383813443E+02  0.32030887802E+02  0.88791037696E+02  0.16453863401E+03  0.12499842910E+03 0.  0.
          2    1    1    2  501    0  0.12835716440E+02 -0.22560278205E+02 -0.13458858671E+03  0.13706863041E+03  0.00000000000E+00 0. -1.
          1    1    1    2  502    0  0.37548097003E+02 -0.94706095962E+01  0.75254221726E+03  0.75353788279E+03  0.00000000000E+00 0. -1.
         22    1    3    3    0    0 -0.35501593467E+02 -0.20307155969E+02 -0.17999456105E+02  0.44684719338E+02  0.00000000000E+00 0. -1.
         22    1    3    3    0    0 -0.14882219977E+02  0.52338043770E+02  0.10679049380E+03  0.11985391468E+03  0.00000000000E+00 0. -1.
</event>
<event>
 7    1  0.6146596E-006  0.5766835E+02  0.7818608E-02  0.1444128E+00
          2   -1    0    0  502    0  0.00000000000E+00  0.00000000000E+00  0.34545336448E+04  0.34545336448E+04  0.00000000000E+00 0. -1.
          1   -1    0    0  501    0 -0.00000000000E+00 -0.00000000000E+00 -0.13485964364E+03  0.13485964364E+03  0.00000000000E+00 0. -1.
         25    2    1    2    0    0  0.61130819669E+02  0.48789784520E+02  0.24768413564E+04  0.24812266167E+04  0.12499999438E+03 0.  0.
          2    1    1    2  501    0 -0.17806154987E+02 -0.54830100297E+02 -0.12588738325E+03  0.13845949702E+03  0.00000000000E+00 0. -1.
          1    1    1    2  502    0 -0.43324664683E+02  0.60403157773E+01  0.96872002808E+03  0.96970717477E+03  0.00000000000E+00 0. -1.
         22    1    3    3    0    0 -0.21118563735E+02  0.23815590266E+02  0.15695029966E+04  0.15698257332E+04  0.00000000000E+00 0. -1.
         22    1    3    3    0    0  0.82249383405E+02  0.24974194254E+02  0.90733835972E+03  0.91140088351E+03  0.00000000000E+00 0. -1.
</event>
<event>
 7    1  0.6146596E-006  0.6329952E+02  0.7818608E-02  0.1452332E+00
          2   -1    0    0  502    0  0.00000000000E+00  0.00000000000E+00  0.88885346609E+03  0.88885346609E+03  0.00000000000E+00 0. -1.
          1   -1    0    0  501    0 -0.00000000000E+00 -0.00000000000E+00 -0.17135724590E+03  0.17135724590E+03  0.00000000000E+00 0. -1.
         25    2    1    2    0    0 -0.56842984475E+02 -0.38818929084E+02  0.18385688382E+03  0.23273741788E+03  0.12500127125E+03 0.  0.
          2    1    1    2  501    0  0.24848771479E+02  0.58396883194E+02 -0.13951680166E+03  0.15327294398E+03  0.00000000000E+00 0. -1.
          1    1    1    2  502    0  0.31994212996E+02 -0.19577954110E+02  0.67315613803E+03  0.67420035013E+03  0.00000000000E+00 0. -1.
         22    1    3    3    0    0  0.60677754017E+01 -0.66773263308E+01 -0.17313322855E+02  0.19523210123E+02  0.00000000000E+00 0. -1.
         22    1    3    3    0    0 -0.62910759877E+02 -0.32141602753E+02  0.20117020667E+03  0.21321420776E+03  0.00000000000E+00 0. -1.
</event>
<event>
 7    1  0.6146596E-006  0.7604952E+02  0.7818608E-02  0.1397364E+00
          2   -1    0    0  502    0  0.00000000000E+00  0.00000000000E+00  0.12574177875E+04  0.12574177875E+04  0.00000000000E+00 0. -1.
          1   -1    0    0  501    0 -0.00000000000E+00 -0.00000000000E+00 -0.26555466231E+03  0.26555466231E+03  0.00000000000E+00 0. -1.
         25    2    1    2    0    0 -0.55229630373E+02  0.54324633179E+02  0.11185678518E+03  0.18476933988E+03  0.12500516280E+03 0.  0.
          2    1    1    2  501    0 -0.20428132144E+02 -0.42898227447E+02 -0.22529790965E+03  0.23025358758E+03  0.00000000000E+00 0. -1.
          1    1    1    2  502    0  0.75657762517E+02 -0.11426405732E+02  0.11053042496E+04  0.11079495223E+04  0.00000000000E+00 0. -1.
         22    1    3    3    0    0 -0.53021938543E+02  0.90663058744E+02  0.10341774518E+03  0.14739859635E+03  0.00000000000E+00 0. -1.
         22    1    3    3    0    0 -0.22076918298E+01 -0.36338425565E+02  0.84390400024E+01  0.37370743529E+02  0.00000000000E+00 0. -1.
</event>
<event>
 7    1  0.6146596E-006  0.8672811E+02  0.7818608E-02  0.1321362E+00
          2   -1    0    0  502    0  0.00000000000E+00  0.00000000000E+00  0.56547202083E+02  0.56547202083E+02  0.00000000000E+00 0. -1.
          1   -1    0    0  501    0 -0.00000000000E+00 -0.00000000000E+00 -0.10629992662E+04  0.10629992662E+04  0.00000000000E+00 0. -1.
         25    2    1    2    0    0 -0.43832676736E+00  0.28762230135E+02 -0.12717987442E+03  0.18062938960E+03  0.12499919166E+03 0.  0.
          2    1    1    2  501    0  0.74550821048E+02 -0.56111830867E+02 -0.84932231870E+03  0.85443242186E+03  0.00000000000E+00 0. -1.
          1    1    1    2  502    0 -0.74112494281E+02  0.27349600732E+02 -0.29949871012E+02  0.84484656846E+02  0.00000000000E+00 0. -1.
         22    1    3    3    0    0  0.79437193776E+01  0.15484444752E+02  0.23439442093E+02  0.29193803323E+02  0.00000000000E+00 0.  1.
         22    1    3    3    0    0 -0.83820461450E+01  0.13277785383E+02 -0.15061931652E+03  0.15143558627E+03  0.00000000000E+00 0.  1.
</event>
<event>
 7    1  0.6146596E-006  0.1021352E+03  0.7818608E-02  0.1462309E+00
          2   -1    0    0  502    0  0.00000000000E+00  0.00000000000E+00  0.32579998037E+03  0.32579998037E+03  0.00000000000E+00 0. -1.
          1   -1    0    0  501    0 -0.00000000000E+00 -0.00000000000E+00 -0.11548769925E+04  0.11548769925E+04  0.00000000000E+00 0. -1.
         25    2    1    2    0    0 -0.21928491086E+02  0.10413150510E+03 -0.36534146284E+03  0.40052410443E+03  0.12498377768E+03 0.  0.
          2    1    1    2  501    0  0.40585491895E+02 -0.93215898807E+02 -0.76821187397E+03  0.77491023303E+03  0.00000000000E+00 0. -1.
          1    1    1    2  502    0 -0.18657000809E+02 -0.10915606297E+02  0.30447632472E+03  0.30524263538E+03  0.00000000000E+00 0. -1.
         22    1    3    3    0    0 -0.41246044637E+02 -0.12503968745E+01 -0.38002465154E+02  0.56098012873E+02  0.00000000000E+00 0.  1.
         22    1    3    3    0    0  0.19317553551E+02  0.10538190198E+03 -0.32733899768E+03  0.34442609156E+03  0.00000000000E+00 0.  1.
</event>
<event>
 7    1  0.6146596E-006  0.6645584E+02  0.7818608E-02  0.1465147E+00
          2   -1    0    0  502    0  0.00000000000E+00  0.00000000000E+00  0.16238127523E+04  0.16238127523E+04  0.00000000000E+00 0. -1.
          1   -1    0    0  501    0 -0.00000000000E+00 -0.00000000000E+00 -0.34077711153E+04  0.34077711153E+04  0.00000000000E+00 0. -1.
         25    2    1    2    0    0  0.63437195982E+02  0.67146433150E+02 -0.13372522635E+03  0.20503976823E+03  0.12500379623E+03 0.  0.
          2    1    1    2  501    0 -0.55934384877E+02 -0.35476571498E+02 -0.32378831290E+04  0.32385605444E+04  0.00000000000E+00 0. -1.
          1    1    1    2  502    0 -0.75028111042E+01 -0.31669861652E+02  0.15876499924E+04  0.15879835549E+04  0.00000000000E+00 0. -1.
         22    1    3    3    0    0  0.30396032234E+02  0.59831610202E+02 -0.11279043282E-01  0.67109913441E+02  0.00000000000E+00 0. -1.
         22    1    3    3    0    0  0.33041163747E+02  0.73148229488E+01 -0.13371394731E+03  0.13792985478E+03  0.00000000000E+00 0. -1.
</event>
<event>
 7    1  0.6146596E-006  0.5885258E+02  0.7818608E-02  0.1476516E+00
          2   -1    0    0  502    0  0.00000000000E+00  0.00000000000E+00  0.31282934134E+03  0.31282934134E+03  0.00000000000E+00 0. -1.
          1   -1    0    0  501    0 -0.00000000000E+00 -0.00000000000E+00 -0.37306423223E+03  0.37306423223E+03  0.00000000000E+00 0. -1.
         25    2    1    2    0    0  0.54440146644E+02 -0.53344168613E+02  0.25167688050E+03  0.29116099626E+03  0.12499657464E+03 0.  0.
          2    1    1    2  501    0 -0.31943601428E+02  0.11290361859E+02 -0.33845795454E+03  0.34014945676E+03  0.00000000000E+00 0. -1.
          1    1    1    2  502    0 -0.22496545216E+02  0.42053806754E+02  0.26546183144E+02  0.54583120547E+02  0.00000000000E+00 0. -1.
         22    1    3    3    0    0 -0.34317808897E+02 -0.27082310166E+02  0.36611053322E+02  0.57022212837E+02  0.00000000000E+00 0.  1.
         22    1    3    3    0    0  0.88757955542E+02 -0.26261858446E+02  0.21506582718E+03  0.23413878342E+03  0.00000000000E+00 0.  1.
</event>
<event>
 7    1  0.6146596E-006  0.8052066E+02  0.7818608E-02  0.1341471E+00
          2   -1    0    0  502    0  0.00000000000E+00  0.00000000000E+00  0.81153033013E+03  0.81153033013E+03  0.00000000000E+00 0. -1.
          1   -1    0    0  501    0 -0.00000000000E+00 -0.00000000000E+00 -0.19400151071E+04  0.19400151071E+04  0.00000000000E+00 0. -1.
         25    2    1    2    0    0  0.46288338291E+02  0.24632107325E+02  0.66074286604E+01  0.13571392473E+03  0.12500104111E+03 0.  0.
          2    1    1    2  501    0 -0.68853378535E+02  0.43023705358E+02 -0.18728627652E+04  0.18746217657E+04  0.00000000000E+00 0. -1.
          1    1    1    2  502    0  0.22565040244E+02 -0.67655812683E+02  0.73777055965E+03  0.74120974677E+03  0.00000000000E+00 0. -1.
         22    1    3    3    0    0  0.16034364790E+02  0.41932288654E+02 -0.51274031503E+02  0.68150157686E+02  0.00000000000E+00 0. -1.
         22    1    3    3    0    0  0.30253973501E+02 -0.17300181329E+02  0.57881460164E+02  0.67563767045E+02  0.00000000000E+00 0. -1.
</event>
<event>
 7    1  0.6146596E-006  0.4881549E+02  0.7818608E-02  0.1462177E+00
          2   -1    0    0  502    0  0.00000000000E+00  0.00000000000E+00  0.21745689255E+03  0.21745689255E+03  0.00000000000E+00 0. -1.
          1   -1    0    0  501    0 -0.00000000000E+00 -0.00000000000E+00 -0.15476270017E+03  0.15476270017E+03  0.00000000000E+00 0. -1.
         25    2    1    2    0    0 -0.72519397112E+02  0.47610485612E+02  0.14099053476E+02  0.15280653683E+03  0.12500093236E+03 0.  0.
          2    1    1    2  501    0  0.27194000063E+02 -0.36190685231E+02 -0.74816690974E+02  0.87446078158E+02  0.00000000000E+00 0. -1.
          1    1    1    2  502    0  0.45325397048E+02 -0.11419800381E+02  0.12341182988E+03  0.13196697774E+03  0.00000000000E+00 0. -1.
         22    1    3    3    0    0 -0.27394754545E+02 -0.41584394449E+02  0.17517717085E+02  0.52788302210E+02  0.00000000000E+00 0.  1.
         22    1    3    3    0    0 -0.45124642566E+02  0.89194880061E+02 -0.34186636085E+01  0.10001823462E+03  0.00000000000E+00 0.  1.
</event>
<event>
 7    1  0.6146596E-006  0.3672426E+02  0.7818608E-02  0.1536180E+00
          2   -1    0    0  502    0  0.00000000000E+00  0.00000000000E+00  0.19261780592E+04  0.19261780592E+04  0.00000000000E+00 0. -1.
          1   -1    0    0  501    0 -0.00000000000E+00 -0.00000000000E+00 -0.59968768076E+03  0.59968768076E+03  0.00000000000E+00 0. -1.
         25    2    1    2    0    0 -0.36345888623E+01 -0.68506522643E+02  0.10010736447E+03  0.17421750946E+03  0.12499560913E+03 0.  0.
          2    1    1    2  501    0  0.13931608769E+02  0.33847526155E+02 -0.56185437153E+03  0.56304536190E+03  0.00000000000E+00 0. -1.
          1    1    1    2  502    0 -0.10297019906E+02  0.34658996489E+02  0.17882373855E+04  0.17886028686E+04  0.00000000000E+00 0. -1.
         22    1    3    3    0    0 -0.46361381299E+02  0.11894340079E+02  0.54004448940E+02  0.72161856317E+02  0.00000000000E+00 0.  1.
         22    1    3    3    0    0  0.42726792436E+02 -0.80400862722E+02  0.46102915529E+02  0.10205565314E+03  0.00000000000E+00 0.  1.
</event>
<event>
 7    1  0.6146596E-006  0.9192218E+02  0.7818608E-02  0.1366902E+00
          2   -1    0    0  502    0  0.00000000000E+00  0.00000000000E+00  0.50844808235E+03  0.50844808235E+03  0.00000000000E+00 0. -1.
          1   -1    0    0  501    0 -0.00000000000E+00 -0.00000000000E+00 -0.74879417151E+03  0.74879417151E+03  0.00000000000E+00 0. -1.
         25    2    1    2    0    0 -0.59570509630E+02  0.12563864101E+03  0.14089701435E+03  0.23411641206E+03  0.12499924804E+03 0.  0.
          2    1    1    2  501    0  0.50147050476E+02 -0.76171685771E+02 -0.69722126240E+03  0.70316025281E+03  0.00000000000E+00 0. -1.
          1    1    1    2  502    0  0.94234591541E+01 -0.49466955237E+02  0.31597815889E+03  0.31996558899E+03  0.00000000000E+00 0. -1.
         22    1    3    3    0    0 -0.80188556063E+01  0.11288699960E+03  0.14126839879E+03  0.18100977107E+03  0.00000000000E+00 0. -1.
         22    1    3    3    0    0 -0.51551654024E+02  0.12751641409E+02 -0.37138444303E+00  0.53106640994E+02  0.00000000000E+00 0. -1.
</event>
<event>
 7    1  0.6146596E-006  0.5009255E+02  0.7818608E-02  0.1477328E+00
          2   -1    0    0  502    0  0.00000000000E+00  0.00000000000E+00  0.13627985038E+04  0.13627985038E+04  0.00000000000E+00 0. -1.
          1   -1    0    0  501    0 -0.00000000000E+00 -0.00000000000E+00 -0.45736405299E+02  0.45736405299E+02  0.00000000000E+00 0. -1.
         25    2    1    2    0    0  0.23875870045E+02 -0.24421925437E+00  0.15651620852E+03  0.20172259468E+03  0.12499825943E+03 0.  0.
          2    1    1    2  501    0  0.92012705806E+01 -0.38491949385E+02 -0.52332187734E+01  0.39920923417E+02  0.00000000000E+00 0. -1.
          1    1    1    2  502    0 -0.33077140626E+02  0.38736168639E+02  0.11657791088E+04  0.11668913910E+04  0.00000000000E+00 0. -1.
         22    1    3    3    0    0  0.72986149459E+00 -0.61408631459E+02  0.84267468779E+02  0.10427156376E+03  0.00000000000E+00 0.  1.
         22    1    3    3    0    0  0.23146008550E+02  0.61164412204E+02  0.72248739743E+02  0.97451030915E+02  0.00000000000E+00 0.  1.
</event>
<event>
 7    1  0.6146596E-006  0.1702582E+03  0.7818608E-02  0.1224053E+00
          2   -1    0    0  502    0  0.00000000000E+00  0.00000000000E+00  0.88943266071E+03  0.88943266071E+03  0.00000000000E+00 0. -1.
          1   -1    0    0  501    0 -0.00000000000E+00 -0.00000000000E+00 -0.20259094955E+04  0.20259094955E+04  0.00000000000E+00 0. -1.
         25    2    1    2    0    0 -0.20177925755E+03 -0.16118480367E+03 -0.25819261521E+03  0.38598301207E+03  0.12499619732E+03 0.  0.
          2    1    1    2  501    0  0.98876653988E+02  0.28258640141E+02 -0.16936884081E+04  0.16968074632E+04  0.00000000000E+00 0. -1.
          1    1    1    2  502    0  0.10290260356E+03  0.13292616353E+03  0.81540418853E+03  0.83255168094E+03  0.00000000000E+00 0. -1.
         22    1    3    3    0    0 -0.14088547255E+03 -0.17471224939E+03 -0.19787287715E+03  0.29921023040E+03  0.00000000000E+00 0. -1.
         22    1    3    3    0    0 -0.60893784999E+02  0.13527445721E+02 -0.60319738058E+02  0.86772781669E+02  0.00000000000E+00 0. -1.
</event>
<event>
 7    1  0.6146596E-006  0.1235929E+03  0.7818608E-02  0.1316925E+00
          2   -1    0    0  502    0  0.00000000000E+00  0.00000000000E+00  0.77473935825E+02  0.77473935825E+02  0.00000000000E+00 0. -1.
          1   -1    0    0  501    0 -0.00000000000E+00 -0.00000000000E+00 -0.60800933518E+03  0.60800933518E+03  0.00000000000E+00 0. -1.
         25    2    1    2    0    0  0.15144337032E+03 -0.71063404408E+02 -0.29776198512E+03  0.36369294340E+03  0.12500102172E+03 0.  0.
          2    1    1    2  501    0 -0.42776104985E+02  0.38692051110E+02 -0.19331175501E+03  0.20173325111E+03  0.00000000000E+00 0. -1.
          1    1    1    2  502    0 -0.10866726534E+03  0.32371353298E+02 -0.39461659220E+02  0.12005707650E+03  0.00000000000E+00 0. -1.
         22    1    3    3    0    0  0.16593216840E+02 -0.65427533630E+02 -0.60084429493E+02  0.90367226744E+02  0.00000000000E+00 0.  1.
         22    1    3    3    0    0  0.13485015348E+03 -0.56358707780E+01 -0.23767755563E+03  0.27332571665E+03  0.00000000000E+00 0.  1.
</event>
<event>
 7    1  0.6146596E-006  0.6362802E+02  0.7818608E-02  0.1497191E+00
          2   -1    0    0  502    0  0.00000000000E+00  0.00000000000E+00  0.73739219042E+02  0.73739219042E+02  0.00000000000E+00 0. -1.
          1   -1    0    0  501    0 -0.00000000000E+00 -0.00000000000E+00 -0.97138011711E+03  0.97138011711E+03  0.00000000000E+00 0. -1.
         25    2    1    2    0    0  0.70245112369E+02 -0.43441131806E+02 -0.45418715406E+02  0.15655719118E+03  0.12500314658E+03 0.  0.
          2    1    1    2  501    0 -0.23953734068E+02  0.12709814337E+02 -0.82716602655E+03  0.82761038916E+03  0.00000000000E+00 0. -1.
          1    1    1    2  502    0 -0.46291378301E+02  0.30731317469E+02 -0.25056156105E+02  0.60951755817E+02  0.00000000000E+00 0. -1.
         22    1    3    3    0    0  0.11855834559E+02 -0.55790520205E+02 -0.71469251970E+02  0.91438487164E+02  0.00000000000E+00 0. -1.
         22    1    3    3    0    0  0.58389277810E+02  0.12349388399E+02  0.26050536563E+02  0.65118704012E+02  0.00000000000E+00 0. -1.
</event>
<event>
 7    1  0.6146596E-006  0.3737698E+02  0.7818608E-02  0.1543809E+00
          2   -1    0    0  502    0  0.00000000000E+00  0.00000000000E+00  0.23872241443E+04  0.23872241443E+04  0.00000000000E+00 0. -1.
          1   -1    0    0  501    0 -0.00000000000E+00 -0.00000000000E+00 -0.89641380497E+03  0.89641380497E+03  0.00000000000E+00 0. -1.
         25    2    1    2    0    0 -0.32829030773E+02 -0.17953231686E+01  0.51035787388E+03  0.52647038002E+03  0.12499973265E+03 0.  0.
          2    1    1    2  501    0  0.18579643953E+02  0.32449074234E+02 -0.88781112401E+03  0.88859818676E+03  0.00000000000E+00 0. -1.
          1    1    1    2  502    0  0.14249386821E+02 -0.30653751066E+02  0.18682635895E+04  0.18685693825E+04  0.00000000000E+00 0. -1.
         22    1    3    3    0    0 -0.71269162475E+02 -0.27368590413E+02  0.39321084371E+03  0.40055349314E+03  0.00000000000E+00 0.  1.
         22    1    3    3    0    0  0.38440131701E+02  0.25573267244E+02  0.11714703017E+03  0.12591688688E+03  0.00000000000E+00 0.  1.
</event>
<event>
 7    1  0.6146596E-006  0.3164151E+02  0.7818608E-02  0.1631884E+00
          2   -1    0    0  502    0  0.00000000000E+00  0.00000000000E+00  0.31848724814E+04  0.31848724814E+04  0.00000000000E+00 0. -1.
          1   -1    0    0  501    0 -0.00000000000E+00 -0.00000000000E+00 -0.78207721412E+02  0.78207721412E+02  0.00000000000E+00 0. -1.
         25    2    1    2    0    0  0.31431508274E+02 -0.44187165663E+02  0.10282911734E+04  0.10372795795E+04  0.12500297365E+03 0.  0.
          2    1    1    2  501    0 -0.15103086758E+02  0.17742080758E+02 -0.71757202903E+02  0.75445217395E+02  0.00000000000E+00 0. -1.
          1    1    1    2  502    0 -0.16328421516E+02  0.26445084905E+02  0.21501307894E+04  0.21503554059E+04  0.00000000000E+00 0. -1.
         22    1    3    3    0    0  0.43965929255E+00  0.43222098184E+02  0.35935102077E+03  0.36194129247E+03  0.00000000000E+00 0. -1.
         22    1    3    3    0    0  0.30991848982E+02 -0.87409263847E+02  0.66894015267E+03  0.67533828705E+03  0.00000000000E+00 0. -1.
</event>
<event>
 7    1  0.6146596E-006  0.6383381E+02  0.7818608E-02  0.1411796E+00
          2   -1    0    0  502    0  0.00000000000E+00  0.00000000000E+00  0.89411638694E+02  0.89411638694E+02  0.00000000000E+00 0. -1.
          1   -1    0    0  501    0 -0.00000000000E+00 -0.00000000000E+00 -0.30976663000E+03  0.30976663000E+03  0.00000000000E+00 0. -1.
         25    2    1    2    0    0 -0.57680527920E+01 -0.38191325196E+02  0.31788233066E+01  0.13087158166E+03  0.12500167285E+03 0.  0.
          2    1    1    2  501    0 -0.43078531404E+02  0.51135188465E+02 -0.20305886919E+03  0.21378370313E+03  0.00000000000E+00 0. -1.
          1    1    1    2  502    0  0.48846584196E+02 -0.12943863269E+02 -0.20474945420E+02  0.54522983905E+02  0.00000000000E+00 0. -1.
         22    1    3    3    0    0 -0.34658608210E+02 -0.10396211271E+02  0.54703186797E+02  0.65587643483E+02  0.00000000000E+00 0. -1.
         22    1    3    3    0    0  0.28890555418E+02 -0.27795113925E+02 -0.51524363491E+02  0.65283938175E+02  0.00000000000E+00 0. -1.
</event>
<event>
 7    1  0.6146596E-006  0.9629215E+02  0.7818608E-02  0.1384335E+00
          2   -1    0    0  502    0  0.00000000000E+00  0.00000000000E+00  0.14867573165E+04  0.14867573165E+04  0.00000000000E+00 0. -1.
          1   -1    0    0  501    0 -0.00000000000E+00 -0.00000000000E+00 -0.54833197899E+02  0.54833197899E+02  0.00000000000E+00 0. -1.
         25    2    1    2    0    0 -0.79716436605E+02 -0.10500336177E+03  0.13453727842E+03  0.22606599773E+03  0.12500055919E+03 0.  0.
          2    1    1    2  501    0  0.36218006424E+02  0.20589781714E+02  0.52504103033E+02  0.67025099296E+02  0.00000000000E+00 0. -1.
          1    1    1    2  502    0  0.43498430181E+02  0.84413580055E+02  0.12448827372E+04  0.12484994174E+04  0.00000000000E+00 0. -1.
         22    1    3    3    0    0 -0.43556566988E+02 -0.78647432230E+02  0.15316246893E+03  0.17759880353E+03  0.00000000000E+00 0.  1.
         22    1    3    3    0    0 -0.36159869617E+02 -0.26355929539E+02 -0.18625190513E+02  0.48467194206E+02  0.00000000000E+00 0.  1.
</event>
<event>
 7    1  0.6146596E-006  0.1793485E+03  0.7818608E-02  0.1263140E+00
          2   -1    0    0  502    0  0.00000000000E+00  0.00000000000E+00  0.15110525847E+04  0.15110525847E+04  0.00000000000E+00 0. -1.
          1   -1    0    0  501    0 -0.00000000000E+00 -0.00000000000E+00 -0.40616210832E+02  0.40616210832E+02  0.00000000000E+00 0. -1.
         25    2    1    2    0    0  0.74388185757E+02  0.12735428694E+03  0.59019810034E+03  0.62105727107E+03  0.12500247888E+03 0.  0.
          2    1    1    2  501    0  0.16682141188E+01  0.65767358806E+02  0.78403764854E+02  0.10234880930E+03  0.00000000000E+00 0. -1.
          1    1    1    2  502    0 -0.76056399876E+02 -0.19312164575E+03  0.80183450871E+03  0.82826271519E+03  0.00000000000E+00 0. -1.
         22    1    3    3    0    0 -0.33334800449E+01  0.39124422306E+01  0.26026578429E+03  0.26031653379E+03  0.00000000000E+00 0. -1.
         22    1    3    3    0    0  0.77721665802E+02  0.12344184471E+03  0.32993231605E+03  0.36074073728E+03  0.00000000000E+00 0. -1.
</event>
<event>
 7    1  0.6146596E-006  0.7481530E+02  0.7818608E-02  0.1459937E+00
          2   -1    0    0  502    0  0.00000000000E+00  0.00000000000E+00  0.13409336867E+04  0.13409336867E+04  0.00000000000E+00 0. -1.
          1   -1    0    0  501    0 -0.00000000000E+00 -0.00000000000E+00 -0.96237581580E+03  0.96237581580E+03  0.00000000000E+00 0. -1.
         25    2    1    2    0    0 -0.87245727586E+02  0.24795176867E+02  0.10555464727E+04  0.10667857661E+04  0.12500758785E+03 0.  0.
          2    1    1    2  501    0  0.29622558299E+02  0.48737993355E+01 -0.95276284843E+03  0.95323569763E+03  0.00000000000E+00 0. -1.
          1    1    1    2  502    0  0.57623169287E+02 -0.29668976202E+02  0.27577424662E+03  0.28328803873E+03  0.00000000000E+00 0. -1.
         22    1    3    3    0    0 -0.86671493323E+02 -0.59684814148E+01  0.35184815478E+03  0.36241508598E+03  0.00000000000E+00 0. -1.
         22    1    3    3    0    0 -0.57423426346E+00  0.30763658281E+02  0.70369831790E+03  0.70437068013E+03  0.00000000000E+00 0. -1.
</event>
<event>
 7    1  0.6146596E-006  0.8199346E+02  0.7818608E-02  0.1425543E+00
          2   -1    0    0  502    0  0.00000000000E+00  0.00000000000E+00  0.23026020632E+04  0.23026020632E+04  0.00000000000E+00 0. -1.
          1   -1    0    0  501    0 -0.00000000000E+00 -0.00000000000E+00 -0.10522981963E+03  0.10522981963E+03  0.00000000000E+00 0. -1.
         25    2    1    2    0    0 -0.55852475703E+02 -0.13122257824E+02  0.33193247742E+03  0.35929976923E+03  0.12500184760E+03 0.  0.
          2    1    1    2  501    0 -0.27460174252E+02  0.22319233679E+02 -0.87193557806E+02  0.94100615751E+02  0.00000000000E+00 0. -1.
          1    1    1    2  502    0  0.83312649955E+02 -0.91969758544E+01  0.19526333240E+04  0.19544314979E+04  0.00000000000E+00 0. -1.
         22    1    3    3    0    0  0.32913032972E+02 -0.25731102299E+02  0.61134944315E+02  0.74046193564E+02  0.00000000000E+00 0.  1.
         22    1    3    3    0    0 -0.88765508675E+02  0.12608844475E+02  0.27079753311E+03  0.28525357566E+03  0.00000000000E+00 0.  1.
</event>
<event>
 7    1  0.6146596E-006  0.1313425E+03  0.7818608E-02  0.1335253E+00
          2   -1    0    0  502    0  0.00000000000E+00  0.00000000000E+00  0.12732196072E+03  0.12732196072E+03  0.00000000000E+00 0. -1.
          1   -1    0    0  501    0 -0.00000000000E+00 -0.00000000000E+00 -0.49667613637E+03  0.49667613637E+03  0.00000000000E+00 0. -1.
         25    2    1    2    0    0 -0.83796646754E+02  0.84773075942E+02 -0.13666420720E+03  0.22025103768E+03  0.12500024663E+03 0.  0.
          2    1    1    2  501    0  0.25036062955E+02  0.38767544296E+02 -0.26015306543E+03  0.26421458020E+03  0.00000000000E+00 0. -1.
          1    1    1    2  502    0  0.58760583799E+02 -0.12354062024E+03  0.27463096973E+02  0.13953247920E+03  0.00000000000E+00 0. -1.
         22    1    3    3    0    0 -0.75844587889E+02  0.11210665092E+03 -0.81021101240E+02  0.15774891930E+03  0.00000000000E+00 0. -1.
         22    1    3    3    0    0 -0.79520588652E+01 -0.27333574983E+02 -0.55643105962E+02  0.62502118385E+02  0.00000000000E+00 0. -1.
</event>
<event>
 7    1  0.6146596E-006  0.1002045E+03  0.7818608E-02  0.1332857E+00
          2   -1    0    0  502    0  0.00000000000E+00  0.00000000000E+00  0.19456549934E+03  0.19456549934E+03  0.00000000000E+00 0. -1.
          1   -1    0    0  501    0 -0.00000000000E+00 -0.00000000000E+00 -0.88578820999E+03  0.88578820999E+03  0.00000000000E+00 0. -1.
         25    2    1    2    0    0 -0.59268487528E+01 -0.72575831723E+02  0.59557293452E+02  0.15644180416E+03  0.12499835198E+03 0.  0.
          2    1    1    2  501    0  0.28152844723E+02 -0.54981037944E+02 -0.78703329143E+03  0.78945354456E+03  0.00000000000E+00 0. -1.
          1    1    1    2  502    0 -0.22225995970E+02  0.12755686967E+03  0.36253287325E+02  0.13445836061E+03  0.00000000000E+00 0. -1.
         22    1    3    3    0    0  0.98853872184E+01 -0.79917524459E+02  0.90367955549E+02  0.12104089799E+03  0.00000000000E+00 0. -1.
         22    1    3    3    0    0 -0.15812235971E+02  0.73416927361E+01 -0.30810662097E+02  0.35400906168E+02  0.00000000000E+00 0. -1.
</event>
<event>
 7    1  0.6146596E-006  0.1262007E+03  0.7818608E-02  0.1243439E+00
          2   -1    0    0  502    0  0.00000000000E+00  0.00000000000E+00  0.16489400784E+04  0.16489400784E+04  0.00000000000E+00 0. -1.
          1   -1    0    0  501    0 -0.00000000000E+00 -0.00000000000E+00 -0.37642430253E+03  0.37642430253E+03  0.00000000000E+00 0. -1.
         25    2    1    2    0    0  0.41941527242E+02  0.22445275557E+03  0.57955567540E+03  0.63533298365E+03  0.12500035211E+03 0.  0.
          2    1    1    2  501    0 -0.55266768790E+02 -0.11152622074E+03 -0.33418464971E+03  0.35661168481E+03  0.00000000000E+00 0. -1.
          1    1    1    2  502    0  0.13325241549E+02 -0.11292653483E+03  0.10271447502E+04  0.10334197125E+04  0.00000000000E+00 0. -1.
         22    1    3    3    0    0 -0.43916986616E+02  0.70288112473E+02  0.16039223623E+03  0.18054027227E+03  0.00000000000E+00 0.  1.
         22    1    3    3    0    0  0.85858513858E+02  0.15416464310E+03  0.41916343917E+03  0.45479271137E+03  0.00000000000E+00 0.  1.
</event>
<event>
 7    1  0.6146596E-006  0.5853573E+02  0.7818608E-02  0.1453581E+00
          2   -1    0    0  502    0  0.00000000000E+00  0.00000000000E+00  0.54237738049E+03  0.54237738049E+03  0.00000000000E+00 0. -1.
          1   -1    0    0  501    0 -0.00000000000E+00 -0.00000000000E+00 -0.67163483724E+03  0.67163483724E+03  0.00000000000E+00 0. -1.
         25    2    1    2    0    0  0.86462218520E+02 -0.25149034059E+02  0.29936361473E+03  0.33668108531E+03  0.12500956059E+03 0.  0.
          2    1    1    2  501    0 -0.58319782655E+02 -0.35454183196E+01 -0.64985487416E+03  0.65247614861E+03  0.00000000000E+00 0. -1.
          1    1    1    2  502    0 -0.28142435866E+02  0.28694452379E+02  0.22123380268E+03  0.22485498381E+03  0.00000000000E+00 0. -1.
         22    1    3    3    0    0 -0.11493675834E+02 -0.46068456049E+02  0.55444413457E+02  0.72996508208E+02  0.00000000000E+00 0.  1.
         22    1    3    3    0    0  0.97955894354E+02  0.20919421990E+02  0.24391920127E+03  0.26368457710E+03  0.00000000000E+00 0.  1.
</event>
<event>
 7    1  0.6146596E-006  0.1428612E+03  0.7818608E-02  0.1243135E+00
          2   -1    0    0  502    0  0.00000000000E+00  0.00000000000E+00  0.20323158638E+03  0.20323158638E+03  0.00000000000E+00 0. -1.
          1   -1    0    0  501    0 -0.00000000000E+00 -0.00000000000E+00 -0.85458595213E+03  0.85458595213E+03  0.00000000000E+00 0. -1.
         25    2    1    2    0    0  0.18964665360E+03 -0.14057822969E+02 -0.38717012042E+03  0.44909784336E+03  0.12499878062E+03 0.  0.
          2    1    1    2  501    0 -0.63705697075E+02  0.78062809700E+02 -0.40015394612E+03  0.41264439739E+03  0.00000000000E+00 0. -1.
          1    1    1    2  502    0 -0.12594095653E+03 -0.64004986731E+02  0.13596970079E+03  0.19607529776E+03  0.00000000000E+00 0. -1.
         22    1    3    3    0    0  0.17450750223E+03 -0.54344914084E+02 -0.28954290806E+03  0.34240521846E+03  0.00000000000E+00 0.  1.
         22    1    3    3    0    0  0.15139151370E+02  0.40287091115E+02 -0.97627212362E+02  0.10669262490E+03  0.00000000000E+00 0.  1.
</event>
<event>
 7    1  0.6146596E-006  0.1604286E+03  0.7818608E-02  0.1271522E+00
          2   -1    0    0  502    0  0.00000000000E+00  0.00000000000E+00  0.10075608896E+04  0.10075608896E+04  0.00000000000E+00 0. -1.
          1   -1    0    0  501    0 -0.00000000000E+00 -0.00000000000E+00 -0.10497050982E+04  0.10497050982E+04  0.00000000000E+00 0. -1.
         25    2    1    2    0    0  0.16952320660E+03 -0.32784165383E+02 -0.57550555351E+03  0.61371466198E+03  0.12500450044E+03 0.  0.
          2    1    1    2  501    0 -0.12682770335E+02  0.66601250016E+02 -0.44600547326E+03  0.45112909610E+03  0.00000000000E+00 0. -1.
          1    1    1    2  502    0 -0.15684043626E+03 -0.33817084634E+02  0.97936681818E+03  0.99242222980E+03  0.00000000000E+00 0. -1.
         22    1    3    3    0    0  0.20004493146E+02 -0.14166753030E+01 -0.19362000313E+01  0.20147843198E+02  0.00000000000E+00 0.  1.
         22    1    3    3    0    0  0.14951871345E+03 -0.31367490080E+02 -0.57356935348E+03  0.59356681878E+03  0.00000000000E+00 0.  1.
</event>
<event>
 7    1  0.6146596E-006  0.2669122E+03  0.7818608E-02  0.1275346E+00
          2   -1    0    0  502    0  0.00000000000E+00  0.00000000000E+00  0.13856288430E+04  0.13856288430E+04  0.00000000000E+00 0. -1.
          1   -1    0    0  501    0 -0.00000000000E+00 -0.00000000000E+00 -0.12107047454E+04  0.12107047454E+04  0.00000000000E+00 0. -1.
         25    2    1    2    0    0  0.14911141633E+03  0.17989668400E+03 -0.75857903894E+02  0.27563889825E+03  0.12500139701E+03 0.  0.
          2    1    1    2  501    0 -0.17275958030E+03 -0.21125909375E+03 -0.10166566077E+04  0.10526475836E+04  0.00000000000E+00 0. -1.
          1    1    1    2  502    0  0.23648163966E+02  0.31362409753E+02  0.12674386092E+04  0.12680471066E+04  0.00000000000E+00 0. -1.
         22    1    3    3    0    0  0.73913775169E+02  0.15319317384E+03 -0.93236478031E+02  0.19397019231E+03  0.00000000000E+00 0.  1.
         22    1    3    3    0    0  0.75197641163E+02  0.26703510163E+02  0.17378574137E+02  0.81668705944E+02  0.00000000000E+00 0.  1.
</event>
<event>
 7    1  0.6146596E-006  0.7802327E+02  0.7818608E-02  0.1439652E+00
          2   -1    0    0  502    0  0.00000000000E+00  0.00000000000E+00  0.17392660898E+04  0.17392660898E+04  0.00000000000E+00 0. -1.
          1   -1    0    0  501    0 -0.00000000000E+00 -0.00000000000E+00 -0.49177334388E+03  0.49177334388E+03  0.00000000000E+00 0. -1.
         25    2    1    2    0    0 -0.34864830563E+02  0.81349237895E+02  0.17472996769E+03  0.23235684692E+03  0.12500355109E+03 0.  0.
          2    1    1    2  501    0  0.16108916456E+01 -0.77939837154E+02 -0.45949459578E+03  0.46606061488E+03  0.00000000000E+00 0. -1.
          1    1    1    2  502    0  0.33253938917E+02 -0.34094007410E+01  0.15322573740E+04  0.15326219719E+04  0.00000000000E+00 0. -1.
         22    1    3    3    0    0  0.18256284869E+02 -0.26077073805E+02  0.24427198033E+02  0.40124727029E+02  0.00000000000E+00 0. -1.
         22    1    3    3    0    0 -0.53121115432E+02  0.10742631170E+03  0.15030276966E+03  0.19223211989E+03  0.00000000000E+00 0. -1.
</event>
<event>
 7    1  0.6146596E-006  0.4288265E+02  0.7818608E-02  0.1579558E+00
          2   -1    0    0  502    0  0.00000000000E+00  0.00000000000E+00  0.10099253295E+04  0.10099253295E+04  0.00000000000E+00 0. -1.
          1   -1    0    0  501    0 -0.00000000000E+00 -0.00000000000E+00 -0.16352442910E+03  0.16352442910E+03  0.00000000000E+00 0. -1.
         25    2    1    2    0    0  0.41285326889E+02 -0.44618953180E+02 -0.50833854442E+02  0.14799947048E+03  0.12499773321E+03 0.  0.
          2    1    1    2  501    0 -0.22708774793E+02  0.60501251501E+01 -0.61460170379E+02  0.65800038070E+02  0.00000000000E+00 0. -1.
          1    1    1    2  502    0 -0.18576552097E+02  0.38568828030E+02  0.95869492525E+03  0.95965025008E+03  0.00000000000E+00 0. -1.
         22    1    3    3    0    0  0.56434421240E+02 -0.29019120065E+02 -0.85864044373E+02  0.10676885007E+03  0.00000000000E+00 0.  1.
         22    1    3    3    0    0 -0.15149094350E+02 -0.15599833115E+02  0.35030189931E+02  0.41230620411E+02  0.00000000000E+00 0.  1.
</event>
<event>
 7    1  0.6146596E-006  0.1059260E+03  0.7818608E-02  0.1348375E+00
          2   -1    0    0  502    0  0.00000000000E+00  0.00000000000E+00  0.16655253330E+03  0.16655253330E+03  0.00000000000E+00 0. -1.
          1   -1    0    0  501    0 -0.00000000000E+00 -0.00000000000E+00 -0.16104433683E+04  0.16104433683E+04  0.00000000000E+00 0. -1.
         25    2    1    2    0    0  0.10667337470E+03  0.28063991650E+02 -0.25335635541E+03  0.30327956058E+03  0.12498900970E+03 0.  0.
          2    1    1    2  501    0 -0.10401025641E+03  0.22956119502E+02 -0.13253095563E+04  0.13295828431E+04  0.00000000000E+00 0. -1.
          1    1    1    2  502    0 -0.26631182857E+01 -0.51020111152E+02  0.13477507662E+03  0.14413349791E+03  0.00000000000E+00 0. -1.
         22    1    3    3    0    0  0.58329133720E+02  0.57642297727E+02 -0.59523448098E+02  0.10133095875E+03  0.00000000000E+00 0. -1.
         22    1    3    3    0    0  0.48344240975E+02 -0.29578306077E+02 -0.19383290731E+03  0.20194860183E+03  0.00000000000E+00 0. -1.
</event>
<event>
 7    1  0.6146596E-006  0.4024465E+02  0.7818608E-02  0.1507327E+00
          2   -1    0    0  502    0  0.00000000000E+00  0.00000000000E+00  0.21886994856E+04  0.21886994856E+04  0.00000000000E+00 0. -1.
          1   -1    0    0  501    0 -0.00000000000E+00 -0.00000000000E+00 -0.93347671328E+02  0.93347671328E+02  0.00000000000E+00 0. -1.
         25    2    1    2    0    0 -0.25822463328E+02  0.35720687770E+02  0.13260198657E+03  0.18748539553E+03  0.12499887819E+03 0.  0.
          2    1    1    2  501    0  0.40816432749E+02  0.13592066012E+01 -0.59362618370E+02  0.72053792993E+02  0.00000000000E+00 0. -1.
          1    1    1    2  502    0 -0.14993969421E+02 -0.37079894371E+02  0.20221124461E+04  0.20225079684E+04  0.00000000000E+00 0. -1.
         22    1    3    3    0    0  0.36728611509E+02  0.32068734227E+02  0.99612447676E+01  0.49765661009E+02  0.00000000000E+00 0.  1.
         22    1    3    3    0    0 -0.62551074837E+02  0.36519535428E+01  0.12264074180E+03  0.13771973452E+03  0.00000000000E+00 0.  1.
</event>
<event>
 7    1  0.6146596E-006  0.1208391E+03  0.7818608E-02  0.1294302E+00
          2   -1    0    0  502    0  0.00000000000E+00  0.00000000000E+00  0.43609771117E+03  0.43609771117E+03  0.00000000000E+00 0. -1.
          1   -1    0    0  501    0 -0.00000000000E+00 -0.00000000000E+00 -0.12094297008E+04  0.12094297008E+04  0.00000000000E+00 0. -1.
         25    2    1    2    0    0  0.17627490951E+03  0.50888778908E+02 -0.16942875467E+02  0.22265376977E+03  0.12500051449E+03 0.  0.
          2    1    1    2  501    0 -0.10405671408E+03 -0.57721159869E+02 -0.10823840521E+04  0.10889053073E+04  0.00000000000E+00 0. -1.
          1    1    1    2  502    0 -0.72218195423E+02  0.68323809615E+01  0.32599493791E+03  0.33396833491E+03  0.00000000000E+00 0. -1.
         22    1    3    3    0    0  0.19133568226E+03  0.63355553604E+02 -0.96377554486E+01  0.20178244673E+03  0.00000000000E+00 0.  1.
         22    1    3    3    0    0 -0.15060772749E+02 -0.12466774696E+02 -0.73051200184E+01  0.20871323044E+02  0.00000000000E+00 0.  1.
</event>
<event>
 7    1  0.6146596E-006  0.8036666E+02  0.7818608E-02  0.1456427E+00
          2   -1    0    0  502    0  0.00000000000E+00  0.00000000000E+00  0.11330871001E+03  0.11330871001E+03  0.00000000000E+00 0. -1.
          1   -1    0    0  501    0 -0.00000000000E+00 -0.00000000000E+00 -0.20713855985E+03  0.20713855985E+03  0.00000000000E+00 0. -1.
         25    2    1    2    0    0  0.32650843556E+02 -0.47870552116E+02 -0.14106860319E+02  0.13850546022E+03  0.12500836635E+03 0.  0.
          2    1    1    2  501    0 -0.55205370826E+02  0.65571076755E+02 -0.11052071589E+03  0.13986431895E+03  0.00000000000E+00 0. -1.
          1    1    1    2  502    0  0.22554527270E+02 -0.17700524639E+02  0.30797726365E+02  0.42077490683E+02  0.00000000000E+00 0. -1.
         22    1    3    3    0    0  0.34849304864E+02 -0.74521733491E+02  0.29462281693E+02  0.87384145327E+02  0.00000000000E+00 0.  1.
         22    1    3    3    0    0 -0.21984613079E+01  0.26651181375E+02 -0.43569142012E+02  0.51121314894E+02  0.00000000000E+00 0.  1.
</event>
<event>
 7    1  0.6146596E-006  0.6918183E+02  0.7818608E-02  0.1456451E+00
          2   -1    0    0  502    0  0.00000000000E+00  0.00000000000E+00  0.39848520270E+02  0.39848520270E+02  0.00000000000E+00 0. -1.
          1   -1    0    0  501    0 -0.00000000000E+00 -0.00000000000E+00 -0.19498273243E+04  0.19498273243E+04  0.00000000000E+00 0. -1.
         25    2    1    2    0    0 -0.75095520366E+02  0.31670489248E+02 -0.79968308355E+03  0.81348657543E+03  0.12500006893E+03 0.  0.
          2    1    1    2  501    0  0.46959688280E+02 -0.49482956066E+02 -0.11335323278E+04  0.11355832481E+04  0.00000000000E+00 0. -1.
          1    1    1    2  502    0  0.28135832086E+02  0.17812466817E+02  0.23236607325E+02  0.40606020998E+02  0.00000000000E+00 0. -1.
         22    1    3    3    0    0 -0.14587182558E+02 -0.28835859746E+02 -0.54156105523E+02  0.63064859214E+02  0.00000000000E+00 0. -1.
         22    1    3    3    0    0 -0.60508337808E+02  0.60506348994E+02 -0.74552697802E+03  0.75042171622E+03  0.00000000000E+00 0. -1.
</event>
<event>
 7    1  0.6146596E-006  0.1069424E+03  0.7818608E-02  0.1462618E+00
          2   -1    0    0  502    0  0.00000000000E+00  0.00000000000E+00  0.14830856972E+04  0.14830856972E+04  0.00000000000E+00 0. -1.
          1   -1    0    0  501    0 -0.00000000000E+00 -0.00000000000E+00 -0.25655658139E+03  0.25655658139E+03  0.00000000000E+00 0. -1.
         25    2    1    2    0    0 -0.61703745541E+02  0.11046994706E+03  0.84133936172E+02  0.19676233232E+03  0.12500373909E+03 0.  0.
          2    1    1    2  501    0  0.72407143727E+01 -0.19283239185E+02 -0.19760565672E+03  0.19867628652E+03  0.00000000000E+00 0. -1.
          1    1    1    2  502    0  0.54463031168E+02 -0.91186707873E+02  0.13400008363E+04  0.13442036597E+04  0.00000000000E+00 0. -1.
         22    1    3    3    0    0 -0.31175115864E+02  0.12916093441E+03  0.37666155492E+02  0.13810566279E+03  0.00000000000E+00 0.  1.
         22    1    3    3    0    0 -0.30528629677E+02 -0.18690987351E+02  0.46467780680E+02  0.58656669522E+02  0.00000000000E+00 0.  1.
</event>
<event>
 7    1  0.6146596E-006  0.5466853E+02  0.7818608E-02  0.1490789E+00
          2   -1    0    0  502    0  0.00000000000E+00  0.00000000000E+00  0.51560646576E+03  0.51560646576E+03  0.00000000000E+00 0. -1.
          1   -1    0    0  501    0 -0.00000000000E+00 -0.00000000000E+00 -0.10993290183E+03  0.10993290183E+03  0.00000000000E+00 0. -1.
         25    2    1    2    0    0  0.16681530151E+02  0.18654300935E+02  0.81871651265E+02  0.15150808272E+03  0.12500190182E+03 0.  0.
          2    1    1    2  501    0 -0.44348699738E+02 -0.36626782583E+02 -0.63298231209E+02  0.85527740793E+02  0.00000000000E+00 0. -1.
          1    1    1    2  502    0  0.27667169587E+02  0.17972481649E+02  0.38710014387E+03  0.38850354407E+03  0.00000000000E+00 0. -1.
         22    1    3    3    0    0 -0.11179858618E+02  0.40069614348E+02  0.10259759398E+03  0.11071056645E+03  0.00000000000E+00 0. -1.
         22    1    3    3    0    0  0.27861388769E+02 -0.21415313413E+02 -0.20725942715E+02  0.40797516274E+02  0.00000000000E+00 0. -1.
</event>
<event>
 7    1  0.6146596E-006  0.9911414E+02  0.7818608E-02  0.1301634E+00
          2   -1    0    0  502    0  0.00000000000E+00  0.00000000000E+00  0.36091943269E+03  0.36091943269E+03  0.00000000000E+00 0. -1.
          1   -1    0    0  501    0 -0.00000000000E+00 -0.00000000000E+00 -0.76446638887E+03  0.76446638887E+03  0.00000000000E+00 0. -1.
         25    2    1    2    0    0 -0.55248932977E+00  0.32147800128E+02  0.26301931520E+02  0.13172316838E+03  0.12500166075E+03 0.  0.
          2    1    1    2  501    0 -0.22778903406E+02  0.79441628701E+02 -0.69769083760E+03  0.70256839929E+03  0.00000000000E+00 0. -1.
          1    1    1    2  502    0  0.23331392736E+02 -0.11158942883E+03  0.26784194990E+03  0.29109425388E+03  0.00000000000E+00 0. -1.
         22    1    3    3    0    0 -0.28244306618E+02 -0.39777196901E+02  0.24591596443E+02  0.54632525707E+02  0.00000000000E+00 0. -1.
         22    1    3    3    0    0  0.27691817288E+02  0.71924997028E+02  0.17103350775E+01  0.77090642677E+02  0.00000000000E+00 0. -1.
</event>
<event>
 7    1  0.6146596E-006  0.1537940E+03  0.7818608E-02  0.1294200E+00
          2   -1    0    0  502    0  0.00000000000E+00  0.00000000000E+00  0.40185872376E+04  0.40185872376E+04  0.00000000000E+00 0. -1.
          1   -1    0    0  501    0 -0.00000000000E+00 -0.00000000000E+00 -0.13654479716E+04  0.13654479716E+04  0.00000000000E+00 0. -1.
         25    2    1    2    0    0 -0.12368523971E+03  0.80160424395E+02  0.43179283946E+02  0.19802312395E+03  0.12499989958E+03 0.  0.
          2    1    1    2  501    0 -0.27457877987E+02 -0.50008734995E+02 -0.12858698742E+04  0.12871348577E+04  0.00000000000E+00 0. -1.
          1    1    1    2  502    0  0.15114311769E+03 -0.30151689400E+02  0.38958298563E+04  0.38988772275E+04  0.00000000000E+00 0. -1.
         22    1    3    3    0    0 -0.12317186081E+02 -0.31849373428E+02  0.16149741830E+02  0.37774459915E+02  0.00000000000E+00 0. -1.
         22    1    3    3    0    0 -0.11136805362E+03  0.11200979782E+03  0.27029542116E+02  0.16024866403E+03  0.00000000000E+00 0. -1.
</event>
<event>
 7    1  0.6146596E-006  0.4419158E+02  0.7818608E-02  0.1539818E+00
          2   -1    0    0  502    0  0.00000000000E+00  0.00000000000E+00  0.70426564867E+03  0.70426564867E+03  0.00000000000E+00 0. -1.
          1   -1    0    0  501    0 -0.00000000000E+00 -0.00000000000E+00 -0.23828381322E+04  0.23828381322E+04  0.00000000000E+00 0. -1.
         25    2    1    2    0    0  0.49887900049E+02  0.24496313189E+02 -0.50271982675E+03  0.52099951000E+03  0.12499757310E+03 0.  0.
          2    1    1    2  501    0 -0.59049793656E+01 -0.28741233752E+02 -0.18701610503E+04  0.18703912108E+04  0.00000000000E+00 0. -1.
          1    1    1    2  502    0 -0.43982920684E+02  0.42449205626E+01  0.69430839353E+03  0.69571306009E+03  0.00000000000E+00 0. -1.
         22    1    3    3    0    0  0.72750655302E+02 -0.25599520484E+02 -0.35668191445E+03  0.36492462426E+03  0.00000000000E+00 0.  1.
         22    1    3    3    0    0 -0.22862755253E+02  0.50095833674E+02 -0.14603791231E+03  0.15607488574E+03  0.00000000000E+00 0.  1.
</event>
<event>
 7    1  0.6146596E-006  0.2254084E+03  0.7818608E-02  0.1274219E+00
          2   -1    0    0  502    0  0.00000000000E+00  0.00000000000E+00  0.20788333784E+03  0.20788333784E+03  0.00000000000E+00 0. -1.
          1   -1    0    0  501    0 -0.00000000000E+00 -0.00000000000E+00 -0.10080154045E+04  0.10080154045E+04  0.00000000000E+00 0. -1.
         25    2    1    2    0    0  0.54086648321E+01 -0.24614751147E+03 -0.67252475650E+02  0.28419418334E+03  0.12500234920E+03 0.  0.
          2    1    1    2  501    0  0.33917725408E+02  0.22037870575E+03 -0.81068871603E+03  0.84079330418E+03  0.00000000000E+00 0. -1.
          1    1    1    2  502    0 -0.39326390240E+02  0.25768805715E+02  0.77809125027E+02  0.90911254830E+02  0.00000000000E+00 0. -1.
         22    1    3    3    0    0 -0.43533663534E+02 -0.40463053905E+02  0.75774638752E+01  0.59915411630E+02  0.00000000000E+00 0.  1.
         22    1    3    3    0    0  0.48942328366E+02 -0.20568445756E+03 -0.74829939525E+02  0.22427877171E+03  0.00000000000E+00 0.  1.
</event>
<event>
 7    1  0.6146596E-006  0.6099148E+02  0.7818608E-02  0.1504569E+00
          2   -1    0    0  502    0  0.00000000000E+00  0.00000000000E+00  0.16477010197E+04  0.16477010197E+04  0.00000000000E+00 0. -1.
          1   -1    0    0  501    0 -0.00000000000E+00 -0.00000000000E+00 -0.11655255575E+04  0.11655255575E+04  0.00000000000E+00 0. -1.
         25    2    1    2    0    0 -0.69998067577E+02  0.33412523982E+02  0.26926422398E+03  0.30682067941E+03  0.12497832123E+03 0.  0.
          2    1    1    2  501    0  0.60387940683E+02 -0.82962029642E+01 -0.11458041699E+04  0.11474243879E+04  0.00000000000E+00 0. -1.
          1    1    1    2  502    0  0.96101268943E+01 -0.25116321018E+02  0.13587154081E+04  0.13589815099E+04  0.00000000000E+00 0. -1.
         22    1    3    3    0    0 -0.28846445475E+01  0.51168933538E+02  0.20803347580E+03  0.21425337334E+03  0.00000000000E+00 0. -1.
         22    1    3    3    0    0 -0.67113423029E+02 -0.17756409556E+02  0.61230748178E+02  0.92567306072E+02  0.00000000000E+00 0. -1.
</event>
<event>
 7    1  0.6146596E-006  0.9807440E+02  0.7818608E-02  0.1309830E+00
          2   -1    0    0  502    0  0.00000000000E+00  0.00000000000E+00  0.12333345072E+04  0.12333345072E+04  0.00000000000E+00 0. -1.
          1   -1    0    0  501    0 -0.00000000000E+00 -0.00000000000E+00 -0.10852491104E+04  0.10852491104E+04  0.00000000000E+00 0. -1.
         25    2    1    2    0    0 -0.10940631411E+03  0.12138672491E+03  0.13835839580E+03  0.24793730288E+03  0.12500152768E+03 0.  0.
          2    1    1    2  501    0  0.38865233428E+02 -0.89303027531E+02 -0.10267085805E+04  0.10313176264E+04  0.00000000000E+00 0. -1.
          1    1    1    2  502    0  0.70541080677E+02 -0.32083697378E+02  0.10364355816E+04  0.10393286883E+04  0.00000000000E+00 0. -1.
         22    1    3    3    0    0 -0.10963279600E+03  0.54909164620E+02  0.39527202813E+02  0.12882843662E+03  0.00000000000E+00 0. -1.
         22    1    3    3    0    0  0.22648189717E+00  0.66477560289E+02  0.98831192984E+02  0.11910886626E+03  0.00000000000E+00 0. -1.
</event>
<event>
 7    1  0.6146596E-006  0.6705616E+02  0.7818608E-02  0.1390831E+00
          2   -1    0    0  502    0  0.00000000000E+00  0.00000000000E+00  0.27460195983E+03  0.27460195983E+03  0.00000000000E+00 0. -1.
          1   -1    0    0  501    0 -0.00000000000E+00 -0.00000000000E+00 -0.13513966653E+03  0.13513966653E+03  0.00000000000E+00 0. -1.
         25    2    1    2    0    0 -0.31618581322E+02 -0.87105095561E+02  0.66577021794E+02  0.16924878612E+03  0.12500247763E+03 0.  0.
          2    1    1    2  501    0 -0.23644690523E+02  0.51614290240E+02 -0.65881408135E+02  0.86968191223E+02  0.00000000000E+00 0. -1.
          1    1    1    2  502    0  0.55263271845E+02  0.35490805321E+02  0.13876667964E+03  0.15352464902E+03  0.00000000000E+00 0. -1.
         22    1    3    3    0    0 -0.59045047222E+02 -0.51744463292E+02  0.89428943457E+02  0.11900144121E+03  0.00000000000E+00 0. -1.
         22    1    3    3    0    0  0.27426465900E+02 -0.35360632268E+02 -0.22851921663E+02  0.50247344903E+02  0.00000000000E+00 0. -1.
</event>
<event>
 7    1  0.6146596E-006  0.9605337E+02  0.7818608E-02  0.1466646E+00
          2   -1    0    0  502    0  0.00000000000E+00  0.00000000000E+00  0.18771812936E+04  0.18771812936E+04  0.00000000000E+00 0. -1.
          1   -1    0    0  501    0 -0.00000000000E+00 -0.00000000000E+00 -0.71409030542E+03  0.71409030542E+03  0.00000000000E+00 0. -1.
         25    2    1    2    0    0 -0.78963075242E+02  0.69281333285E+02  0.72663385727E+02  0.17871863331E+03  0.12500124748E+03 0.  0.
          2    1    1    2  501    0  0.21091517015E+02  0.71670144641E+01 -0.65956227321E+03  0.65993833835E+03  0.00000000000E+00 0. -1.
          1    1    1    2  502    0  0.57871558226E+02 -0.76448347749E+02  0.17499898756E+04  0.17526146273E+04  0.00000000000E+00 0. -1.
         22    1    3    3    0    0 -0.75031789909E+01  0.18394767004E+01  0.79825544235E+02  0.80198496756E+02  0.00000000000E+00 0.  1.
         22    1    3    3    0    0 -0.71459896251E+02  0.67441856585E+02 -0.71621585077E+01  0.98520136552E+02  0.00000000000E+00 0.  1.
</event>
<event>
 7    1  0.6146596E-006  0.4643285E+02  0.7818608E-02  0.1522339E+00
          2   -1    0    0  502    0  0.00000000000E+00  0.00000000000E+00  0.19992310870E+04  0.19992310870E+04  0.00000000000E+00 0. -1.
          1   -1    0    0  501    0 -0.00000000000E+00 -0.00000000000E+00 -0.92623394279E+03  0.92623394279E+03  0.00000000000E+00 0. -1.
         25    2    1    2    0    0  0.55424821126E+02 -0.45233904994E+02 -0.22638930168E+02  0.14579311668E+03  0.12500037902E+03 0.  0.
          2    1    1    2  501    0 -0.43211634833E+02  0.16378875350E+02 -0.84125706576E+03  0.84252534896E+03  0.00000000000E+00 0. -1.
          1    1    1    2  502    0 -0.12213186293E+02  0.28855029644E+02  0.19368931401E+04  0.19371465641E+04  0.00000000000E+00 0. -1.
         22    1    3    3    0    0  0.26782481369E+02  0.76345308373E+01  0.46477383333E+02  0.54182419020E+02  0.00000000000E+00 0.  1.
         22    1    3    3    0    0  0.28642339757E+02 -0.52868435832E+02 -0.69116313501E+02  0.91610697661E+02  0.00000000000E+00 0.  1.
</event>
<event>
 7    1  0.6146596E-006  0.6897879E+02  0.7818608E-02  0.1390030E+00
          2   -1    0    0  502    0  0.00000000000E+00  0.00000000000E+00  0.46888322163E+03  0.46888322163E+03  0.00000000000E+00 0. -1.
          1   -1    0    0  501    0 -0.00000000000E+00 -0.00000000000E+00 -0.10711062636E+03  0.10711062636E+03  0.00000000000E+00 0. -1.
         25    2    1    2    0    0 -0.32582603456E+02  0.20713863148E+02  0.18381897692E+01  0.13083106216E+03  0.12499079050E+03 0.  0.
          2    1    1    2  501    0  0.76967153920E+02 -0.54111294616E+02  0.14386038028E+02  0.95178427586E+02  0.00000000000E+00 0. -1.
          1    1    1    2  502    0 -0.44384550464E+02  0.33397431468E+02  0.34554836748E+03  0.34998435825E+03  0.00000000000E+00 0. -1.
         22    1    3    3    0    0 -0.56559907407E+02 -0.24715863922E+02  0.33757911271E+02  0.70352637681E+02  0.00000000000E+00 0.  1.
         22    1    3    3    0    0  0.23977303951E+02  0.45429727070E+02 -0.31919721501E+02  0.60478424476E+02  0.00000000000E+00 0.  1.
</event>
<event>
 7    1  0.6146596E-006  0.9642977E+02  0.7818608E-02  0.1343091E+00
          2   -1    0    0  502    0  0.00000000000E+00  0.00000000000E+00  0.54411052546E+03  0.54411052546E+03  0.00000000000E+00 0. -1.
          1   -1    0    0  501    0 -0.00000000000E+00 -0.00000000000E+00 -0.35809327058E+03  0.35809327058E+03  0.00000000000E+00 0. -1.
         25    2    1    2    0    0 -0.11916791823E+03  0.69883424937E+02  0.22032651250E+03  0.28853336408E+03  0.12499217681E+03 0.  0.
          2    1    1    2  501    0  0.58522356641E+02 -0.48868419002E+01 -0.31438633704E+03  0.31982419603E+03  0.00000000000E+00 0. -1.
          1    1    1    2  502    0  0.60645561590E+02 -0.64996583037E+02  0.28007707943E+03  0.29384623593E+03  0.00000000000E+00 0. -1.
         22    1    3    3    0    0 -0.77819461798E+01  0.28732617479E+02  0.14474766300E+03  0.14777688567E+03  0.00000000000E+00 0.  1.
         22    1    3    3    0    0 -0.11138597205E+03  0.41150807458E+02  0.75578849494E+02  0.14075647841E+03  0.00000000000E+00 0.  1.
</event>
<event>
 7    1  0.6146596E-006  0.9202227E+02  0.7818608E-02  0.1321379E+00
          2   -1    0    0  502    0  0.00000000000E+00  0.00000000000E+00  0.17536087384E+04  0.17536087384E+04  0.00000000000E+00 0. -1.
          1   -1    0    0  501    0 -0.00000000000E+00 -0.00000000000E+00 -0.51593408544E+03  0.51593408544E+03  0.00000000000E+00 0. -1.
         25    2    1    2    0    0 -0.51337202575E+02 -0.13168566858E+03 -0.11839261064E+03  0.22275175643E+03  0.12499964426E+03 0.  0.
          2    1    1    2  501    0  0.62413608814E+02  0.40571924854E+02 -0.34009525995E+03  0.34814698834E+03  0.00000000000E+00 0. -1.
          1    1    1    2  502    0 -0.11076406239E+02  0.91113743724E+02  0.16961625236E+04  0.16986440791E+04  0.00000000000E+00 0. -1.
         22    1    3    3    0    0 -0.60197891811E+02 -0.71717137317E+02 -0.45116090648E+01  0.93741605383E+02  0.00000000000E+00 0.  1.
         22    1    3    3    0    0  0.88606892361E+01 -0.59968531261E+02 -0.11388100157E+03  0.12901015105E+03  0.00000000000E+00 0.  1.
</event>
<event>
 7    1  0.6146596E-006  0.1393067E+03  0.7818608E-02  0.1288956E+00
          2   -1    0    0  502    0  0.00000000000E+00  0.00000000000E+00  0.64343225828E+03  0.64343225828E+03  0.00000000000E+00 0. -1.
          1   -1    0    0  501    0 -0.00000000000E+00 -0.00000000000E+00 -0.12719095595E+04  0.12719095595E+04  0.00000000000E+00 0. -1.
         25    2    1    2    0    0 -0.44689256692E+02 -0.89740072901E+02  0.16818085304E+03  0.23229377365E+03  0.12500075040E+03 0.  0.
          2    1    1    2  501    0  0.11073569148E+03  0.86109764029E+02 -0.12333870583E+04  0.12413383585E+04  0.00000000000E+00 0. -1.
          1    1    1    2  502    0 -0.66046434790E+02  0.36303088720E+01  0.43672890405E+03  0.44170968557E+03  0.00000000000E+00 0. -1.
         22    1    3    3    0    0  0.54889085954E+01  0.68738451202E+01  0.10710272144E+03  0.10746334632E+03  0.00000000000E+00 0. -1.
         22    1    3    3    0    0 -0.50178165288E+02 -0.96613918021E+02  0.61078131602E+02  0.12483042733E+03  0.00000000000E+00 0. -1.
</event>
<event>
 7    1  0.6146596E-006  0.1329946E+03  0.7818608E-02  0.1277727E+00
          2   -1    0    0  502    0  0.00000000000E+00  0.00000000000E+00  0.35767359527E+03  0.35767359527E+03  0.00000000000E+00 0. -1.
          1   -1    0    0  501    0 -0.00000000000E+00 -0.00000000000E+00 -0.22132984563E+03  0.22132984563E+03  0.00000000000E+00 0. -1.
         25    2    1    2    0    0 -0.73234487618E+02 -0.36764183166E+02  0.27130003894E+02  0.15192127995E+03  0.12501657030E+03 0.  0.
          2    1    1    2  501    0 -0.76574181305E+02  0.85940676758E+01 -0.12546778618E+03  0.14724003739E+03  0.00000000000E+00 0. -1.
          1    1    1    2  502    0  0.14980866892E+03  0.28170115490E+02  0.23468153193E+03  0.27984212356E+03  0.00000000000E+00 0. -1.
         22    1    3    3    0    0  0.20481139645E+02 -0.39623610149E+02 -0.17710290180E+02  0.47991269422E+02  0.00000000000E+00 0. -1.
         22    1    3    3    0    0 -0.93715627263E+02  0.28594269832E+01  0.44840294075E+02  0.10393001053E+03  0.00000000000E+00 0. -1.
</event>
<event>
 7    1  0.6146596E-006  0.9941969E+02  0.7818608E-02  0.1333372E+00
          2   -1    0    0  502    0  0.00000000000E+00  0.00000000000E+00  0.34068184703E+04  0.34068184703E+04  0.00000000000E+00 0. -1.
          1   -1    0    0  501    0 -0.00000000000E+00 -0.00000000000E+00 -0.71873406149E+02  0.71873406149E+02  0.00000000000E+00 0. -1.
         25    2    1    2    0    0 -0.99449413560E+02  0.12271718784E+03  0.67491220149E+03  0.70433100916E+03  0.12500398672E+03 0.  0.
          2    1    1    2  501    0  0.60178811931E+02 -0.74768961645E+02 -0.16263689818E+02  0.97346775177E+02  0.00000000000E+00 0. -1.
          1    1    1    2  502    0  0.39270601629E+02 -0.47948226198E+02  0.26762965525E+04  0.26770140921E+04  0.00000000000E+00 0. -1.
         22    1    3    3    0    0  0.27561223948E+02  0.12608858853E+02  0.15450483770E+03  0.15744951337E+03  0.00000000000E+00 0.  1.
         22    1    3    3    0    0 -0.12701063751E+03  0.11010832899E+03  0.52040736378E+03  0.54688149579E+03  0.00000000000E+00 0.  1.
</event>
<event>
 7    1  0.6146596E-006  0.5975683E+02  0.7818608E-02  0.1448612E+00
          2   -1    0    0  502    0  0.00000000000E+00  0.00000000000E+00  0.13269989148E+04  0.13269989148E+04  0.00000000000E+00 0. -1.
          1   -1    0    0  501    0 -0.00000000000E+00 -0.00000000000E+00 -0.78009199816E+02  0.78009199816E+02  0.00000000000E+00 0. -1.
         25    2    1    2    0    0 -0.52261648577E+02 -0.11730965301E+02  0.82164882554E+03  0.83282599371E+03  0.12499379117E+03 0.  0.
          2    1    1    2  501    0  0.52531345350E+02 -0.29104032615E+02 -0.58965844211E+02  0.84163874330E+02  0.00000000000E+00 0. -1.
          1    1    1    2  502    0 -0.26969677352E+00  0.40834997916E+02  0.48630673370E+03  0.48801824662E+03  0.00000000000E+00 0. -1.
         22    1    3    3    0    0 -0.23222902862E+02 -0.60048170721E+02  0.24115103467E+03  0.24959749106E+03  0.00000000000E+00 0. -1.
         22    1    3    3    0    0 -0.29038745714E+02  0.48317205420E+02  0.58049779087E+03  0.58322850264E+03  0.00000000000E+00 0. -1.
</event>
<event>
 7    1  0.6146596E-006  0.1535975E+03  0.7818608E-02  0.1331268E+00
          2   -1    0    0  502    0  0.00000000000E+00  0.00000000000E+00  0.18543436555E+04  0.18543436555E+04  0.00000000000E+00 0. -1.
          1   -1    0    0  501    0 -0.00000000000E+00 -0.00000000000E+00 -0.18283340796E+03  0.18283340796E+03  0.00000000000E+00 0. -1.
         25    2    1    2    0    0 -0.35189060988E+02 -0.11841865767E+03  0.16619203591E+03  0.24188032619E+03  0.12500020361E+03 0.  0.
          2    1    1    2  501    0  0.64692207578E+02  0.14669139248E+03 -0.10033014947E+03  0.18912848871E+03  0.00000000000E+00 0. -1.
          1    1    1    2  502    0 -0.29503146589E+02 -0.28272734807E+02  0.16056483611E+04  0.16061682486E+04  0.00000000000E+00 0. -1.
         22    1    3    3    0    0  0.14687341739E+02 -0.10451036312E+03  0.15717745883E+03  0.18932217929E+03  0.00000000000E+00 0.  1.
         22    1    3    3    0    0 -0.49876402727E+02 -0.13908294548E+02  0.90145770803E+01  0.52558146906E+02  0.00000000000E+00 0.  1.
</event>
<event>
 7    1  0.6146596E-006  0.6529836E+02  0.7818608E-02  0.1381093E+00
          2   -1    0    0  502    0  0.00000000000E+00  0.00000000000E+00  0.39256486255E+02  0.39256486255E+02  0.00000000000E+00 0. -1.
          1   -1    0    0  501    0 -0.00000000000E+00 -0.00000000000E+00 -0.10369679845E+04  0.10369679845E+04  0.00000000000E+00 0. -1.
         25    2    1    2    0    0 -0.45104272413E+02 -0.81321819584E+02 -0.33673346428E+03  0.37102844399E+03  0.12500018621E+03 0.  0.
          2    1    1    2  501    0  0.61441696784E+02  0.20398687053E+02 -0.63281608912E+03  0.63611900709E+03  0.00000000000E+00 0. -1.
          1    1    1    2  502    0 -0.16337424371E+02  0.60923132532E+02 -0.28161944886E+02  0.69077019712E+02  0.00000000000E+00 0. -1.
         22    1    3    3    0    0 -0.40527362637E+01 -0.10064498339E+03 -0.28469089278E+03  0.30198467144E+03  0.00000000000E+00 0.  1.
         22    1    3    3    0    0 -0.41051536149E+02  0.19323163805E+02 -0.52042571500E+02  0.69043772551E+02  0.00000000000E+00 0.  1.
</event>
<event>
 7    1  0.6146596E-006  0.3489994E+02  0.7818608E-02  0.1594342E+00
          2   -1    0    0  502    0  0.00000000000E+00  0.00000000000E+00  0.14818273328E+02  0.14818273328E+02  0.00000000000E+00 0. -1.
          1   -1    0    0  501    0 -0.00000000000E+00 -0.00000000000E+00 -0.12459560787E+04  0.12459560787E+04  0.00000000000E+00 0. -1.
         25    2    1    2    0    0 -0.60584371733E+01 -0.79744896575E+01 -0.66325917413E+03  0.67500962140E+03  0.12499983908E+03 0.  0.
          2    1    1    2  501    0 -0.18670251321E+02 -0.18635093002E+02 -0.53822798644E+03  0.53887402087E+03  0.00000000000E+00 0. -1.
          1    1    1    2  502    0  0.24728688494E+02  0.26609582659E+02 -0.29650644778E+02  0.46890709737E+02  0.00000000000E+00 0. -1.
         22    1    3    3    0    0  0.18012276591E+02  0.27960799282E+02 -0.58205858478E+03  0.58300809987E+03  0.00000000000E+00 0.  1.
         22    1    3    3    0    0 -0.24070713764E+02 -0.35935288939E+02 -0.81200589352E+02  0.92001521528E+02  0.00000000000E+00 0.  1.
</event>
<event>
 7    1  0.6146596E-006  0.1837440E+03  0.7818608E-02  0.1252376E+00
          2   -1    0    0  502    0  0.00000000000E+00  0.00000000000E+00  0.98377384732E+03  0.98377384732E+03  0.00000000000E+00 0. -1.
          1   -1    0    0  501    0 -0.00000000000E+00 -0.00000000000E+00 -0.10397731592E+04  0.10397731592E+04  0.00000000000E+00 0. -1.
         25    2    1    2    0    0 -0.11255881449E+03 -0.18369226735E+03  0.10101553105E+03  0.26877624403E+03  0.12499678411E+03 0.  0.
          2    1    1    2  501    0  0.71012850937E+02  0.75022372507E+01 -0.94427269073E+03  0.94696886064E+03  0.00000000000E+00 0. -1.
          1    1    1    2  502    0  0.41545963555E+02  0.17619003010E+03  0.78725784777E+03  0.80780190187E+03  0.00000000000E+00 0. -1.
         22    1    3    3    0    0 -0.21588480668E+02 -0.13772724847E+03  0.25012106259E+02  0.14163496365E+03  0.00000000000E+00 0. -1.
         22    1    3    3    0    0 -0.90970333823E+02 -0.45965018877E+02  0.76003424791E+02  0.12714128038E+03  0.00000000000E+00 0. -1.
</event>
<event>
 7    1  0.6146596E-006  0.7430751E+02  0.7818608E-02  0.1440707E+00
          2   -1    0    0  502    0  0.00000000000E+00  0.00000000000E+00  0.64661246859E+03  0.64661246859E+03  0.00000000000E+00 0. -1.
          1   -1    0    0  501    0 -0.00000000000E+00 -0.00000000000E+00 -0.93785469272E+03  0.93785469272E+03  0.00000000000E+00 0. -1.
         25    2    1    2    0    0 -0.60084205906E+02  0.26666532098E+02  0.30840190778E+03  0.33920157688E+03  0.12499902921E+03 0.  0.
          2    1    1    2  501    0 -0.18497340095E+02 -0.29505716403E+02 -0.91733106095E+03  0.91799183781E+03  0.00000000000E+00 0. -1.
          1    1    1    2  502    0  0.78581546001E+02  0.28391843053E+01  0.31768692904E+03  0.32727374661E+03  0.00000000000E+00 0. -1.
         22    1    3    3    0    0 -0.75609469383E+02  0.65102987517E+02  0.21730272293E+03  0.23911433298E+03  0.00000000000E+00 0. -1.
         22    1    3    3    0    0  0.15525263478E+02 -0.38436455419E+02  0.91099184853E+02  0.10008724390E+03  0.00000000000E+00 0. -1.
</event>
<event>
 7    1  0.6146596E-006  0.1465652E+03  0.7818608E-02  0.1370745E+00
          2   -1    0    0  502    0  0.00000000000E+00  0.00000000000E+00  0.43435735704E+03  0.43435735704E+03  0.00000000000E+00 0. -1.
          1   -1    0    0  501    0 -0.00000000000E+00 -0.00000000000E+00 -0.17732757930E+04  0.17732757930E+04  0.00000000000E+00 0. -1.
         25    2    1    2    0    0  0.16309385865E+03  0.64124322592E+02 -0.53810988029E+03  0.57956801111E+03  0.12500120304E+03 0.  0.
          2    1    1    2  501    0 -0.30396745301E+02 -0.34508107283E+01 -0.12013683555E+04  0.12017577941E+04  0.00000000000E+00 0. -1.
          1    1    1    2  502    0 -0.13269711335E+03 -0.60673511863E+02  0.40055979985E+03  0.42630734475E+03  0.00000000000E+00 0. -1.
         22    1    3    3    0    0  0.17163386126E+03  0.74653671153E+02 -0.53328746740E+03  0.56517862295E+03  0.00000000000E+00 0.  1.
         22    1    3    3    0    0 -0.85400026066E+01 -0.10529348562E+02 -0.48224128831E+01  0.14389388162E+02  0.00000000000E+00 0.  1.
</event>
<event>
 7    1  0.6146596E-006  0.1018233E+03  0.7818608E-02  0.1291249E+00
          2   -1    0    0  502    0  0.00000000000E+00  0.00000000000E+00  0.86703213802E+03  0.86703213802E+03  0.00000000000E+00 0. -1.
          1   -1    0    0  501    0 -0.00000000000E+00 -0.00000000000E+00 -0.69817673584E+03  0.69817673584E+03  0.00000000000E+00 0. -1.
         25    2    1    2    0    0  0.34224269632E+02  0.28132298867E+02 -0.10882187516E+02  0.13307092291E+03  0.12500688640E+03 0.  0.
          2    1    1    2  501    0  0.66992130407E+02 -0.57942271956E+02 -0.61958355435E+03  0.62588260340E+03  0.00000000000E+00 0. -1.
          1    1    1    2  502    0 -0.10121640004E+03  0.29809973088E+02  0.79932114404E+03  0.80625534755E+03  0.00000000000E+00 0. -1.
         22    1    3    3    0    0  0.71517661256E+02 -0.77751858976E+01 -0.29917681124E+02  0.77912110940E+02  0.00000000000E+00 0.  1.
         22    1    3    3    0    0 -0.37293391624E+02  0.35907484765E+02  0.19035493608E+02  0.55158811969E+02  0.00000000000E+00 0.  1.
</event>
<event>
 7    1  0.6146596E-006  0.1287123E+03  0.7818608E-02  0.1335522E+00
          2   -1    0    0  502    0  0.00000000000E+00  0.00000000000E+00  0.12968740241E+03  0.12968740241E+03  0.00000000000E+00 0. -1.
          1   -1    0    0  501    0 -0.00000000000E+00 -0.00000000000E+00 -0.15859934901E+04  0.15859934901E+04  0.00000000000E+00 0. -1.
         25    2    1    2    0    0  0.63496461833E+02  0.59024046886E+02 -0.64835326292E+03  0.66595640676E+03  0.12498137219E+03 0.  0.
          2    1    1    2  501    0  0.44410837681E+02  0.15328140314E+02 -0.89252504869E+03  0.89376072688E+03  0.00000000000E+00 0. -1.
          1    1    1    2  502    0 -0.10790729951E+03 -0.74352187199E+02  0.84572223897E+02  0.15596375888E+03  0.00000000000E+00 0. -1.
         22    1    3    3    0    0 -0.41281246386E+01 -0.22259816582E+02 -0.32429184642E+03  0.32508113219E+03  0.00000000000E+00 0. -1.
         22    1    3    3    0    0  0.67624586472E+02  0.81283863467E+02 -0.32406141649E+03  0.34087527457E+03  0.00000000000E+00 0. -1.
</event>
<event>
 7    1  0.6146596E-006  0.1423811E+03  0.7818608E-02  0.1226790E+00
          2   -1    0    0  502    0  0.00000000000E+00  0.00000000000E+00  0.45617729726E+03  0.45617729726E+03  0.00000000000E+00 0. -1.
          1   -1    0    0  501    0 -0.00000000000E+00 -0.00000000000E+00 -0.37287391345E+03  0.37287391345E+03  0.00000000000E+00 0. -1.
         25    2    1    2    0    0 -0.17787196516E+03  0.23785482708E+02  0.24113300142E+02  0.22002383721E+03  0.12499941008E+03 0.  0.
          2    1    1    2  501    0  0.59682978393E+02 -0.10354945942E+03 -0.24526568454E+03  0.27283658931E+03  0.00000000000E+00 0. -1.
          1    1    1    2  502    0  0.11818898677E+03  0.79763976712E+02  0.30445576821E+03  0.33619078418E+03  0.00000000000E+00 0. -1.
         22    1    3    3    0    0 -0.16066410805E+03 -0.23054662501E+02 -0.47449839054E+01  0.16237914875E+03  0.00000000000E+00 0. -1.
         22    1    3    3    0    0 -0.17207857112E+02  0.46840145208E+02  0.28858284048E+02  0.57644688460E+02  0.00000000000E+00 0. -1.
</event>
<event>
 7    1  0.6146596E-006  0.1063502E+03  0.7818608E-02  0.1374710E+00
          2   -1    0    0  502    0  0.00000000000E+00  0.00000000000E+00  0.40525498857E+03  0.40525498857E+03  0.00000000000E+00 0. -1.
          1   -1    0    0  501    0 -0.00000000000E+00 -0.00000000000E+00 -0.53215774836E+03  0.53215774836E+03  0.00000000000E+00 0. -1.
         25    2    1    2    0    0  0.47944158819E+02  0.11621902170E+03 -0.72867462039E+01  0.17743532845E+03  0.12499878295E+03 0.  0.
          2    1    1    2  501    0  0.19604488673E+02 -0.35786089071E+02 -0.43019114225E+03  0.43212197239E+03  0.00000000000E+00 0. -1.
          1    1    1    2  502    0 -0.67548647493E+02 -0.80432932633E+02  0.31057512867E+03  0.32785543610E+03  0.00000000000E+00 0. -1.
         22    1    3    3    0    0  0.79439038206E+02  0.62933572271E+02 -0.38125884141E+02  0.10828101566E+03  0.00000000000E+00 0. -1.
         22    1    3    3    0    0 -0.31494879387E+02  0.53285449433E+02  0.30839137937E+02  0.69154312791E+02  0.00000000000E+00 0. -1.
</event>
<event>
 7    1  0.6146596E-006  0.3859136E+02  0.7818608E-02  0.1525426E+00
          2   -1    0    0  502    0  0.00000000000E+00  0.00000000000E+00  0.28470734631E+02  0.28470734631E+02  0.00000000000E+00 0. -1.
          1   -1    0    0  501    0 -0.00000000000E+00 -0.00000000000E+00 -0.55669726931E+03  0.55669726931E+03  0.00000000000E+00 0. -1.
         25    2    1    2    0    0  0.18220509177E+01 -0.36314258681E+01 -0.17811823639E+03  0.21764394126E+03  0.12500508752E+03 0.  0.
          2    1    1    2  501    0 -0.12197118080E+02  0.39077841485E+02 -0.31118708386E+03  0.31386820250E+03  0.00000000000E+00 0. -1.
          1    1    1    2  502    0  0.10375067163E+02 -0.35446415617E+02 -0.38921214426E+02  0.53655860175E+02  0.00000000000E+00 0. -1.
         22    1    3    3    0    0  0.24104061017E+02  0.30480178255E+01 -0.18998365323E+03  0.19153089741E+03  0.00000000000E+00 0. -1.
         22    1    3    3    0    0 -0.22282010099E+02 -0.66794436936E+01  0.11865416835E+02  0.26113043844E+02  0.00000000000E+00 0. -1.
</event>
<event>
 7    1  0.6146596E-006  0.7069819E+02  0.7818608E-02  0.1444856E+00
          2   -1    0    0  502    0  0.00000000000E+00  0.00000000000E+00  0.98096576700E+03  0.98096576700E+03  0.00000000000E+00 0. -1.
          1   -1    0    0  501    0 -0.00000000000E+00 -0.00000000000E+00 -0.29388343908E+03  0.29388343908E+03  0.00000000000E+00 0. -1.
         25    2    1    2    0    0  0.10045630425E+03  0.69506828402E+01  0.30115601220E+02  0.16331252715E+03  0.12499700409E+03 0.  0.
          2    1    1    2  501    0 -0.31081126841E+02 -0.17130394244E+02 -0.22449885341E+03  0.22728665169E+03  0.00000000000E+00 0. -1.
          1    1    1    2  502    0 -0.69375177410E+02  0.10179711404E+02  0.88146558011E+03  0.88425002725E+03  0.00000000000E+00 0. -1.
         22    1    3    3    0    0  0.66346550607E+01 -0.20871726483E+02  0.57635731673E+02  0.61656509629E+02  0.00000000000E+00 0.  1.
         22    1    3    3    0    0  0.93821649190E+02  0.27822409324E+02 -0.27520130453E+02  0.10165601752E+03  0.00000000000E+00 0.  1.
</event>
<event>
 7    1  0.6146596E-006  0.5084915E+02  0.7818608E-02  0.1505903E+00
          2   -1    0    0  502    0  0.00000000000E+00  0.00000000000E+00  0.83709204840E+03  0.83709204840E+03  0.00000000000E+00 0. -1.
          1   -1    0    0  501    0 -0.00000000000E+00 -0.00000000000E+00 -0.96620475112E+02  0.96620475112E+02  0.00000000000E+00 0. -1.
         25    2    1    2    0    0 -0.28505971639E+02  0.66464946620E+02  0.16978074020E+03  0.22289363922E+03  0.12500358040E+03 0.  0.
          2    1    1    2  501    0  0.27532327377E+02 -0.16237507286E+02 -0.65375820456E+02  0.72771447656E+02  0.00000000000E+00 0. -1.
          1    1    1    2  502    0  0.97364426286E+00 -0.50227439335E+02  0.63606665355E+03  0.63804743664E+03  0.00000000000E+00 0. -1.
         22    1    3    3    0    0 -0.65038179269E+02  0.51254738894E+02  0.49968238956E+02  0.96715241436E+02  0.00000000000E+00 0. -1.
         22    1    3    3    0    0  0.36532207629E+02  0.15210207727E+02  0.11981250124E+03  0.12617839778E+03  0.00000000000E+00 0. -1.
</event>
<event>
 7    1  0.6146596E-006  0.5988280E+02  0.7818608E-02  0.1430924E+00
          2   -1    0    0  502    0  0.00000000000E+00  0.00000000000E+00  0.12786268927E+04  0.12786268927E+04  0.00000000000E+00 0. -1.
          1   -1    0    0  501    0 -0.00000000000E+00 -0.00000000000E+00 -0.30345540748E+02  0.30345540748E+02  0.00000000000E+00 0. -1.
         25    2    1    2    0    0 -0.79650888549E+02 -0.29967256893E+02  0.45823543591E+03  0.48254688030E+03  0.12501790444E+03 0.  0.
          2    1    1    2  501    0  0.43590212397E+02 -0.16221483791E+02  0.14570827631E+02  0.48739636550E+02  0.00000000000E+00 0. -1.
          1    1    1    2  502    0  0.36060676153E+02  0.46188740684E+02  0.77547508840E+03  0.77768591659E+03  0.00000000000E+00 0. -1.
         22    1    3    3    0    0 -0.55489442024E+02  0.45066108712E+02  0.24463290839E+03  0.25486328138E+03  0.00000000000E+00 0. -1.
         22    1    3    3    0    0 -0.24161446526E+02 -0.75033365605E+02  0.21360252752E+03  0.22768359892E+03  0.00000000000E+00 0. -1.
</event>
<event>
 7    1  0.6146596E-006  0.4135145E+02  0.7818608E-02  0.1584175E+00
          2   -1    0    0  502    0  0.00000000000E+00  0.00000000000E+00  0.12206385511E+04  0.12206385511E+04  0.00000000000E+00 0. -1.
          1   -1    0    0  501    0 -0.00000000000E+00 -0.00000000000E+00 -0.10762681533E+03  0.10762681533E+03  0.00000000000E+00 0. -1.
         25    2    1    2    0    0  0.18759916327E+02 -0.39360415361E+01  0.61077487354E+02  0.14043898861E+03  0.12500089270E+03 0.  0.
          2    1    1    2  501    0 -0.42166921563E+02  0.75727928356E+01 -0.61054355145E+02  0.74585727506E+02  0.00000000000E+00 0. -1.
          1    1    1    2  502    0  0.23407005236E+02 -0.36367512994E+01  0.11129886036E+04  0.11132406503E+04  0.00000000000E+00 0. -1.
         22    1    3    3    0    0 -0.46905034695E+02  0.46225154786E+01  0.57183849696E+02  0.74104268400E+02  0.00000000000E+00 0.  1.
         22    1    3    3    0    0  0.65664951022E+02 -0.85585570148E+01  0.38936376586E+01  0.66334720208E+02  0.00000000000E+00 0.  1.
</event>
<event>
 7    1  0.6146596E-006  0.7862497E+02  0.7818608E-02  0.1343688E+00
          2   -1    0    0  502    0  0.00000000000E+00  0.00000000000E+00  0.13411616556E+03  0.13411616556E+03  0.00000000000E+00 0. -1.
          1   -1    0    0  501    0 -0.00000000000E+00 -0.00000000000E+00 -0.99755427048E+03  0.99755427048E+03  0.00000000000E+00 0. -1.
         25    2    1    2    0    0  0.26632922746E+02 -0.50689610125E+02 -0.27767604362E+03  0.30984795761E+03  0.12499208968E+03 0.  0.
          2    1    1    2  501    0 -0.85435600320E+02  0.97418975594E+01 -0.68999662393E+03  0.69533408331E+03  0.00000000000E+00 0. -1.
          1    1    1    2  502    0  0.58802677574E+02  0.40947712566E+02  0.10423456264E+03  0.12648839513E+03  0.00000000000E+00 0. -1.
         22    1    3    3    0    0 -0.35765794787E+02 -0.21315083259E+02 -0.26448580370E+02  0.49325979511E+02  0.00000000000E+00 0.  1.
         22    1    3    3    0    0  0.62398717533E+02 -0.29374526866E+02 -0.25122746325E+03  0.26052197809E+03  0.00000000000E+00 0.  1.
</event>
<event>
 7    1  0.6146596E-006  0.1713178E+03  0.7818608E-02  0.1341852E+00
          2   -1    0    0  502    0  0.00000000000E+00  0.00000000000E+00  0.18627112580E+04  0.18627112580E+04  0.00000000000E+00 0. -1.
          1   -1    0    0  501    0 -0.00000000000E+00 -0.00000000000E+00 -0.14857916980E+03  0.14857916980E+03  0.00000000000E+00 0. -1.
         25    2    1    2    0    0  0.75791154218E+02 -0.12815184046E+03  0.63439142680E+03  0.66350948268E+03  0.12500063174E+03 0.  0.
          2    1    1    2  501    0  0.11606886844E+02 -0.31329696806E+02 -0.12500176048E+03  0.12938975943E+03  0.00000000000E+00 0. -1.
          1    1    1    2  502    0 -0.87398041062E+02  0.15948153727E+03  0.12047424219E+04  0.12183911857E+04  0.00000000000E+00 0. -1.
         22    1    3    3    0    0  0.10674614604E+03 -0.11087700191E+03  0.44594273905E+03  0.47175563140E+03  0.00000000000E+00 0.  1.
         22    1    3    3    0    0 -0.30954991820E+02 -0.17274838560E+02  0.18844868774E+03  0.19175385127E+03  0.00000000000E+00 0.  1.
</event>
<event>
 7    1  0.6146596E-006  0.7590782E+02  0.7818608E-02  0.1400843E+00
          2   -1    0    0  502    0  0.00000000000E+00  0.00000000000E+00  0.22003276081E+03  0.22003276081E+03  0.00000000000E+00 0. -1.
          1   -1    0    0  501    0 -0.00000000000E+00 -0.00000000000E+00 -0.15631880396E+03  0.15631880396E+03  0.00000000000E+00 0. -1.
         25    2    1    2    0    0 -0.95924548885E+02 -0.16255482016E+01  0.43510369662E+02  0.16346934840E+03  0.12499965645E+03 0.  0.
          2    1    1    2  501    0  0.65017989311E+02  0.36110036316E+02 -0.75862560893E+02  0.10623747833E+03  0.00000000000E+00 0. -1.
          1    1    1    2  502    0  0.30906559574E+02 -0.34484488114E+02  0.96066148083E+02  0.10664473805E+03  0.00000000000E+00 0. -1.
         22    1    3    3    0    0 -0.80555398890E+02 -0.45066904041E+02  0.64728940944E+02  0.11273878625E+03  0.00000000000E+00 0. -1.
         22    1    3    3    0    0 -0.15369149995E+02  0.43441355839E+02 -0.21218571282E+02  0.50730562149E+02  0.00000000000E+00 0. -1.
</event>
<event>
 7    1  0.6146596E-006  0.1037039E+03  0.7818608E-02  0.1278772E+00
          2   -1    0    0  502    0  0.00000000000E+00  0.00000000000E+00  0.47685919087E+03  0.47685919087E+03  0.00000000000E+00 0. -1.
          1   -1    0    0  501    0 -0.00000000000E+00 -0.00000000000E+00 -0.12277560297E+04  0.12277560297E+04  0.00000000000E+00 0. -1.
         25    2    1    2    0    0  0.62856474282E+02  0.49918262509E+02 -0.14657833385E+03  0.20869290793E+03  0.12499901029E+03 0.  0.
          2    1    1    2  501    0 -0.81266028256E+02  0.54479762266E+02 -0.10414931168E+04  0.10460784503E+04  0.00000000000E+00 0. -1.
          1    1    1    2  502    0  0.18409553974E+02 -0.10439802478E+03  0.43717461182E+03  0.44984386233E+03  0.00000000000E+00 0. -1.
         22    1    3    3    0    0  0.41948051426E+02  0.91903903523E+02 -0.10876952109E+03  0.14844788722E+03  0.00000000000E+00 0. -1.
         22    1    3    3    0    0  0.20908422856E+02 -0.41985641014E+02 -0.37808812764E+02  0.60245020710E+02  0.00000000000E+00 0. -1.
</event>
<event>
 7    1  0.6146596E-006  0.5291247E+02  0.7818608E-02  0.1531930E+00
          2   -1    0    0  502    0  0.00000000000E+00  0.00000000000E+00  0.24628910779E+02  0.24628910779E+02  0.00000000000E+00 0. -1.
          1   -1    0    0  501    0 -0.00000000000E+00 -0.00000000000E+00 -0.22477311820E+04  0.22477311820E+04  0.00000000000E+00 0. -1.
         25    2    1    2    0    0 -0.28323100252E+02 -0.23077414499E+02 -0.19240816657E+03  0.23233821263E+03  0.12500150966E+03 0.  0.
          2    1    1    2  501    0  0.51807740500E+02  0.12385342477E+02 -0.19963680968E+04  0.19970786205E+04  0.00000000000E+00 0. -1.
          1    1    1    2  502    0 -0.23484640248E+02  0.10692072022E+02 -0.34326007889E+02  0.42943259649E+02  0.00000000000E+00 0. -1.
         22    1    3    3    0    0 -0.49455161571E+02  0.37827981968E+02 -0.67872120782E+02  0.92105341894E+02  0.00000000000E+00 0. -1.
         22    1    3    3    0    0  0.21132061319E+02 -0.60905396468E+02 -0.12453604579E+03  0.14023287073E+03  0.00000000000E+00 0. -1.
</event>
<event>
 7    1  0.6146596E-006  0.1607191E+03  0.7818608E-02  0.1198601E+00
          2   -1    0    0  502    0  0.00000000000E+00  0.00000000000E+00  0.11725034640E+04  0.11725034640E+04  0.00000000000E+00 0. -1.
          1   -1    0    0  501    0 -0.00000000000E+00 -0.00000000000E+00 -0.15008097553E+04  0.15008097553E+04  0.00000000000E+00 0. -1.
         25    2    1    2    0    0 -0.36134367336E+02  0.73018207677E+01  0.20073696150E+02  0.13185883030E+03  0.12499915504E+03 0.  0.
          2    1    1    2  501    0 -0.11421554733E+03  0.85835322328E+02 -0.14342131537E+04  0.14413119940E+04  0.00000000000E+00 0. -1.
          1    1    1    2  502    0  0.15034991466E+03 -0.93137143095E+02  0.10858331663E+04  0.11001423950E+04  0.00000000000E+00 0. -1.
         22    1    3    3    0    0 -0.80700111691E+02  0.14973540034E+01  0.29504993183E+02  0.85937737454E+02  0.00000000000E+00 0.  1.
         22    1    3    3    0    0  0.44565744356E+02  0.58044667642E+01 -0.94312970323E+01  0.45921092845E+02  0.00000000000E+00 0.  1.
</event>
<event>
 7    1  0.6146596E-006  0.8249709E+02  0.7818608E-02  0.1389983E+00
          2   -1    0    0  502    0  0.00000000000E+00  0.00000000000E+00  0.89937911806E+03  0.89937911806E+03  0.00000000000E+00 0. -1.
          1   -1    0    0  501    0 -0.00000000000E+00 -0.00000000000E+00 -0.57288174393E+03  0.57288174393E+03  0.00000000000E+00 0. -1.
         25    2    1    2    0    0 -0.72668603017E+02 -0.25533292407E+01 -0.79560184795E+01  0.14482850979E+03  0.12499901465E+03 0.  0.
          2    1    1    2  501    0  0.71160948404E+02 -0.43884020393E+02 -0.49231305576E+03  0.49936142492E+03  0.00000000000E+00 0. -1.
          1    1    1    2  502    0  0.15076546126E+01  0.46437349634E+02  0.82676644837E+03  0.82807092728E+03  0.00000000000E+00 0. -1.
         22    1    3    3    0    0  0.35261468571E+02  0.78378839407E+01 -0.20439129830E+00  0.36122643401E+02  0.00000000000E+00 0.  1.
         22    1    3    3    0    0 -0.10793007159E+03 -0.10391213181E+02 -0.77516271812E+01  0.10870586639E+03  0.00000000000E+00 0.  1.
</event>
<event>
 7    1  0.6146596E-006  0.1525438E+03  0.7818608E-02  0.1227172E+00
          2   -1    0    0  502    0  0.00000000000E+00  0.00000000000E+00  0.56550727296E+03  0.56550727296E+03  0.00000000000E+00 0. -1.
          1   -1    0    0  501    0 -0.00000000000E+00 -0.00000000000E+00 -0.65717682510E+03  0.65717682510E+03  0.00000000000E+00 0. -1.
         25    2    1    2    0    0  0.47842887800E+01  0.17540170147E+03 -0.17530176803E+03  0.27775070577E+03  0.12500439347E+03 0.  0.
          2    1    1    2  501    0  0.93274799837E+02 -0.12314451647E+03 -0.41042491205E+03  0.43853548164E+03  0.00000000000E+00 0. -1.
          1    1    1    2  502    0 -0.98059088617E+02 -0.52257184995E+02  0.49405712794E+03  0.50639791065E+03  0.00000000000E+00 0. -1.
         22    1    3    3    0    0  0.55658341922E+02  0.51368281467E+02 -0.94932476711E+02  0.12144433499E+03  0.00000000000E+00 0. -1.
         22    1    3    3    0    0 -0.50874053142E+02  0.12403342000E+03 -0.80369291316E+02  0.15630637078E+03  0.00000000000E+00 0. -1.
</event>
<event>
 7    1  0.6146596E-006  0.5410986E+02  0.7818608E-02  0.1560108E+00
          2   -1    0    0  502    0  0.00000000000E+00  0.00000000000E+00  0.22355168280E+03  0.22355168280E+03  0.00000000000E+00 0. -1.
          1   -1    0    0  501    0 -0.00000000000E+00 -0.00000000000E+00 -0.75701584718E+03  0.75701584718E+03  0.00000000000E+00 0. -1.
         25    2    1    2    0    0  0.59781073186E+02  0.46008112254E+01 -0.29249135689E+03  0.32368524265E+03  0.12500399304E+03 0.  0.
          2    1    1    2  501    0 -0.51767018121E+02  0.14847857322E+02 -0.44677439245E+03  0.45000848967E+03  0.00000000000E+00 0. -1.
          1    1    1    2  502    0 -0.80140550651E+01 -0.19448668547E+02  0.20580158496E+03  0.20687379766E+03  0.00000000000E+00 0. -1.
         22    1    3    3    0    0  0.42445938095E+02  0.36108580944E+02 -0.28018960280E+03  0.28567761690E+03  0.00000000000E+00 0.  1.
         22    1    3    3    0    0  0.17335135091E+02 -0.31507769719E+02 -0.12301754087E+02  0.38007625747E+02  0.00000000000E+00 0.  1.
</event>
<event>
 7    1  0.6146596E-006  0.1335344E+03  0.7818608E-02  0.1402203E+00
          2   -1    0    0  502    0  0.00000000000E+00  0.00000000000E+00  0.61167708189E+03  0.61167708189E+03  0.00000000000E+00 0. -1.
          1   -1    0    0  501    0 -0.00000000000E+00 -0.00000000000E+00 -0.88681195776E+03  0.88681195776E+03  0.00000000000E+00 0. -1.
         25    2    1    2    0    0  0.11734451508E+03  0.74322571026E+02 -0.53128714925E+03  0.56319099345E+03  0.12499792146E+03 0.  0.
          2    1    1    2  501    0  0.67624452118E+01 -0.25149010197E+02 -0.33157738869E+03  0.33259850883E+03  0.00000000000E+00 0. -1.
          1    1    1    2  502    0 -0.12410696029E+03 -0.49173560829E+02  0.58772966206E+03  0.60269953737E+03  0.00000000000E+00 0. -1.
         22    1    3    3    0    0 -0.12311048162E+02 -0.10851285767E+02 -0.15943889815E+03  0.16028123581E+03  0.00000000000E+00 0.  1.
         22    1    3    3    0    0  0.12965556324E+03  0.85173856793E+02 -0.37184825109E+03  0.40290975764E+03  0.00000000000E+00 0.  1.
</event>
<event>
 7    1  0.6146596E-006  0.6606330E+02  0.7818608E-02  0.1448963E+00
          2   -1    0    0  502    0  0.00000000000E+00  0.00000000000E+00  0.17395023699E+04  0.17395023699E+04  0.00000000000E+00 0. -1.
          1   -1    0    0  501    0 -0.00000000000E+00 -0.00000000000E+00 -0.77250799973E+03  0.77250799973E+03  0.00000000000E+00 0. -1.
         25    2    1    2    0    0  0.47328812987E+02  0.35942978952E+02 -0.37128886530E+02  0.14329938999E+03  0.12499698669E+03 0.  0.
          2    1    1    2  501    0 -0.66411599880E+02 -0.44279117486E+01 -0.68046872980E+03  0.68371616862E+03  0.00000000000E+00 0. -1.
          1    1    1    2  502    0  0.19082786894E+02 -0.31515067203E+02  0.16845919865E+04  0.16849948111E+04  0.00000000000E+00 0. -1.
         22    1    3    3    0    0  0.62392953893E+02  0.12019696103E+01  0.27657233924E+02  0.68258684537E+02  0.00000000000E+00 0.  1.
         22    1    3    3    0    0 -0.15064140906E+02  0.34741009341E+02 -0.64786120454E+02  0.75040705452E+02  0.00000000000E+00 0.  1.
</event>
<event>
 7    1  0.6146596E-006  0.5962756E+02  0.7818608E-02  0.1464659E+00
          2   -1    0    0  502    0  0.00000000000E+00  0.00000000000E+00  0.36177980920E+02  0.36177980920E+02  0.00000000000E+00 0. -1.
          1   -1    0    0  501    0 -0.00000000000E+00 -0.00000000000E+00 -0.55457030936E+03  0.55457030936E+03  0.00000000000E+00 0. -1.
         25    2    1    2    0    0 -0.48928408119E+02  0.60352454394E+02 -0.28646182474E+03  0.32205814701E+03  0.12499866060E+03 0.  0.
          2    1    1    2  501    0  0.51936352537E+02 -0.24075548341E+02 -0.22431025250E+03  0.23149968924E+03  0.00000000000E+00 0. -1.
          1    1    1    2  502    0 -0.30079444174E+01 -0.36276906052E+02 -0.76202512017E+01  0.37190454027E+02  0.00000000000E+00 0. -1.
         22    1    3    3    0    0 -0.40444071990E+02  0.39817418884E+02 -0.29177020419E+02  0.63815737293E+02  0.00000000000E+00 0. -1.
         22    1    3    3    0    0 -0.84843361298E+01  0.20535035509E+02 -0.25728480432E+03  0.25824240972E+03  0.00000000000E+00 0. -1.
</event>
<event>
 7    1  0.6146596E-006  0.7986536E+02  0.7818608E-02  0.1419519E+00
          2   -1    0    0  502    0  0.00000000000E+00  0.00000000000E+00  0.13585488198E+04  0.13585488198E+04  0.00000000000E+00 0. -1.
          1   -1    0    0  501    0 -0.00000000000E+00 -0.00000000000E+00 -0.13960886446E+03  0.13960886446E+03  0.00000000000E+00 0. -1.
         25    2    1    2    0    0 -0.56388164132E+02 -0.72927960817E+02  0.32706952558E+03  0.36207364076E+03  0.12499893697E+03 0.  0.
          2    1    1    2  501    0 -0.13666286831E+02  0.35506250838E+02 -0.11754506189E+03  0.12354878720E+03  0.00000000000E+00 0. -1.
          1    1    1    2  502    0  0.70054450963E+02  0.37421709979E+02  0.10094154917E+04  0.10125352563E+04  0.00000000000E+00 0. -1.
         22    1    3    3    0    0  0.25793045623E+02 -0.16213047078E+02  0.19035473995E+03  0.19277725779E+03  0.00000000000E+00 0.  1.
         22    1    3    3    0    0 -0.82181209755E+02 -0.56714913739E+02  0.13671478563E+03  0.16929638297E+03  0.00000000000E+00 0.  1.
</event>
<event>
 7    1  0.6146596E-006  0.6234583E+02  0.7818608E-02  0.1420981E+00
          2   -1    0    0  502    0  0.00000000000E+00  0.00000000000E+00  0.15376680478E+04  0.15376680478E+04  0.00000000000E+00 0. -1.
          1   -1    0    0  501    0 -0.00000000000E+00 -0.00000000000E+00 -0.60873776579E+02  0.60873776579E+02  0.00000000000E+00 0. -1.
         25    2    1    2    0    0  0.74390488458E+01 -0.95045332209E+02  0.10192419128E+03  0.18735721148E+03  0.12500091721E+03 0.  0.
          2    1    1    2  501    0 -0.22331372190E+02  0.49212059144E+02  0.23457867654E+02  0.58913398340E+02  0.00000000000E+00 0. -1.
          1    1    1    2  502    0  0.14892323344E+02  0.45833273065E+02  0.13514122123E+04  0.13522712146E+04  0.00000000000E+00 0. -1.
         22    1    3    3    0    0 -0.54998999884E+02 -0.25441542900E+02  0.22392015051E+02  0.64603130198E+02  0.00000000000E+00 0. -1.
         22    1    3    3    0    0  0.62438048730E+02 -0.69603789309E+02  0.79532176232E+02  0.12275408128E+03  0.00000000000E+00 0. -1.
</event>
<event>
 7    1  0.6146596E-006  0.1340306E+03  0.7818608E-02  0.1355938E+00
          2   -1    0    0  502    0  0.00000000000E+00  0.00000000000E+00  0.44229454817E+03  0.44229454817E+03  0.00000000000E+00 0. -1.
          1   -1    0    0  501    0 -0.00000000000E+00 -0.00000000000E+00 -0.28245027720E+04  0.28245027720E+04  0.00000000000E+00 0. -1.
         25    2    1    2    0    0  0.22937728853E+02  0.95358699388E+02  0.22494600943E+02  0.16047888366E+03  0.12501217570E+03 0.  0.
          2    1    1    2  501    0 -0.20374260930E+02 -0.13313374116E+03 -0.27528378456E+04  0.27561306043E+04  0.00000000000E+00 0. -1.
          1    1    1    2  502    0 -0.25634679229E+01  0.37775041767E+02  0.34813502082E+03  0.35018783227E+03  0.00000000000E+00 0. -1.
         22    1    3    3    0    0  0.46938692056E+02  0.87865924009E+02  0.59280104513E+02  0.11592149156E+03  0.00000000000E+00 0.  1.
         22    1    3    3    0    0 -0.24000963204E+02  0.74927753787E+01 -0.36785503570E+02  0.44557392097E+02  0.00000000000E+00 0.  1.
</event>
<event>
 7    1  0.6146596E-006  0.1011376E+03  0.7818608E-02  0.1444125E+00
          2   -1    0    0  502    0  0.00000000000E+00  0.00000000000E+00  0.10055640607E+04  0.10055640607E+04  0.00000000000E+00 0. -1.
          1   -1    0    0  501    0 -0.00000000000E+00 -0.00000000000E+00 -0.20818977022E+03  0.20818977022E+03  0.00000000000E+00 0. -1.
         25    2    1    2    0    0  0.69710087806E+02  0.33249644557E+02 -0.26458360557E+02  0.14929799634E+03  0.12499924665E+03 0.  0.
          2    1    1    2  501    0  0.24038867097E+02  0.66551712191E+01 -0.11623580133E+03  0.11888195803E+03  0.00000000000E+00 0. -1.
          1    1    1    2  502    0 -0.93748954902E+02 -0.39904815777E+02  0.94006845241E+03  0.94557387658E+03  0.00000000000E+00 0. -1.
         22    1    3    3    0    0  0.10695525470E+02 -0.22282508822E+02  0.38288978336E+02  0.45573570483E+02  0.00000000000E+00 0.  1.
         22    1    3    3    0    0  0.59014562336E+02  0.55532153379E+02 -0.64747338894E+02  0.10372442586E+03  0.00000000000E+00 0.  1.
</event>
<event>
 7    1  0.6146596E-006  0.3704284E+02  0.7818608E-02  0.1565364E+00
          2   -1    0    0  502    0  0.00000000000E+00  0.00000000000E+00  0.65609788340E+03  0.65609788340E+03  0.00000000000E+00 0. -1.
          1   -1    0    0  501    0 -0.00000000000E+00 -0.00000000000E+00 -0.47981989295E+02  0.47981989295E+02  0.00000000000E+00 0. -1.
         25    2    1    2    0    0  0.17133425121E+02 -0.72589190979E+01  0.16619205849E+03  0.20878661660E+03  0.12500321916E+03 0.  0.
          2    1    1    2  501    0 -0.12973985137E+02  0.36689993077E+02 -0.11746334899E+02  0.40650415323E+02  0.00000000000E+00 0. -1.
          1    1    1    2  502    0 -0.41594399835E+01 -0.29431073979E+02  0.45367017052E+03  0.45464284078E+03  0.00000000000E+00 0. -1.
         22    1    3    3    0    0  0.55181515290E+02  0.15923013225E+02  0.28598409056E+02  0.64159262624E+02  0.00000000000E+00 0. -1.
         22    1    3    3    0    0 -0.38048090170E+02 -0.23181932323E+02  0.13759364944E+03  0.14462735397E+03  0.00000000000E+00 0. -1.
</event>
<event>
 7    1  0.6146596E-006  0.7187577E+02  0.7818608E-02  0.1508685E+00
          2   -1    0    0  502    0  0.00000000000E+00  0.00000000000E+00  0.10732374481E+04  0.10732374481E+04  0.00000000000E+00 0. -1.
          1   -1    0    0  501    0 -0.00000000000E+00 -0.00000000000E+00 -0.21843746958E+04  0.21843746958E+04  0.00000000000E+00 0. -1.
         25    2    1    2    0    0  0.23834631222E+01  0.72692615405E+02  0.22275510091E+02  0.14631886649E+03  0.12499246022E+03 0.  0.
          2    1    1    2  501    0 -0.24018174362E+02 -0.67763485798E+02 -0.21216195912E+04  0.21228373589E+04  0.00000000000E+00 0. -1.
          1    1    1    2  502    0  0.21634711239E+02 -0.49291296071E+01  0.98820683343E+03  0.98845591843E+03  0.00000000000E+00 0. -1.
         22    1    3    3    0    0  0.13480281850E+02  0.10440533715E+03  0.34167910508E+02  0.11067808516E+03  0.00000000000E+00 0.  1.
         22    1    3    3    0    0 -0.11096818728E+02 -0.31712721750E+02 -0.11892400417E+02  0.35640781337E+02  0.00000000000E+00 0.  1.
</event>
<event>
 7    1  0.6146596E-006  0.6323928E+02  0.7818608E-02  0.1388450E+00
          2   -1    0    0  502    0  0.00000000000E+00  0.00000000000E+00  0.17941579340E+04  0.17941579340E+04  0.00000000000E+00 0. -1.
          1   -1    0    0  501    0 -0.00000000000E+00 -0.00000000000E+00 -0.10217724627E+03  0.10217724627E+03  0.00000000000E+00 0. -1.
         25    2    1    2    0    0  0.58929223981E+02 -0.58994999302E+02  0.45672437183E+02  0.15705149269E+03  0.12500454574E+03 0.  0.
          2    1    1    2  501    0 -0.61214084571E+02 -0.42686210888E+01 -0.25374886870E+02  0.66402335498E+02  0.00000000000E+00 0. -1.
          1    1    1    2  502    0  0.22848605898E+01  0.63263620391E+02  0.16716831374E+04  0.16728813520E+04  0.00000000000E+00 0. -1.
         22    1    3    3    0    0  0.39973239730E+02 -0.73121523368E+02  0.79902358737E+02  0.11545130578E+03  0.00000000000E+00 0. -1.
         22    1    3    3    0    0  0.18955984252E+02  0.14126524066E+02 -0.34229921554E+02  0.41600186908E+02  0.00000000000E+00 0. -1.
</event>
<event>
 7    1  0.6146596E-006  0.1466930E+03  0.7818608E-02  0.1387291E+00
          2   -1    0    0  502    0  0.00000000000E+00  0.00000000000E+00  0.55396790698E+03  0.55396790698E+03  0.00000000000E+00 0. -1.
          1   -1    0    0  501    0 -0.00000000000E+00 -0.00000000000E+00 -0.20213145831E+04  0.20213145831E+04  0.00000000000E+00 0. -1.
         25    2    1    2    0    0  0.28366080419E+02  0.16922254100E+03 -0.87385619133E+02  0.22957000593E+03  0.12500095316E+03 0.  0.
          2    1    1    2  501    0 -0.22775831496E+01 -0.26604418845E+02 -0.18518553572E+04  0.18520478521E+04  0.00000000000E+00 0. -1.
          1    1    1    2  502    0 -0.26088497270E+02 -0.14261812215E+03  0.47189430016E+03  0.49366463210E+03  0.00000000000E+00 0. -1.
         22    1    3    3    0    0 -0.27433941900E+02  0.14532221467E+03 -0.41881378240E+02  0.15370496768E+03  0.00000000000E+00 0.  1.
         22    1    3    3    0    0  0.55800022320E+02  0.23900326322E+02 -0.45504240893E+02  0.75865038248E+02  0.00000000000E+00 0.  1.
</event>
<event>
 7    1  0.6146596E-006  0.5247869E+02  0.7818608E-02  0.1520544E+00
          2   -1    0    0  502    0  0.00000000000E+00  0.00000000000E+00  0.43995712709E+02  0.43995712709E+02  0.00000000000E+00 0. -1.
          1   -1    0    0  501    0 -0.00000000000E+00 -0.00000000000E+00 -0.14707918068E+04  0.14707918068E+04  0.00000000000E+00 0. -1.
         25    2    1    2    0    0  0.24772095865E+02  0.49688322585E+02 -0.34289578636E+03  0.36916707379E+03  0.12499688769E+03 0.  0.
          2    1    1    2  501    0  0.31364296128E+01 -0.52576812878E+02 -0.11076251697E+04  0.11088767627E+04  0.00000000000E+00 0. -1.
          1    1    1    2  502    0 -0.27908525478E+02  0.28884902937E+01  0.23724861896E+02  0.36743683029E+02  0.00000000000E+00 0. -1.
         22    1    3    3    0    0  0.75414901235E+02  0.31928677621E+02 -0.18253986491E+03  0.20006911322E+03  0.00000000000E+00 0. -1.
         22    1    3    3    0    0 -0.50642805370E+02  0.17759644963E+02 -0.16035592145E+03  0.16909796057E+03  0.00000000000E+00 0. -1.
</event>
<event>
 7    1  0.6146596E-006  0.1494726E+03  0.7818608E-02  0.1296940E+00
          2   -1    0    0  502    0  0.00000000000E+00  0.00000000000E+00  0.10605264574E+04  0.10605264574E+04  0.00000000000E+00 0. -1.
          1   -1    0    0  501    0 -0.00000000000E+00 -0.00000000000E+00 -0.25201293242E+03  0.25201293242E+03  0.00000000000E+00 0. -1.
         25    2    1    2    0    0  0.12764643482E+03  0.80693147855E+02  0.13638659090E+03  0.23881176500E+03  0.12499904195E+03 0.  0.
          2    1    1    2  501    0 -0.88205637441E+02 -0.12215712155E+03 -0.17142865538E+03  0.22823317179E+03  0.00000000000E+00 0. -1.
          1    1    1    2  502    0 -0.39440797383E+02  0.41463973694E+02  0.84355558948E+03  0.84549445306E+03  0.00000000000E+00 0. -1.
         22    1    3    3    0    0  0.76798103106E+02  0.94340094273E+02  0.14068998315E+03  0.18598836895E+03  0.00000000000E+00 0. -1.
         22    1    3    3    0    0  0.50848331718E+02 -0.13646946418E+02 -0.43033922408E+01  0.52823396046E+02  0.00000000000E+00 0. -1.
</event>
<event>
 7    1  0.6146596E-006  0.1273084E+03  0.7818608E-02  0.1248542E+00
          2   -1    0    0  502    0  0.00000000000E+00  0.00000000000E+00  0.16019371121E+04  0.16019371121E+04  0.00000000000E+00 0. -1.
          1   -1    0    0  501    0 -0.00000000000E+00 -0.00000000000E+00 -0.24732417885E+03  0.24732417885E+03  0.00000000000E+00 0. -1.
         25    2    1    2    0    0  0.58687408427E+02  0.16507861135E+02  0.43401320559E+03  0.45575198222E+03  0.12500274113E+03 0.  0.
          2    1    1    2  501    0 -0.42500141553E+02  0.12000490547E+03 -0.21486746398E+03  0.24975080870E+03  0.00000000000E+00 0. -1.
          1    1    1    2  502    0 -0.16187266873E+02 -0.13651276660E+03  0.11354671916E+04  0.11437585000E+04  0.00000000000E+00 0. -1.
         22    1    3    3    0    0 -0.22209876907E+02  0.37318085688E+02  0.24896604820E+03  0.25272516952E+03  0.00000000000E+00 0.  1.
         22    1    3    3    0    0  0.80897285334E+02 -0.20810224553E+02  0.18504715738E+03  0.20302681270E+03  0.00000000000E+00 0.  1.
</event>
<event>
 7    1  0.6146596E-006  0.6653711E+02  0.7818608E-02  0.1412877E+00
          2   -1    0    0  502    0  0.00000000000E+00  0.00000000000E+00  0.14847942847E+03  0.14847942847E+03  0.00000000000E+00 0. -1.
          1   -1    0    0  501    0 -0.00000000000E+00 -0.00000000000E+00 -0.92645595236E+03  0.92645595236E+03  0.00000000000E+00 0. -1.
         25    2    1    2    0    0 -0.37762460520E+01 -0.83479635706E+02 -0.63795319474E+02  0.16333639830E+03  0.12500330640E+03 0.  0.
          2    1    1    2  501    0 -0.35714042079E+02  0.56064765833E+02 -0.80558560026E+03  0.80832351823E+03  0.00000000000E+00 0. -1.
          1    1    1    2  502    0  0.39490288131E+02  0.27414869873E+02  0.91404395847E+02  0.10327546430E+03  0.00000000000E+00 0. -1.
         22    1    3    3    0    0  0.43818315256E+02 -0.47283013348E+02 -0.78680046341E+02  0.10171665446E+03  0.00000000000E+00 0. -1.
         22    1    3    3    0    0 -0.47594561308E+02 -0.36196622358E+02  0.14884726867E+02  0.61619743833E+02  0.00000000000E+00 0. -1.
</event>
<event>
 7    1  0.6146596E-006  0.3168490E+02  0.7818608E-02  0.1624323E+00
          2   -1    0    0  502    0  0.00000000000E+00  0.00000000000E+00  0.10017555158E+04  0.10017555158E+04  0.00000000000E+00 0. -1.
          1   -1    0    0  501    0 -0.00000000000E+00 -0.00000000000E+00 -0.13432544125E+04  0.13432544125E+04  0.00000000000E+00 0. -1.
         25    2    1    2    0    0  0.20716183674E+02  0.29787548871E+02 -0.15053450690E+03  0.19900745669E+03  0.12500748665E+03 0.  0.
          2    1    1    2  501    0  0.10039154236E+02 -0.22142254905E+02 -0.11681000502E+04  0.11683530252E+04  0.00000000000E+00 0. -1.
          1    1    1    2  502    0 -0.30755337910E+02 -0.76452939665E+01  0.97713566039E+03  0.97764944645E+03  0.00000000000E+00 0. -1.
         22    1    3    3    0    0 -0.82142862300E+01 -0.33462612410E+02 -0.11666466796E+03  0.12164647828E+03  0.00000000000E+00 0. -1.
         22    1    3    3    0    0  0.28930469904E+02  0.63250161282E+02 -0.33869838938E+02  0.77360978411E+02  0.00000000000E+00 0. -1.
</event>
<event>
 7    1  0.6146596E-006  0.4260057E+02  0.7818608E-02  0.1540828E+00
          2   -1    0    0  502    0  0.00000000000E+00  0.00000000000E+00  0.12127356302E+04  0.12127356302E+04  0.00000000000E+00 0. -1.
          1   -1    0    0  501    0 -0.00000000000E+00 -0.00000000000E+00 -0.14464738477E+04  0.14464738477E+04  0.00000000000E+00 0. -1.
         25    2    1    2    0    0  0.42108871043E+02  0.25854674408E+02  0.19093906106E+03  0.23349100047E+03  0.12497480167E+03 0.  0.
          2    1    1    2  501    0 -0.42379642780E+02  0.43822626363E+01 -0.14246508680E+04  0.14252878074E+04  0.00000000000E+00 0. -1.
          1    1    1    2  502    0  0.27077173744E+00 -0.30236937044E+02  0.99997358950E+03  0.10004306700E+04  0.00000000000E+00 0. -1.
         22    1    3    3    0    0 -0.31378466915E+02  0.61635961842E+01  0.47127492135E+01  0.32323491596E+02  0.00000000000E+00 0.  1.
         22    1    3    3    0    0  0.73487337957E+02  0.19691078224E+02  0.18622631185E+03  0.20116750887E+03  0.00000000000E+00 0.  1.
</event>
<event>
 7    1  0.6146596E-006  0.2832941E+02  0.7818608E-02  0.1672665E+00
          2   -1    0    0  502    0  0.00000000000E+00  0.00000000000E+00  0.11486107477E+04  0.11486107477E+04  0.00000000000E+00 0. -1.
          1   -1    0    0  501    0 -0.00000000000E+00 -0.00000000000E+00 -0.94529171090E+03  0.94529171090E+03  0.00000000000E+00 0. -1.
         25    2    1    2    0    0  0.29089770289E+02  0.39414857252E+02 -0.12815520715E+03  0.18560260557E+03  0.12499929747E+03 0.  0.
          2    1    1    2  501    0 -0.12079024372E+02 -0.16790624510E+02 -0.78809822885E+03  0.78836961269E+03  0.00000000000E+00 0. -1.
          1    1    1    2  502    0 -0.17010745918E+02 -0.22624232741E+02  0.11195724728E+04  0.11199302403E+04  0.00000000000E+00 0. -1.
         22    1    3    3    0    0 -0.94065669161E+01  0.73353167484E+01 -0.13455709491E+03  0.13508479620E+03  0.00000000000E+00 0.  1.
         22    1    3    3    0    0  0.38496337205E+02  0.32079540503E+02  0.64018877598E+01  0.50517809375E+02  0.00000000000E+00 0.  1.
</event>
<event>
 7    1  0.6146596E-006  0.6194229E+02  0.7818608E-02  0.1412582E+00
          2   -1    0    0  502    0  0.00000000000E+00  0.00000000000E+00  0.23796005562E+04  0.23796005562E+04  0.00000000000E+00 0. -1.
          1   -1    0    0  501    0 -0.00000000000E+00 -0.00000000000E+00 -0.40679469087E+03  0.40679469087E+03  0.00000000000E+00 0. -1.
         25    2    1    2    0    0  0.18638357496E+02 -0.92171066288E+01  0.89958251218E+03  0.90846290567E+03  0.12499524527E+03 0.  0.
          2    1    1    2  501    0  0.25631154766E+02 -0.44965925496E+02 -0.39985616810E+03  0.40319207050E+03  0.00000000000E+00 0. -1.
          1    1    1    2  502    0 -0.44269512263E+02  0.54183032124E+02  0.14730795213E+04  0.14747402709E+04  0.00000000000E+00 0. -1.
         22    1    3    3    0    0 -0.51737367465E+02 -0.18860022031E+02  0.34916325400E+03  0.35347904261E+03  0.00000000000E+00 0.  1.
         22    1    3    3    0    0  0.70375724961E+02  0.96429154023E+01  0.55041925818E+03  0.55498386306E+03  0.00000000000E+00 0.  1.
</event>
<event>
 7    1  0.6146596E-006  0.1936579E+03  0.7818608E-02  0.1313217E+00
          2   -1    0    0  502    0  0.00000000000E+00  0.00000000000E+00  0.20504041153E+04  0.20504041153E+04  0.00000000000E+00 0. -1.
          1   -1    0    0  501    0 -0.00000000000E+00 -0.00000000000E+00 -0.27064812793E+04  0.27064812793E+04  0.00000000000E+00 0. -1.
         25    2    1    2    0    0  0.15964196610E+03  0.60671990832E+00 -0.87190044560E+01  0.20294411133E+03  0.12499746331E+03 0.  0.
          2    1    1    2  501    0  0.35093042805E+02 -0.14733872907E+02 -0.25956307463E+04  0.25959097789E+04  0.00000000000E+00 0. -1.
          1    1    1    2  502    0 -0.19473500890E+03  0.14127152998E+02  0.19482725868E+04  0.19580315045E+04  0.00000000000E+00 0. -1.
         22    1    3    3    0    0  0.14744061281E+02 -0.46386528834E+02 -0.13601383941E+02  0.50538055418E+02  0.00000000000E+00 0. -1.
         22    1    3    3    0    0  0.14489790482E+03  0.46993248743E+02  0.48823794848E+01  0.15240605591E+03  0.00000000000E+00 0. -1.
</event>
<event>
 7    1  0.6146596E-006  0.1781060E+03  0.7818608E-02  0.1198611E+00
          2   -1    0    0  502    0  0.00000000000E+00  0.00000000000E+00  0.16349191434E+04  0.16349191434E+04  0.00000000000E+00 0. -1.
          1   -1    0    0  501    0 -0.00000000000E+00 -0.00000000000E+00 -0.46469780223E+03  0.46469780223E+03  0.00000000000E+00 0. -1.
         25    2    1    2    0    0  0.80059916603E+02 -0.14856566603E+03  0.51747738131E+03  0.55847058185E+03  0.12500081305E+03 0.  0.
          2    1    1    2  501    0  0.46341900270E+02  0.17387933335E+03 -0.42196522405E+03  0.45873330443E+03  0.00000000000E+00 0. -1.
          1    1    1    2  502    0 -0.12640181687E+03 -0.25313667321E+02  0.10747091839E+04  0.10824130594E+04  0.00000000000E+00 0. -1.
         22    1    3    3    0    0  0.15217773291E+02 -0.23817716999E+01 -0.14399407617E+01  0.15470193592E+02  0.00000000000E+00 0.  1.
         22    1    3    3    0    0  0.64842143312E+02 -0.14618389433E+03  0.51891732207E+03  0.54300038826E+03  0.00000000000E+00 0.  1.
</event>
<event>
 7    1  0.6146596E-006  0.8242168E+02  0.7818608E-02  0.1481514E+00
          2   -1    0    0  502    0  0.00000000000E+00  0.00000000000E+00  0.23459586690E+04  0.23459586690E+04  0.00000000000E+00 0. -1.
          1   -1    0    0  501    0 -0.00000000000E+00 -0.00000000000E+00 -0.29769219722E+03  0.29769219722E+03  0.00000000000E+00 0. -1.
         25    2    1    2    0    0 -0.48654435483E+02 -0.48641165140E+02  0.38378288515E+02  0.14773039185E+03  0.12497263144E+03 0.  0.
          2    1    1    2  501    0  0.64887121388E+01 -0.22432064002E+02 -0.24169539039E+03  0.24282084469E+03  0.00000000000E+00 0. -1.
          1    1    1    2  502    0  0.42165723345E+02  0.71073229142E+02  0.22515835736E+04  0.22530996296E+04  0.00000000000E+00 0. -1.
         22    1    3    3    0    0 -0.28712108112E+02 -0.88029370021E+02  0.45234949105E+02  0.10305219920E+03  0.00000000000E+00 0.  1.
         22    1    3    3    0    0 -0.19942327372E+02  0.39388204882E+02 -0.68566605908E+01  0.44678192659E+02  0.00000000000E+00 0.  1.
</event>
<event>
 7    1  0.6146596E-006  0.5160628E+02  0.7818608E-02  0.1465762E+00
          2   -1    0    0  502    0  0.00000000000E+00  0.00000000000E+00  0.70348462788E+03  0.70348462788E+03  0.00000000000E+00 0. -1.
          1   -1    0    0  501    0 -0.00000000000E+00 -0.00000000000E+00 -0.84754399705E+03  0.84754399705E+03  0.00000000000E+00 0. -1.
         25    2    1    2    0    0 -0.66150064460E+02  0.55097544232E+02 -0.25559351706E+03  0.29726154266E+03  0.12499923351E+03 0.  0.
          2    1    1    2  501    0  0.26376603551E+02 -0.42482199603E+02 -0.56938205081E+03  0.57157360181E+03  0.00000000000E+00 0. -1.
          1    1    1    2  502    0  0.39773460909E+02 -0.12615344628E+02  0.68091619870E+03  0.68219348045E+03  0.00000000000E+00 0. -1.
         22    1    3    3    0    0 -0.82746172622E+02 -0.10979436065E+02 -0.14783315427E+03  0.16977078253E+03  0.00000000000E+00 0. -1.
         22    1    3    3    0    0  0.16596108163E+02  0.66076980297E+02 -0.10776036279E+03  0.12749076013E+03  0.00000000000E+00 0. -1.
</event>
<event>
 7    1  0.6146596E-006  0.8184419E+02  0.7818608E-02  0.1451375E+00
          2   -1    0    0  502    0  0.00000000000E+00  0.00000000000E+00  0.64849628972E+03  0.64849628972E+03  0.00000000000E+00 0. -1.
          1   -1    0    0  501    0 -0.00000000000E+00 -0.00000000000E+00 -0.11718733062E+04  0.11718733062E+04  0.00000000000E+00 0. -1.
         25    2    1    2    0    0  0.81951673202E+02  0.52504597248E+02 -0.18758464274E+03  0.24553287832E+03  0.12500234667E+03 0.  0.
          2    1    1    2  501    0 -0.37153272646E+01 -0.28977674178E+02 -0.95239619862E+03  0.95284417845E+03  0.00000000000E+00 0. -1.
          1    1    1    2  502    0 -0.78236345937E+02 -0.23526923070E+02  0.61660382487E+03  0.62199253916E+03  0.00000000000E+00 0. -1.
         22    1    3    3    0    0  0.43712704444E+02  0.36130266672E+02 -0.35136996333E+01  0.56820267376E+02  0.00000000000E+00 0.  1.
         22    1    3    3    0    0  0.38238968757E+02  0.16374330576E+02 -0.18407094310E+03  0.18871261094E+03  0.00000000000E+00 0.  1.
</event>
<event>
 7    1  0.6146596E-006  0.6339747E+02  0.7818608E-02  0.1475374E+00
          2   -1    0    0  502    0  0.00000000000E+00  0.00000000000E+00  0.10869679423E+04  0.10869679423E+04  0.00000000000E+00 0. -1.
          1   -1    0    0  501    0 -0.00000000000E+00 -0.00000000000E+00 -0.56453770348E+02  0.56453770348E+02  0.00000000000E+00 0. -1.
         25    2    1    2    0    0 -0.81761630617E+02 -0.40914348569E+02  0.61508754986E+02  0.16663514240E+03  0.12499998232E+03 0.  0.
          2    1    1    2  501    0  0.21428954870E+02  0.23370232279E+02  0.87904546994E+02  0.93448259726E+02  0.00000000000E+00 0. -1.
          1    1    1    2  502    0  0.60332675747E+02  0.17544116290E+02  0.88110086997E+03  0.88333831052E+03  0.00000000000E+00 0. -1.
         22    1    3    3    0    0 -0.17538848432E+02  0.49004307181E+01  0.82916375244E+02  0.84892583358E+02  0.00000000000E+00 0.  1.
         22    1    3    3    0    0 -0.64222782185E+02 -0.45814779288E+02 -0.21407620259E+02  0.81742559037E+02  0.00000000000E+00 0.  1.
</event>
<event>
 7    1  0.6146596E-006  0.1139702E+03  0.7818608E-02  0.1317783E+00
          2   -1    0    0  502    0  0.00000000000E+00  0.00000000000E+00  0.10777426919E+04  0.10777426919E+04  0.00000000000E+00 0. -1.
          1   -1    0    0  501    0 -0.00000000000E+00 -0.00000000000E+00 -0.12176718366E+04  0.12176718366E+04  0.00000000000E+00 0. -1.
         25    2    1    2    0    0  0.16380812649E+03 -0.33132132478E+02  0.10789863885E+03  0.23494397196E+03  0.12500285272E+03 0.  0.
          2    1    1    2  501    0 -0.10319048488E+03  0.46478971417E+02 -0.11503061646E+04  0.11558602178E+04  0.00000000000E+00 0. -1.
          1    1    1    2  502    0 -0.60617641608E+02 -0.13346838939E+02  0.90247838109E+03  0.90461033872E+03  0.00000000000E+00 0. -1.
         22    1    3    3    0    0  0.13305987454E+03 -0.73170722682E+02  0.54182430838E+02  0.16122847355E+03  0.00000000000E+00 0. -1.
         22    1    3    3    0    0  0.30748251946E+02  0.40038590204E+02  0.53716208009E+02  0.73715498412E+02  0.00000000000E+00 0. -1.
</event>
<event>
 7    1  0.6146596E-006  0.1913511E+03  0.7818608E-02  0.1197161E+00
          2   -1    0    0  502    0  0.00000000000E+00  0.00000000000E+00  0.54952898351E+03  0.54952898351E+03  0.00000000000E+00 0. -1.
          1   -1    0    0  501    0 -0.00000000000E+00 -0.00000000000E+00 -0.15640428488E+04  0.15640428488E+04  0.00000000000E+00 0. -1.
         25    2    1    2    0    0  0.13643960480E+03  0.27160668339E+03 -0.12729173350E+03  0.35243939748E+03  0.12499754903E+03 0.  0.
          2    1    1    2  501    0 -0.64116462294E+02 -0.17347949000E+03 -0.13090467712E+04  0.13220474664E+04  0.00000000000E+00 0. -1.
          1    1    1    2  502    0 -0.72323142503E+02 -0.98127193387E+02  0.42182463945E+03  0.43908496840E+03  0.00000000000E+00 0. -1.
         22    1    3    3    0    0  0.77163574497E+02  0.38847776897E+02 -0.51502015819E+02  0.10057745589E+03  0.00000000000E+00 0. -1.
         22    1    3    3    0    0  0.59276030299E+02  0.23275890649E+03 -0.75789717676E+02  0.25186194160E+03  0.00000000000E+00 0. -1.
</event>
<event>
 7    1  0.6146596E-006  0.1886739E+03  0.7818608E-02  0.1273786E+00
          2   -1    0    0  502    0  0.00000000000E+00  0.00000000000E+00  0.14092209164E+04  0.14092209164E+04  0.00000000000E+00 0. -1.
          1   -1    0    0  501    0 -0.00000000000E+00 -0.00000000000E+00 -0.17253252250E+04  0.17253252250E+04  0.00000000000E+00 0. -1.
         25    2    1    2    0    0 -0.35880755287E+02 -0.16210736474E+03 -0.23388442677E+03  0.31286436459E+03  0.12496383173E+03 0.  0.
          2    1    1    2  501    0 -0.56307124795E+02 -0.33195454444E+01 -0.14448519842E+04  0.14459525469E+04  0.00000000000E+00 0. -1.
          1    1    1    2  502    0  0.92187880082E+02  0.16542691019E+03  0.13626321023E+04  0.13757292299E+04  0.00000000000E+00 0. -1.
         22    1    3    3    0    0 -0.50682133671E+02 -0.62720710874E+02 -0.30873240847E+02  0.86346530019E+02  0.00000000000E+00 0. -1.
         22    1    3    3    0    0  0.14801378384E+02 -0.99386653871E+02 -0.20301118593E+03  0.22651783457E+03  0.00000000000E+00 0. -1.
</event>
<event>
 7    1  0.6146596E-006  0.1349442E+03  0.7818608E-02  0.1329881E+00
          2   -1    0    0  502    0  0.00000000000E+00  0.00000000000E+00  0.15193735413E+04  0.15193735413E+04  0.00000000000E+00 0. -1.
          1   -1    0    0  501    0 -0.00000000000E+00 -0.00000000000E+00 -0.22496011643E+03  0.22496011643E+03  0.00000000000E+00 0. -1.
         25    2    1    2    0    0 -0.77753831330E+02 -0.81488946218E+02  0.68104798287E+03  0.70152547814E+03  0.12500213945E+03 0.  0.
          2    1    1    2  501    0 -0.16965062048E+01 -0.47051136367E+02 -0.20513843535E+03  0.21047200580E+03  0.00000000000E+00 0. -1.
          1    1    1    2  502    0  0.79450337535E+02  0.12854008259E+03  0.81850387737E+03  0.83233617381E+03  0.00000000000E+00 0. -1.
         22    1    3    3    0    0 -0.67415862746E+02 -0.11453752585E+03  0.51210252680E+03  0.52906780409E+03  0.00000000000E+00 0. -1.
         22    1    3    3    0    0 -0.10337968584E+02  0.33048579628E+02  0.16894545608E+03  0.17245767405E+03  0.00000000000E+00 0. -1.
</event>
<event>
 7    1  0.6146596E-006  0.4262113E+02  0.7818608E-02  0.1523088E+00
          2   -1    0    0  502    0  0.00000000000E+00  0.00000000000E+00  0.57587848775E+03  0.57587848775E+03  0.00000000000E+00 0. -1.
          1   -1    0    0  501    0 -0.00000000000E+00 -0.00000000000E+00 -0.14670011061E+03  0.14670011061E+03  0.00000000000E+00 0. -1.
         25    2    1    2    0    0  0.30078014933E+02  0.31140132164E+01  0.30070426336E+03  0.32704942460E+03  0.12499555219E+03 0.  0.
          2    1    1    2  501    0 -0.22837779560E+02 -0.36298770129E+02 -0.12893951108E+03  0.13588437145E+03  0.00000000000E+00 0. -1.
          1    1    1    2  502    0 -0.72402353730E+01  0.33184756913E+02  0.25741362486E+03  0.25964480231E+03  0.00000000000E+00 0. -1.
         22    1    3    3    0    0  0.41500062915E+02 -0.23404959975E+02  0.29343008737E+03  0.29727304544E+03  0.00000000000E+00 0.  1.
         22    1    3    3    0    0 -0.11422047982E+02  0.26518973192E+02  0.72741759907E+01  0.29776379155E+02  0.00000000000E+00 0.  1.
</event>
<event>
 7    1  0.6146596E-006  0.8178139E+02  0.7818608E-02  0.1405900E+00
          2   -1    0    0  502    0  0.00000000000E+00  0.00000000000E+00  0.51865249616E+03  0.51865249616E+03  0.00000000000E+00 0. -1.
          1   -1    0    0  501    0 -0.00000000000E+00 -0.00000000000E+00 -0.48963517924E+04  0.48963517924E+04  0.00000000000E+00 0. -1.
         25    2    1    2    0    0 -0.37711876736E+02 -0.67025096850E+02 -0.63199772632E+03  0.64881467548E+03  0.12499923116E+03 0.  0.
          2    1    1    2  501    0 -0.59270278959E+00  0.82474362688E+02 -0.42547094415E+04  0.42555087597E+04  0.00000000000E+00 0. -1.
          1    1    1    2  502    0  0.38304579525E+02 -0.15449265838E+02  0.50900787164E+03  0.51068085339E+03  0.00000000000E+00 0. -1.
         22    1    3    3    0    0 -0.36260668333E+02 -0.98602212832E+02 -0.56562533512E+03  0.57529927184E+03  0.00000000000E+00 0.  1.
         22    1    3    3    0    0 -0.14512084025E+01  0.31577115982E+02 -0.66372391197E+02  0.73515403643E+02  0.00000000000E+00 0.  1.
</event>
<event>
 7    1  0.6146596E-006  0.1231537E+03  0.7818608E-02  0.1299700E+00
          2   -1    0    0  502    0  0.00000000000E+00  0.00000000000E+00  0.12918264417E+04  0.12918264417E+04  0.00000000000E+00 0. -1.
          1   -1    0    0  501    0 -0.00000000000E+00 -0.00000000000E+00 -0.47137064827E+03  0.47137064827E+03  0.00000000000E+00 0. -1.
         25    2    1    2    0    0  0.16964248917E+03  0.44419477727E+02  0.32999330663E+02  0.21786636571E+03  0.12500053341E+03 0.  0.
          2    1    1    2  501    0 -0.11962765519E+03  0.12163840136E+01 -0.36847943409E+03  0.38741366628E+03  0.00000000000E+00 0. -1.
          1    1    1    2  502    0 -0.50014833979E+02 -0.45635861741E+02  0.11559358968E+04  0.11579170579E+04  0.00000000000E+00 0. -1.
         22    1    3    3    0    0  0.61841970040E+02 -0.36999856301E+02 -0.16606316951E+02  0.73953961270E+02  0.00000000000E+00 0. -1.
         22    1    3    3    0    0  0.10780051913E+03  0.81419334029E+02  0.49605647614E+02  0.14391240444E+03  0.00000000000E+00 0. -1.
</event>
<event>
 7    1  0.6146596E-006  0.1215000E+03  0.7818608E-02  0.1352983E+00
          2   -1    0    0  502    0  0.00000000000E+00  0.00000000000E+00  0.36130894460E+04  0.36130894460E+04  0.00000000000E+00 0. -1.
          1   -1    0    0  501    0 -0.00000000000E+00 -0.00000000000E+00 -0.63380406170E+03  0.63380406170E+03  0.00000000000E+00 0. -1.
         25    2    1    2    0    0  0.79300189114E+02 -0.10166022595E+02 -0.92111097530E+02  0.17464850211E+03  0.12500310793E+03 0.  0.
          2    1    1    2  501    0  0.42444265238E+02  0.57029308392E+01 -0.49846704616E+03  0.50030334316E+03  0.00000000000E+00 0. -1.
          1    1    1    2  502    0 -0.12174445435E+03  0.44630917554E+01  0.35698635280E+04  0.35719416624E+04  0.00000000000E+00 0. -1.
         22    1    3    3    0    0  0.77296604320E+02  0.46542410346E+02 -0.44639651372E+02  0.10066607907E+03  0.00000000000E+00 0.  1.
         22    1    3    3    0    0  0.20035847932E+01 -0.56708432940E+02 -0.47471446158E+02  0.73982423040E+02  0.00000000000E+00 0.  1.
</event>
<event>
 7    1  0.6146596E-006  0.1786029E+03  0.7818608E-02  0.1338221E+00
          2   -1    0    0  502    0  0.00000000000E+00  0.00000000000E+00  0.32877312921E+03  0.32877312921E+03  0.00000000000E+00 0. -1.
          1   -1    0    0  501    0 -0.00000000000E+00 -0.00000000000E+00 -0.29211635731E+03  0.29211635731E+03  0.00000000000E+00 0. -1.
         25    2    1    2    0    0  0.27360047796E+02  0.16280865829E+03 -0.49832514346E+02  0.21301039968E+03  0.12503967153E+03 0.  0.
          2    1    1    2  501    0 -0.55563689074E+02 -0.18007973914E+03 -0.10351719990E+03  0.21501592189E+03  0.00000000000E+00 0. -1.
          1    1    1    2  502    0  0.28203641279E+02  0.17271080854E+02  0.19000648615E+03  0.19286316495E+03  0.00000000000E+00 0. -1.
         22    1    3    3    0    0  0.63779698265E+02  0.57419018141E+02 -0.54058362430E+02  0.10142534251E+03  0.00000000000E+00 0. -1.
         22    1    3    3    0    0 -0.36419650469E+02  0.10538964015E+03  0.42258480843E+01  0.11158505716E+03  0.00000000000E+00 0. -1.
</event>
<event>
 7    1  0.6146596E-006  0.1121876E+03  0.7818608E-02  0.1393267E+00
          2   -1    0    0  502    0  0.00000000000E+00  0.00000000000E+00  0.18571770816E+03  0.18571770816E+03  0.00000000000E+00 0. -1.
          1   -1    0    0  501    0 -0.00000000000E+00 -0.00000000000E+00 -0.70347931749E+03  0.70347931749E+03  0.00000000000E+00 0. -1.
         25    2    1    2    0    0  0.59437832343E+02  0.12635404701E+03  0.17595757609E+02  0.18822926410E+03  0.12498977587E+03 0.  0.
          2    1    1    2  501    0 -0.33261224142E+02 -0.10580647463E+03 -0.60960033300E+03  0.61960784784E+03  0.00000000000E+00 0. -1.
          1    1    1    2  502    0 -0.26176608201E+02 -0.20547572380E+02  0.74242966064E+02  0.81359913702E+02  0.00000000000E+00 0. -1.
         22    1    3    3    0    0  0.80696486608E+01  0.17621138030E+02  0.58169222353E+02  0.61312985281E+02  0.00000000000E+00 0.  1.
         22    1    3    3    0    0  0.51368183682E+02  0.10873290898E+03 -0.40573464743E+02  0.12691627882E+03  0.00000000000E+00 0.  1.
</event>
<event>
 7    1  0.6146596E-006  0.1284038E+03  0.7818608E-02  0.1325509E+00
          2   -1    0    0  502    0  0.00000000000E+00  0.00000000000E+00  0.17761478840E+04  0.17761478840E+04  0.00000000000E+00 0. -1.
          1   -1    0    0  501    0 -0.00000000000E+00 -0.00000000000E+00 -0.14890441121E+03  0.14890441121E+03  0.00000000000E+00 0. -1.
         25    2    1    2    0    0  0.15546983487E+03  0.68572202426E+02  0.11773447737E+03  0.24157629413E+03  0.12499872889E+03 0.  0.
          2    1    1    2  501    0 -0.51289459342E+02  0.37573486263E+01 -0.76623212602E+02  0.92281325401E+02  0.00000000000E+00 0. -1.
          1    1    1    2  502    0 -0.10418037553E+03 -0.72329551053E+02  0.15861322080E+04  0.15911946757E+04  0.00000000000E+00 0. -1.
         22    1    3    3    0    0  0.17050780536E+03  0.75558047582E+02  0.85155598259E+02  0.20502050180E+03  0.00000000000E+00 0. -1.
         22    1    3    3    0    0 -0.15037970490E+02 -0.69858451552E+01  0.32578879112E+02  0.36555792334E+02  0.00000000000E+00 0. -1.
</event>
<event>
 7    1  0.6146596E-006  0.7521244E+02  0.7818608E-02  0.1371013E+00
          2   -1    0    0  502    0  0.00000000000E+00  0.00000000000E+00  0.44781599776E+03  0.44781599776E+03  0.00000000000E+00 0. -1.
          1   -1    0    0  501    0 -0.00000000000E+00 -0.00000000000E+00 -0.25008921830E+04  0.25008921830E+04  0.00000000000E+00 0. -1.
         25    2    1    2    0    0  0.82660689461E+01 -0.21484834148E+02  0.22257574425E+02  0.12903713287E+03  0.12500102418E+03 0.  0.
          2    1    1    2  501    0 -0.65399151132E+02  0.38035326483E+02 -0.24445367576E+04  0.24457071972E+04  0.00000000000E+00 0. -1.
          1    1    1    2  502    0  0.57133082186E+02 -0.16550492335E+02  0.36920299799E+03  0.37396385066E+03  0.00000000000E+00 0. -1.
         22    1    3    3    0    0  0.15169068413E+02 -0.71298365361E+02 -0.25980106603E+01  0.72940435967E+02  0.00000000000E+00 0. -1.
         22    1    3    3    0    0 -0.69029994667E+01  0.49813531213E+02  0.24855585086E+02  0.56096696904E+02  0.00000000000E+00 0. -1.
</event>
<event>
 7    1  0.6146596E-006  0.7059800E+02  0.7818608E-02  0.1409282E+00
          2   -1    0    0  502    0  0.00000000000E+00  0.00000000000E+00  0.24035312850E+03  0.24035312850E+03  0.00000000000E+00 0. -1.
          1   -1    0    0  501    0 -0.00000000000E+00 -0.00000000000E+00 -0.54124826103E+03  0.54124826103E+03  0.00000000000E+00 0. -1.
         25    2    1    2    0    0 -0.46452038897E+02 -0.28864007667E+02 -0.73975051554E+02  0.15520685379E+03  0.12500374536E+03 0.  0.
          2    1    1    2  501    0  0.24170488021E+02 -0.39835760560E+02 -0.41879400862E+03  0.42137812232E+03  0.00000000000E+00 0. -1.
          1    1    1    2  502    0  0.22281550876E+02  0.68699768227E+02  0.19187392765E+03  0.20501641343E+03  0.00000000000E+00 0. -1.
         22    1    3    3    0    0  0.60670869165E+01  0.29229900976E+02 -0.70790453678E+02  0.76827631661E+02  0.00000000000E+00 0. -1.
         22    1    3    3    0    0 -0.52519125813E+02 -0.58093908643E+02 -0.31845978764E+01  0.78379222127E+02  0.00000000000E+00 0. -1.
</event>
<event>
 7    1  0.1218247E-005  0.6094598E+02  0.7818608E-02  0.1421789E+00
          2   -1    0    0  502    0  0.00000000000E+00  0.00000000000E+00  0.11214983559E+04  0.11214983559E+04  0.00000000000E+00 0. -1.
          1   -1    0    0  501    0 -0.00000000000E+00 -0.00000000000E+00 -0.13332316674E+04  0.13332316674E+04  0.00000000000E+00 0. -1.
         25    2    1    2    0    0  0.36699726273E+02 -0.51779230020E+02 -0.23539946870E+03  0.27397989091E+03  0.12499644871E+03 0.  0.
          2    1    1    2  501    0 -0.48318759708E+02 -0.81065297116E+01 -0.10771406644E+04  0.10782543434E+04  0.00000000000E+00 0. -1.
          1    1    1    2  502    0  0.11619033435E+02  0.59885759732E+02  0.11008068216E+04  0.11024957890E+04  0.00000000000E+00 0. -1.
         22    1    3    3    0    0  0.75344574105E+02 -0.38774818504E+02 -0.20868763672E+03  0.22523503528E+03  0.00000000000E+00 0. -1.
         22    1    3    3    0    0 -0.38644847832E+02 -0.13004411516E+02 -0.26711831980E+02  0.48744855632E+02  0.00000000000E+00 0. -1.
</event>
<event>
 7    1  0.6146596E-006  0.9508542E+02  0.7818608E-02  0.1354729E+00
          2   -1    0    0  502    0  0.00000000000E+00  0.00000000000E+00  0.42135549393E+03  0.42135549393E+03  0.00000000000E+00 0. -1.
          1   -1    0    0  501    0 -0.00000000000E+00 -0.00000000000E+00 -0.88050994271E+03  0.88050994271E+03  0.00000000000E+00 0. -1.
         25    2    1    2    0    0 -0.31354771781E+02 -0.37138484763E+02 -0.78887018229E+02  0.15559597112E+03  0.12499822327E+03 0.  0.
          2    1    1    2  501    0  0.81932765484E+02  0.55820335069E+02 -0.75812727854E+03  0.76458214623E+03  0.00000000000E+00 0. -1.
          1    1    1    2  502    0 -0.50577993703E+02 -0.18681850305E+02  0.37785984799E+03  0.38168731929E+03  0.00000000000E+00 0. -1.
         22    1    3    3    0    0 -0.46034414480E+02 -0.15857924859E+02  0.20553614415E+02  0.52849712988E+02  0.00000000000E+00 0.  1.
         22    1    3    3    0    0  0.14679642699E+02 -0.21280559905E+02 -0.99440632644E+02  0.10274625813E+03  0.00000000000E+00 0.  1.
</event>
<event>
 7    1  0.6146596E-006  0.2017552E+03  0.7818608E-02  0.1348712E+00
          2   -1    0    0  502    0  0.00000000000E+00  0.00000000000E+00  0.10654067128E+04  0.10654067128E+04  0.00000000000E+00 0. -1.
          1   -1    0    0  501    0 -0.00000000000E+00 -0.00000000000E+00 -0.18698718448E+04  0.18698718448E+04  0.00000000000E+00 0. -1.
         25    2    1    2    0    0  0.12310004012E+03 -0.13461859046E+03  0.31796699944E+03  0.38728742670E+03  0.12495100388E+03 0.  0.
          2    1    1    2  501    0 -0.12168406222E+03  0.16132721891E+03 -0.18293954840E+04  0.18405220236E+04  0.00000000000E+00 0. -1.
          1    1    1    2  502    0 -0.14159779042E+01 -0.26708628444E+02  0.70696335257E+03  0.70746910725E+03  0.00000000000E+00 0. -1.
         22    1    3    3    0    0  0.13040849268E+02 -0.49265276685E+02  0.13874453053E+02  0.52816963979E+02  0.00000000000E+00 0. -1.
         22    1    3    3    0    0  0.11005919085E+03 -0.85353313777E+02  0.30409254639E+03  0.33447046272E+03  0.00000000000E+00 0. -1.
</event>
<event>
 7    1  0.6146596E-006  0.2368240E+03  0.7818608E-02  0.1248487E+00
          2   -1    0    0  502    0  0.00000000000E+00  0.00000000000E+00  0.88770723579E+03  0.88770723579E+03  0.00000000000E+00 0. -1.
          1   -1    0    0  501    0 -0.00000000000E+00 -0.00000000000E+00 -0.12382607058E+04  0.12382607058E+04  0.00000000000E+00 0. -1.
         25    2    1    2    0    0 -0.17077240915E+03  0.10577092575E+03  0.16733885246E+03  0.28979055940E+03  0.12500228925E+03 0.  0.
          2    1    1    2  501    0  0.17446640604E+03 -0.16324841607E+03 -0.11636143314E+04  0.11878917814E+04  0.00000000000E+00 0. -1.
          1    1    1    2  502    0 -0.36939968905E+01  0.57477490316E+02  0.64572200886E+03  0.64828560082E+03  0.00000000000E+00 0. -1.
         22    1    3    3    0    0 -0.83366614916E+02  0.10774228321E+02  0.13105811042E+03  0.15569940522E+03  0.00000000000E+00 0. -1.
         22    1    3    3    0    0 -0.87405794230E+02  0.94996697432E+02  0.36280742041E+02  0.13409115419E+03  0.00000000000E+00 0. -1.
</event>
<event>
 7    1  0.6146596E-006  0.6878502E+02  0.7818608E-02  0.1433294E+00
          2   -1    0    0  502    0  0.00000000000E+00  0.00000000000E+00  0.12424343010E+03  0.12424343010E+03  0.00000000000E+00 0. -1.
          1   -1    0    0  501    0 -0.00000000000E+00 -0.00000000000E+00 -0.39874895932E+03  0.39874895932E+03  0.00000000000E+00 0. -1.
         25    2    1    2    0    0  0.41558680814E+02  0.31715098738E+02 -0.92885488036E+02  0.16427591430E+03  0.12500356271E+03 0.  0.
          2    1    1    2  501    0 -0.17526830985E+02  0.35702434884E+02 -0.25389988891E+03  0.25699612302E+03  0.00000000000E+00 0. -1.
          1    1    1    2  502    0 -0.24031849830E+02 -0.67417533622E+02  0.72279847722E+02  0.10172035211E+03  0.00000000000E+00 0. -1.
         22    1    3    3    0    0 -0.79491790581E+01  0.50229908008E+02 -0.98769292855E+02  0.11109278247E+03  0.00000000000E+00 0.  1.
         22    1    3    3    0    0  0.49507859872E+02 -0.18514809270E+02  0.58838048192E+01  0.53183131824E+02  0.00000000000E+00 0.  1.
</event>
<event>
 7    1  0.6146596E-006  0.4195832E+02  0.7818608E-02  0.1525415E+00
          2   -1    0    0  502    0  0.00000000000E+00  0.00000000000E+00  0.81828338641E+03  0.81828338641E+03  0.00000000000E+00 0. -1.
          1   -1    0    0  501    0 -0.00000000000E+00 -0.00000000000E+00 -0.16708401223E+04  0.16708401223E+04  0.00000000000E+00 0. -1.
         25    2    1    2    0    0  0.33795422536E+02  0.59978968869E+02  0.26613377154E+03  0.30197860031E+03  0.12499713357E+03 0.  0.
          2    1    1    2  501    0 -0.52159024650E+01 -0.41612313290E+02 -0.16521112488E+04  0.16526434487E+04  0.00000000000E+00 0. -1.
          1    1    1    2  502    0 -0.28579520071E+02 -0.18366655579E+02  0.53342074140E+03  0.53450145964E+03  0.00000000000E+00 0. -1.
         22    1    3    3    0    0  0.42040654484E+02  0.65020957989E+02  0.66369413207E+02  0.10198058941E+03  0.00000000000E+00 0.  1.
         22    1    3    3    0    0 -0.82452319485E+01 -0.50419891199E+01  0.19976435833E+03  0.19999801090E+03  0.00000000000E+00 0.  1.
</event>
<event>
 7    1  0.6146596E-006  0.5462859E+02  0.7818608E-02  0.1450021E+00
          2   -1    0    0  502    0  0.00000000000E+00  0.00000000000E+00  0.65684885613E+03  0.65684885613E+03  0.00000000000E+00 0. -1.
          1   -1    0    0  501    0 -0.00000000000E+00 -0.00000000000E+00 -0.92273956163E+02  0.92273956163E+02  0.00000000000E+00 0. -1.
         25    2    1    2    0    0  0.11728220373E+02 -0.38074793618E+02  0.54896957039E+02  0.14221994488E+03  0.12500238304E+03 0.  0.
          2    1    1    2  501    0  0.40234764451E+02  0.18316465370E+02 -0.36851591232E+02  0.57553183668E+02  0.00000000000E+00 0. -1.
          1    1    1    2  502    0 -0.51962984823E+02  0.19758328249E+02  0.54652953415E+03  0.54934968374E+03  0.00000000000E+00 0. -1.
         22    1    3    3    0    0  0.18520888909E+02  0.41327864713E+02 -0.28168246455E+00  0.45289017131E+02  0.00000000000E+00 0.  1.
         22    1    3    3    0    0 -0.67926685360E+01 -0.79402658331E+02  0.55178639504E+02  0.96930927744E+02  0.00000000000E+00 0.  1.
</event>
<event>
 7    1  0.6146596E-006  0.1936329E+03  0.7818608E-02  0.1281319E+00
          2   -1    0    0  502    0  0.00000000000E+00  0.00000000000E+00  0.14897544266E+04  0.14897544266E+04  0.00000000000E+00 0. -1.
          1   -1    0    0  501    0 -0.00000000000E+00 -0.00000000000E+00 -0.20739499834E+04  0.20739499834E+04  0.00000000000E+00 0. -1.
         25    2    1    2    0    0  0.65168086897E+02 -0.15173020461E+03 -0.64937561894E+02  0.21705071096E+03  0.12500075856E+03 0.  0.
          2    1    1    2  501    0 -0.34533962132E+02  0.19268525671E+03 -0.19275342872E+04  0.19374490009E+04  0.00000000000E+00 0. -1.
          1    1    1    2  502    0 -0.30634124765E+02 -0.40955052100E+02  0.14082762923E+04  0.14092046982E+04  0.00000000000E+00 0. -1.
         22    1    3    3    0    0  0.29416570761E+02 -0.12182691998E+02  0.30628010528E+02  0.44179493530E+02  0.00000000000E+00 0.  1.
         22    1    3    3    0    0  0.35751516136E+02 -0.13954751261E+03 -0.95565572422E+02  0.17287121743E+03  0.00000000000E+00 0.  1.
</event>
<event>
 7    1  0.6146596E-006  0.1028760E+03  0.7818608E-02  0.1442394E+00
          2   -1    0    0  502    0  0.00000000000E+00  0.00000000000E+00  0.27021558140E+04  0.27021558140E+04  0.00000000000E+00 0. -1.
          1   -1    0    0  501    0 -0.00000000000E+00 -0.00000000000E+00 -0.83028436698E+02  0.83028436698E+02  0.00000000000E+00 0. -1.
         25    2    1    2    0    0  0.29435127441E+02  0.80964067281E+02  0.23871263613E+04  0.23919485633E+04  0.12499623155E+03 0.  0.
          2    1    1    2  501    0 -0.53139862370E+02 -0.88385644022E+02 -0.46855296927E+02  0.11327526602E+03  0.00000000000E+00 0. -1.
          1    1    1    2  502    0  0.23704734930E+02  0.74215767410E+01  0.27885631289E+03  0.27996042131E+03  0.00000000000E+00 0. -1.
         22    1    3    3    0    0 -0.59204901420E+01  0.10226315383E+03  0.12960249928E+04  0.13000667624E+04  0.00000000000E+00 0.  1.
         22    1    3    3    0    0  0.35355617582E+02 -0.21299086554E+02  0.10911013685E+04  0.10918818009E+04  0.00000000000E+00 0.  1.
</event>
<event>
 7    1  0.6146596E-006  0.5459707E+02  0.7818608E-02  0.1459437E+00
          2   -1    0    0  502    0  0.00000000000E+00  0.00000000000E+00  0.14841885977E+03  0.14841885977E+03  0.00000000000E+00 0. -1.
          1   -1    0    0  501    0 -0.00000000000E+00 -0.00000000000E+00 -0.73878638554E+03  0.73878638554E+03  0.00000000000E+00 0. -1.
         25    2    1    2    0    0  0.88077021879E+01  0.19157633026E+02  0.39418889210E+02  0.13274238253E+03  0.12498840255E+03 0.  0.
          2    1    1    2  501    0 -0.49877386251E+02 -0.23395898060E+02 -0.68405712734E+03  0.68627201252E+03  0.00000000000E+00 0. -1.
          1    1    1    2  502    0  0.41069684063E+02  0.42382650339E+01  0.54270712354E+02  0.68190850258E+02  0.00000000000E+00 0. -1.
         22    1    3    3    0    0 -0.13969311407E+02 -0.37782924465E+02  0.56213946284E+02  0.69157058925E+02  0.00000000000E+00 0. -1.
         22    1    3    3    0    0  0.22777013595E+02  0.56940557491E+02 -0.16795057074E+02  0.63585323604E+02  0.00000000000E+00 0. -1.
</event>
<event>
 7    1  0.6146596E-006  0.1156979E+03  0.7818608E-02  0.1328058E+00
          2   -1    0    0  502    0  0.00000000000E+00  0.00000000000E+00  0.13019974404E+04  0.13019974404E+04  0.00000000000E+00 0. -1.
          1   -1    0    0  501    0 -0.00000000000E+00 -0.00000000000E+00 -0.64487468567E+03  0.64487468567E+03  0.00000000000E+00 0. -1.
         25    2    1    2    0    0  0.12497198256E+03  0.47106120628E+02  0.32951951479E+03  0.37688810986E+03  0.12499821479E+03 0.  0.
          2    1    1    2  501    0 -0.81454165021E+02 -0.82037315105E+02 -0.61497929015E+03  0.62575109219E+03  0.00000000000E+00 0. -1.
          1    1    1    2  502    0 -0.43517817540E+02  0.34931194477E+02  0.94258253011E+03  0.94423292405E+03  0.00000000000E+00 0. -1.
         22    1    3    3    0    0  0.14800619314E+03  0.41209586985E+02  0.24586430335E+03  0.28991950422E+03  0.00000000000E+00 0. -1.
         22    1    3    3    0    0 -0.23034210575E+02  0.58965336423E+01  0.83655211442E+02  0.86968605641E+02  0.00000000000E+00 0. -1.
</event>
<event>
 7    1  0.6518653E-006  0.5942008E+02  0.7818608E-02  0.1437677E+00
          2   -1    0    0  502    0  0.00000000000E+00  0.00000000000E+00  0.34882505917E+04  0.34882505917E+04  0.00000000000E+00 0. -1.
          1   -1    0    0  501    0 -0.00000000000E+00 -0.00000000000E+00 -0.46856205115E+03  0.46856205115E+03  0.00000000000E+00 0. -1.
         25    2    1    2    0    0  0.38457104453E+02  0.49920210896E+02 -0.14683762446E+03  0.20286735833E+03  0.12499160285E+03 0.  0.
          2    1    1    2  501    0  0.20105863619E+02 -0.39752815745E+02 -0.29176351192E+03  0.29514484410E+03  0.00000000000E+00 0. -1.
          1    1    1    2  502    0 -0.58562968072E+02 -0.10167395151E+02  0.34582896769E+04  0.34588004404E+04  0.00000000000E+00 0. -1.
         22    1    3    3    0    0 -0.37806275211E+02 -0.11371753648E+02 -0.25508159385E+02  0.47003163953E+02  0.00000000000E+00 0.  1.
         22    1    3    3    0    0  0.76263379664E+02  0.61291964544E+02 -0.12132946507E+03  0.15586419438E+03  0.00000000000E+00 0.  1.
</event>
<event>
 7    1  0.6146596E-006  0.6740678E+02  0.7818608E-02  0.1435844E+00
          2   -1    0    0  502    0  0.00000000000E+00  0.00000000000E+00  0.10710890319E+04  0.10710890319E+04  0.00000000000E+00 0. -1.
          1   -1    0    0  501    0 -0.00000000000E+00 -0.00000000000E+00 -0.18623174871E+04  0.18623174871E+04  0.00000000000E+00 0. -1.
         25    2    1    2    0    0 -0.80003178424E+01 -0.69287759796E+02  0.94678955345E+03  0.95754888331E+03  0.12499842667E+03 0.  0.
          2    1    1    2  501    0 -0.36893219417E+02  0.14967715535E+02 -0.18462643185E+04  0.18466935522E+04  0.00000000000E+00 0. -1.
          1    1    1    2  502    0  0.44893537260E+02  0.54320044261E+02  0.10824630979E+03  0.12916408355E+03  0.00000000000E+00 0. -1.
         22    1    3    3    0    0 -0.10771068551E+02 -0.10178884938E+03  0.83006964440E+03  0.83635674227E+03  0.00000000000E+00 0.  1.
         22    1    3    3    0    0  0.27707507086E+01  0.32501089583E+02  0.11671990904E+03  0.12119214104E+03  0.00000000000E+00 0.  1.
</event>
<event>
 7    1  0.6146596E-006  0.6234713E+02  0.7818608E-02  0.1442167E+00
          2   -1    0    0  502    0  0.00000000000E+00  0.00000000000E+00  0.18721534875E+04  0.18721534875E+04  0.00000000000E+00 0. -1.
          1   -1    0    0  501    0 -0.00000000000E+00 -0.00000000000E+00 -0.71998643147E+03  0.71998643147E+03  0.00000000000E+00 0. -1.
         25    2    1    2    0    0 -0.59415613082E+02 -0.79892822291E+02  0.80779873062E+02  0.17906340567E+03  0.12500094890E+03 0.  0.
          2    1    1    2  501    0  0.46534828062E+02  0.40910365591E+02 -0.66917136958E+03  0.67203383107E+03  0.00000000000E+00 0. -1.
          1    1    1    2  502    0  0.12880785020E+02  0.38982456700E+02  0.17405585526E+04  0.17410426823E+04  0.00000000000E+00 0. -1.
         22    1    3    3    0    0 -0.55384492166E+02 -0.12731193308E+02  0.94618075029E+02  0.11037257530E+03  0.00000000000E+00 0. -1.
         22    1    3    3    0    0 -0.40311209160E+01 -0.67161628983E+02 -0.13838201967E+02  0.68690830372E+02  0.00000000000E+00 0. -1.
</event>
<event>
 7    1  0.6146596E-006  0.1929094E+03  0.7818608E-02  0.1356747E+00
          2   -1    0    0  502    0  0.00000000000E+00  0.00000000000E+00  0.12259799171E+04  0.12259799171E+04  0.00000000000E+00 0. -1.
          1   -1    0    0  501    0 -0.00000000000E+00 -0.00000000000E+00 -0.75312081622E+03  0.75312081622E+03  0.00000000000E+00 0. -1.
         25    2    1    2    0    0  0.13019742447E+03 -0.11314101941E+03 -0.80625745684E+01  0.21317248409E+03  0.12500097299E+03 0.  0.
          2    1    1    2  501    0 -0.15566254177E+03  0.11898334534E+03 -0.62740892157E+03  0.65728975212E+03  0.00000000000E+00 0. -1.
          1    1    1    2  502    0  0.25465117297E+02 -0.58423259246E+01  0.11083305971E+04  0.11086384971E+04  0.00000000000E+00 0. -1.
         22    1    3    3    0    0  0.47346921022E+02 -0.93710981282E+02 -0.52261342949E+02  0.11728054788E+03  0.00000000000E+00 0. -1.
         22    1    3    3    0    0  0.82850503450E+02 -0.19430038130E+02  0.44198768380E+02  0.95891936210E+02  0.00000000000E+00 0. -1.
</event>
<event>
 7    1  0.6146596E-006  0.5980616E+02  0.7818608E-02  0.1539650E+00
          2   -1    0    0  502    0  0.00000000000E+00  0.00000000000E+00  0.70608596739E+03  0.70608596739E+03  0.00000000000E+00 0. -1.
          1   -1    0    0  501    0 -0.00000000000E+00 -0.00000000000E+00 -0.63474834752E+02  0.63474834752E+02  0.00000000000E+00 0. -1.
         25    2    1    2    0    0  0.68877954008E+02  0.83057491792E+01  0.21603458891E+03  0.25905312635E+03  0.12499768257E+03 0.  0.
          2    1    1    2  501    0 -0.14817730853E+02  0.15859557579E+02 -0.37144578362E+02  0.43021046197E+02  0.00000000000E+00 0. -1.
          1    1    1    2  502    0 -0.54060223156E+02 -0.24165306758E+02  0.46372112210E+03  0.46748662960E+03  0.00000000000E+00 0. -1.
         22    1    3    3    0    0 -0.34381186890E+02 -0.11693520288E+02  0.72737722871E+02  0.81299328147E+02  0.00000000000E+00 0.  1.
         22    1    3    3    0    0  0.10325914090E+03  0.19999269467E+02  0.14329686604E+03  0.17775379820E+03  0.00000000000E+00 0.  1.
</event>
<event>
 7    1  0.6146596E-006  0.1199332E+03  0.7818608E-02  0.1266906E+00
          2   -1    0    0  502    0  0.00000000000E+00  0.00000000000E+00  0.80974230118E+02  0.80974230118E+02  0.00000000000E+00 0. -1.
          1   -1    0    0  501    0 -0.00000000000E+00 -0.00000000000E+00 -0.20258408556E+04  0.20258408556E+04  0.00000000000E+00 0. -1.
         25    2    1    2    0    0 -0.23871960100E+02  0.94098709950E+02 -0.12118831498E+03  0.19934042907E+03  0.12500224509E+03 0.  0.
          2    1    1    2  501    0  0.83274757588E+02  0.45374709518E+02 -0.17227396950E+04  0.17253479667E+04  0.00000000000E+00 0. -1.
          1    1    1    2  502    0 -0.59402797488E+02 -0.13947341947E+03 -0.10093861549E+03  0.18212668993E+03  0.00000000000E+00 0. -1.
         22    1    3    3    0    0  0.11963592483E+02 -0.26742334503E+01  0.20601880103E+02  0.23973246201E+02  0.00000000000E+00 0. -1.
         22    1    3    3    0    0 -0.35835552583E+02  0.96772943401E+02 -0.14179019509E+03  0.17536718286E+03  0.00000000000E+00 0. -1.
</event>
<event>
 7    1  0.6146596E-006  0.2662500E+02  0.7818608E-02  0.1677595E+00
          2   -1    0    0  502    0  0.00000000000E+00  0.00000000000E+00  0.21722888498E+02  0.21722888498E+02  0.00000000000E+00 0. -1.
          1   -1    0    0  501    0 -0.00000000000E+00 -0.00000000000E+00 -0.64151690344E+03  0.64151690344E+03  0.00000000000E+00 0. -1.
         25    2    1    2    0    0  0.14643416387E+02 -0.32688397882E+01 -0.45039662822E+03  0.46766120728E+03  0.12499906851E+03 0.  0.
          2    1    1    2  501    0 -0.24015525811E+02 -0.15994315415E+02 -0.17163175721E+03  0.17404029329E+03  0.00000000000E+00 0. -1.
          1    1    1    2  502    0  0.93721094235E+01  0.19263155204E+02  0.22343704871E+01  0.21538291365E+02  0.00000000000E+00 0. -1.
         22    1    3    3    0    0  0.53799306956E+02  0.16823941410E+02 -0.38327423700E+03  0.38739714917E+03  0.00000000000E+00 0.  1.
         22    1    3    3    0    0 -0.39155890569E+02 -0.20092781198E+02 -0.67122391216E+02  0.80264058114E+02  0.00000000000E+00 0.  1.
</event>
<event>
 7    1  0.6146596E-006  0.4877393E+02  0.7818608E-02  0.1478260E+00
          2   -1    0    0  502    0  0.00000000000E+00  0.00000000000E+00  0.10948083720E+04  0.10948083720E+04  0.00000000000E+00 0. -1.
          1   -1    0    0  501    0 -0.00000000000E+00 -0.00000000000E+00 -0.86820837618E+02  0.86820837618E+02  0.00000000000E+00 0. -1.
         25    2    1    2    0    0 -0.88524329452E+02 -0.39423133963E+01  0.85600389043E+02  0.17549664150E+03  0.12497818142E+03 0.  0.
          2    1    1    2  501    0  0.40330267616E+02  0.19848882791E+01 -0.31384829044E+02  0.51141741870E+02  0.00000000000E+00 0. -1.
          1    1    1    2  502    0  0.48194061836E+02  0.19574251172E+01  0.95377197441E+03  0.95499082628E+03  0.00000000000E+00 0. -1.
         22    1    3    3    0    0 -0.41640474489E+02  0.34199444573E+02  0.99794757726E+02  0.11341307153E+03  0.00000000000E+00 0. -1.
         22    1    3    3    0    0 -0.46883854963E+02 -0.38141757969E+02 -0.14194368683E+02  0.62083569964E+02  0.00000000000E+00 0. -1.
</event>
<event>
 7    1  0.6146596E-006  0.6512923E+02  0.7818608E-02  0.1406228E+00
          2   -1    0    0  502    0  0.00000000000E+00  0.00000000000E+00  0.54579514198E+03  0.54579514198E+03  0.00000000000E+00 0. -1.
          1   -1    0    0  501    0 -0.00000000000E+00 -0.00000000000E+00 -0.26944968403E+03  0.26944968403E+03  0.00000000000E+00 0. -1.
         25    2    1    2    0    0  0.50375241088E+02 -0.10389473717E+03  0.12048741855E+03  0.20847718441E+03  0.12495494013E+03 0.  0.
          2    1    1    2  501    0 -0.28341224987E+02  0.57092349546E+02 -0.21913838242E+03  0.22822005183E+03  0.00000000000E+00 0. -1.
          1    1    1    2  502    0 -0.22034016101E+02  0.46802387620E+02  0.37499642182E+03  0.37854758978E+03  0.00000000000E+00 0. -1.
         22    1    3    3    0    0  0.11409640370E+02  0.27974665497E+02  0.36375721924E+02  0.47285885300E+02  0.00000000000E+00 0.  1.
         22    1    3    3    0    0  0.38965600718E+02 -0.13186940266E+03  0.84111696625E+02  0.16119129911E+03  0.00000000000E+00 0.  1.
</event>
<event>
 7    1  0.6146596E-006  0.2383399E+03  0.7818608E-02  0.1156963E+00
          2   -1    0    0  502    0  0.00000000000E+00  0.00000000000E+00  0.38627061886E+03  0.38627061886E+03  0.00000000000E+00 0. -1.
          1   -1    0    0  501    0 -0.00000000000E+00 -0.00000000000E+00 -0.42959962124E+03  0.42959962124E+03  0.00000000000E+00 0. -1.
         25    2    1    2    0    0 -0.96732751104E+02  0.31232143241E+02 -0.40404908536E+02  0.16610489445E+03  0.12500242966E+03 0.  0.
          2    1    1    2  501    0  0.66822653776E+01 -0.25190569114E+03 -0.21460623135E+03  0.33099390392E+03  0.00000000000E+00 0. -1.
          1    1    1    2  502    0  0.90050485726E+02  0.22067354790E+03  0.21168213751E+03  0.31877144173E+03  0.00000000000E+00 0. -1.
         22    1    3    3    0    0 -0.10167623312E+03  0.64290910303E+02 -0.96514514197E+01  0.12068358647E+03  0.00000000000E+00 0. -1.
         22    1    3    3    0    0  0.49434820175E+01 -0.33058767063E+02 -0.30753457116E+02  0.45421307981E+02  0.00000000000E+00 0. -1.
</event>
<event>
 7    1  0.6146596E-006  0.1222565E+03  0.7818608E-02  0.1394161E+00
          2   -1    0    0  502    0  0.00000000000E+00  0.00000000000E+00  0.20923660685E+03  0.20923660685E+03  0.00000000000E+00 0. -1.
          1   -1    0    0  501    0 -0.00000000000E+00 -0.00000000000E+00 -0.54148632674E+03  0.54148632674E+03  0.00000000000E+00 0. -1.
         25    2    1    2    0    0 -0.10231411035E+03  0.69567196681E+02 -0.17367210752E+03  0.24717312681E+03  0.12499912663E+03 0.  0.
          2    1    1    2  501    0  0.20932324845E+02  0.21934668477E+02 -0.30849197245E+03  0.30997836856E+03  0.00000000000E+00 0. -1.
          1    1    1    2  502    0  0.81381785504E+02 -0.91501865158E+02  0.14991436008E+03  0.19357143823E+03  0.00000000000E+00 0. -1.
         22    1    3    3    0    0 -0.74493397977E+02  0.37510918020E+02 -0.17348809134E+02  0.85189884911E+02  0.00000000000E+00 0.  1.
         22    1    3    3    0    0 -0.27820712372E+02  0.32056278661E+02 -0.15632329839E+03  0.16198324190E+03  0.00000000000E+00 0.  1.
</event>
<event>
 7    1  0.6146596E-006  0.1102595E+03  0.7818608E-02  0.1382112E+00
          2   -1    0    0  502    0  0.00000000000E+00  0.00000000000E+00  0.71160893958E+03  0.71160893958E+03  0.00000000000E+00 0. -1.
          1   -1    0    0  501    0 -0.00000000000E+00 -0.00000000000E+00 -0.66901122520E+02  0.66901122520E+02  0.00000000000E+00 0. -1.
         25    2    1    2    0    0 -0.34904614834E+02 -0.75994925321E+02  0.11239015323E+03  0.18774977771E+03  0.12499948671E+03 0.  0.
          2    1    1    2  501    0  0.92588591072E+01 -0.35870772733E+02 -0.84084969309E+01  0.37988703967E+02  0.00000000000E+00 0. -1.
          1    1    1    2  502    0  0.25645755727E+02  0.11186569805E+03  0.54072616076E+03  0.55277158042E+03  0.00000000000E+00 0. -1.
         22    1    3    3    0    0 -0.34012464151E+01 -0.90865105098E+02  0.12148527075E+03  0.15174553309E+03  0.00000000000E+00 0. -1.
         22    1    3    3    0    0 -0.31503368419E+02  0.14870179777E+02 -0.90951175241E+01  0.36004244627E+02  0.00000000000E+00 0. -1.
</event>
<event>
 7    1  0.6146596E-006  0.9476419E+02  0.7818608E-02  0.1323830E+00
          2   -1    0    0  502    0  0.00000000000E+00  0.00000000000E+00  0.73182168471E+03  0.73182168471E+03  0.00000000000E+00 0. -1.
          1   -1    0    0  501    0 -0.00000000000E+00 -0.00000000000E+00 -0.28851876140E+03  0.28851876140E+03  0.00000000000E+00 0. -1.
         25    2    1    2    0    0 -0.89041038135E+02 -0.13431278626E+03  0.26798458790E+03  0.33676176135E+03  0.12499805411E+03 0.  0.
          2    1    1    2  501    0  0.62533994085E+02  0.68739370158E+02 -0.24256276421E+03  0.25975429931E+03  0.00000000000E+00 0. -1.
          1    1    1    2  502    0  0.26507044050E+02  0.65573416099E+02  0.41788109963E+03  0.42382438546E+03  0.00000000000E+00 0. -1.
         22    1    3    3    0    0  0.28254478074E+00  0.19211635718E+02  0.57870191679E+01  0.20066299344E+02  0.00000000000E+00 0.  1.
         22    1    3    3    0    0 -0.89323582916E+02 -0.15352442197E+03  0.26219756873E+03  0.31669546201E+03  0.00000000000E+00 0.  1.
</event>
<event>
 7    1  0.6146596E-006  0.6967685E+02  0.7818608E-02  0.1504340E+00
          2   -1    0    0  502    0  0.00000000000E+00  0.00000000000E+00  0.59172887798E+03  0.59172887798E+03  0.00000000000E+00 0. -1.
          1   -1    0    0  501    0 -0.00000000000E+00 -0.00000000000E+00 -0.18379057382E+04  0.18379057382E+04  0.00000000000E+00 0. -1.
         25    2    1    2    0    0  0.89071195167E+02 -0.84875870197E+01 -0.53761573228E+02  0.16285428452E+03  0.12500197714E+03 0.  0.
          2    1    1    2  501    0 -0.21933572517E+02 -0.86479966923E+01 -0.17272826398E+04  0.17274435410E+04  0.00000000000E+00 0. -1.
          1    1    1    2  502    0 -0.67137622649E+02  0.17135583712E+02  0.53486735286E+03  0.53933679066E+03  0.00000000000E+00 0. -1.
         22    1    3    3    0    0 -0.30354789848E+02 -0.82141595905E+01 -0.24583329303E+02  0.39915232232E+02  0.00000000000E+00 0.  1.
         22    1    3    3    0    0  0.11942598501E+03 -0.27342742921E+00 -0.29178243925E+02  0.12293905229E+03  0.00000000000E+00 0.  1.
</event>
<event>
 7    1  0.6146596E-006  0.7421606E+02  0.7818608E-02  0.1375787E+00
          2   -1    0    0  502    0  0.00000000000E+00  0.00000000000E+00  0.79135453488E+03  0.79135453488E+03  0.00000000000E+00 0. -1.
          1   -1    0    0  501    0 -0.00000000000E+00 -0.00000000000E+00 -0.11374084625E+04  0.11374084625E+04  0.00000000000E+00 0. -1.
         25    2    1    2    0    0 -0.65561597612E+02  0.10445602068E+03  0.12638936702E+03  0.21635236976E+03  0.12499876987E+03 0.  0.
          2    1    1    2  501    0  0.11372309787E+02 -0.56829861609E+02 -0.10895554399E+04  0.10910957882E+04  0.00000000000E+00 0. -1.
          1    1    1    2  502    0  0.54189287826E+02 -0.47626159071E+02  0.61711214518E+03  0.62131483941E+03  0.00000000000E+00 0. -1.
         22    1    3    3    0    0  0.24421178481E+02 -0.68482424563E+01  0.45122973665E+02  0.51762680915E+02  0.00000000000E+00 0. -1.
         22    1    3    3    0    0 -0.89982776094E+02  0.11130426314E+03  0.81266393358E+02  0.16458968885E+03  0.00000000000E+00 0. -1.
</event>
<event>
 7    1  0.6146596E-006  0.8010898E+02  0.7818608E-02  0.1331798E+00
          2   -1    0    0  502    0  0.00000000000E+00  0.00000000000E+00  0.32014022663E+03  0.32014022663E+03  0.00000000000E+00 0. -1.
          1   -1    0    0  501    0 -0.00000000000E+00 -0.00000000000E+00 -0.19262410666E+04  0.19262410666E+04  0.00000000000E+00 0. -1.
         25    2    1    2    0    0 -0.68479506312E+02 -0.56238374558E+02 -0.22425297356E+03  0.27159734794E+03  0.12499410267E+03 0.  0.
          2    1    1    2  501    0  0.78456681687E+02 -0.21106346544E+02 -0.16721839929E+04  0.16741565742E+04  0.00000000000E+00 0. -1.
          1    1    1    2  502    0 -0.99771753750E+01  0.77344721102E+02  0.29033612649E+03  0.30062737110E+03  0.00000000000E+00 0. -1.
         22    1    3    3    0    0 -0.25394714300E+02  0.24169215086E+02 -0.66992290568E+01  0.35692045923E+02  0.00000000000E+00 0. -1.
         22    1    3    3    0    0 -0.43084792012E+02 -0.80407589644E+02 -0.21755374450E+03  0.23590530202E+03  0.00000000000E+00 0. -1.
</event>
<event>
 7    1  0.6146596E-006  0.9063282E+02  0.7818608E-02  0.1395306E+00
          2   -1    0    0  502    0  0.00000000000E+00  0.00000000000E+00  0.79790925826E+03  0.79790925826E+03  0.00000000000E+00 0. -1.
          1   -1    0    0  501    0 -0.00000000000E+00 -0.00000000000E+00 -0.82573526353E+03  0.82573526353E+03  0.00000000000E+00 0. -1.
         25    2    1    2    0    0  0.25611041092E+02 -0.10318973894E+03  0.27041340397E+02  0.16631464721E+03  0.12500112054E+03 0.  0.
          2    1    1    2  501    0 -0.38113740981E+02  0.13776114170E+02 -0.75264518806E+03  0.75373550910E+03  0.00000000000E+00 0. -1.
          1    1    1    2  502    0  0.12502699889E+02  0.89413624769E+02  0.69777784239E+03  0.70359436548E+03  0.00000000000E+00 0. -1.
         22    1    3    3    0    0  0.22201928240E+02  0.24564873492E+02  0.19197558144E+02  0.38274075638E+02  0.00000000000E+00 0. -1.
         22    1    3    3    0    0  0.34091128519E+01 -0.12775461243E+03  0.78437822531E+01  0.12804057157E+03  0.00000000000E+00 0. -1.
</event>
<event>
 7    1  0.6146596E-006  0.3076253E+02  0.7818608E-02  0.1591857E+00
          2   -1    0    0  502    0  0.00000000000E+00  0.00000000000E+00  0.13811063898E+03  0.13811063898E+03  0.00000000000E+00 0. -1.
          1   -1    0    0  501    0 -0.00000000000E+00 -0.00000000000E+00 -0.57815659235E+03  0.57815659235E+03  0.00000000000E+00 0. -1.
         25    2    1    2    0    0  0.15259894350E+02  0.10772514991E+02  0.70367570253E+02  0.14465872159E+03  0.12500255731E+03 0.  0.
          2    1    1    2  501    0  0.85364768166E+01 -0.29660758218E+02 -0.53291106282E+03  0.53380411472E+03  0.00000000000E+00 0. -1.
          1    1    1    2  502    0 -0.23796371167E+02  0.18888243227E+02  0.22497539192E+02  0.37804395017E+02  0.00000000000E+00 0. -1.
         22    1    3    3    0    0 -0.34589034778E+02 -0.10943782011E+02 -0.18310535913E+02  0.40637955374E+02  0.00000000000E+00 0. -1.
         22    1    3    3    0    0  0.49848929129E+02  0.21716297001E+02  0.88678106166E+02  0.10402076621E+03  0.00000000000E+00 0. -1.
</event>
<event>
 7    1  0.6146596E-006  0.1638555E+03  0.7818608E-02  0.1309502E+00
          2   -1    0    0  502    0  0.00000000000E+00  0.00000000000E+00  0.13302643485E+04  0.13302643485E+04  0.00000000000E+00 0. -1.
          1   -1    0    0  501    0 -0.00000000000E+00 -0.00000000000E+00 -0.14445600843E+03  0.14445600843E+03  0.00000000000E+00 0. -1.
         25    2    1    2    0    0  0.18879907448E+03  0.30858113261E+02  0.55511870082E+03  0.60031563242E+03  0.12499909139E+03 0.  0.
          2    1    1    2  501    0 -0.34012762497E+02 -0.31740113497E+02 -0.10909482395E+03  0.11860009878E+03  0.00000000000E+00 0. -1.
          1    1    1    2  502    0 -0.15478631199E+03  0.88200023595E+00  0.73978446320E+03  0.75580462574E+03  0.00000000000E+00 0. -1.
         22    1    3    3    0    0  0.75427287347E+02 -0.41606018954E+02  0.14465251364E+03  0.16835880194E+03  0.00000000000E+00 0. -1.
         22    1    3    3    0    0  0.11337178714E+03  0.72464132215E+02  0.41046618718E+03  0.43195683048E+03  0.00000000000E+00 0. -1.
</event>
<event>
 7    1  0.6146596E-006  0.8744074E+02  0.7818608E-02  0.1469241E+00
          2   -1    0    0  502    0  0.00000000000E+00  0.00000000000E+00  0.14535695517E+03  0.14535695517E+03  0.00000000000E+00 0. -1.
          1   -1    0    0  501    0 -0.00000000000E+00 -0.00000000000E+00 -0.12704215161E+04  0.12704215161E+04  0.00000000000E+00 0. -1.
         25    2    1    2    0    0  0.59933300389E+02 -0.57364687573E+02 -0.42703543891E+03  0.45262214624E+03  0.12499933321E+03 0.  0.
          2    1    1    2  501    0  0.17580936842E+02  0.16363971172E+02 -0.81589508508E+03  0.81624852756E+03  0.00000000000E+00 0. -1.
          1    1    1    2  502    0 -0.77514237232E+02  0.41000716401E+02  0.11786596304E+03  0.14690779749E+03  0.00000000000E+00 0. -1.
         22    1    3    3    0    0  0.25138178335E+02  0.82310201114E+01 -0.88454454535E+01  0.27891210217E+02  0.00000000000E+00 0. -1.
         22    1    3    3    0    0  0.34795122054E+02 -0.65595707684E+02 -0.41818999346E+03  0.42473093602E+03  0.00000000000E+00 0. -1.
</event>
<event>
 7    1  0.6146596E-006  0.9428005E+02  0.7818608E-02  0.1311017E+00
          2   -1    0    0  502    0  0.00000000000E+00  0.00000000000E+00  0.14212987034E+04  0.14212987034E+04  0.00000000000E+00 0. -1.
          1   -1    0    0  501    0 -0.00000000000E+00 -0.00000000000E+00 -0.10851689400E+04  0.10851689400E+04  0.00000000000E+00 0. -1.
         25    2    1    2    0    0  0.23510235999E+02 -0.85581377739E+00  0.87154288751E+02  0.15418867974E+03  0.12499926120E+03 0.  0.
          2    1    1    2  501    0 -0.68724415741E+02  0.66549987708E+02 -0.10482490491E+04  0.10526053463E+04  0.00000000000E+00 0. -1.
          1    1    1    2  502    0  0.45214179742E+02 -0.65694173930E+02  0.12972245237E+04  0.12996736173E+04  0.00000000000E+00 0. -1.
         22    1    3    3    0    0 -0.31150255773E+02 -0.36958698090E+02  0.72381284569E+02  0.87036395577E+02  0.00000000000E+00 0. -1.
         22    1    3    3    0    0  0.54660491772E+02  0.36102884312E+02  0.14773004182E+02  0.67152284168E+02  0.00000000000E+00 0. -1.
</event>
<event>
 7    1  0.6146596E-006  0.8950330E+02  0.7818608E-02  0.1455312E+00
          2   -1    0    0  502    0  0.00000000000E+00  0.00000000000E+00  0.65449906544E+03  0.65449906544E+03  0.00000000000E+00 0. -1.
          1   -1    0    0  501    0 -0.00000000000E+00 -0.00000000000E+00 -0.20424088534E+03  0.20424088534E+03  0.00000000000E+00 0. -1.
         25    2    1    2    0    0 -0.60535851798E+02  0.96859294956E+02  0.28794213841E+01  0.16935041296E+03  0.12499983572E+03 0.  0.
          2    1    1    2  501    0  0.16154579480E+02 -0.20314373684E+02 -0.11612059613E+03  0.11898586917E+03  0.00000000000E+00 0. -1.
          1    1    1    2  502    0  0.44381272319E+02 -0.76544921272E+02  0.56349935484E+03  0.57040366865E+03  0.00000000000E+00 0. -1.
         22    1    3    3    0    0 -0.25000709795E+02  0.47265054287E+02  0.63724216522E+02  0.83185314920E+02  0.00000000000E+00 0. -1.
         22    1    3    3    0    0 -0.35535142003E+02  0.49594240670E+02 -0.60844795138E+02  0.86165098039E+02  0.00000000000E+00 0. -1.
</event>
<event>
 7    1  0.6146596E-006  0.1664638E+03  0.7818608E-02  0.1233320E+00
          2   -1    0    0  502    0  0.00000000000E+00  0.00000000000E+00  0.11556728884E+04  0.11556728884E+04  0.00000000000E+00 0. -1.
          1   -1    0    0  501    0 -0.00000000000E+00 -0.00000000000E+00 -0.15349892663E+03  0.15349892663E+03  0.00000000000E+00 0. -1.
         25    2    1    2    0    0  0.51177078025E+02  0.15716003932E+03  0.10425207730E+03  0.23197476959E+03  0.12500170731E+03 0.  0.
          2    1    1    2  501    0 -0.13569638479E+03 -0.11256538785E+03  0.21284317042E+01  0.17632074639E+03  0.00000000000E+00 0. -1.
          1    1    1    2  502    0  0.84519306764E+02 -0.44594651471E+02  0.89579345279E+03  0.90087629906E+03  0.00000000000E+00 0. -1.
         22    1    3    3    0    0  0.49092220673E+02  0.17785010792E+03  0.10261061099E+03  0.21111523987E+03  0.00000000000E+00 0. -1.
         22    1    3    3    0    0  0.20848573521E+01 -0.20690068595E+02  0.16414663055E+01  0.20859529723E+02  0.00000000000E+00 0. -1.
</event>
<event>
 7    1  0.6146596E-006  0.1227031E+03  0.7818608E-02  0.1250059E+00
          2   -1    0    0  502    0  0.00000000000E+00  0.00000000000E+00  0.32428386514E+03  0.32428386514E+03  0.00000000000E+00 0. -1.
          1   -1    0    0  501    0 -0.00000000000E+00 -0.00000000000E+00 -0.64653108923E+03  0.64653108923E+03  0.00000000000E+00 0. -1.
         25    2    1    2    0    0 -0.16194564070E+02  0.14871303544E+02 -0.42008406533E+03  0.43883875489E+03  0.12500164507E+03 0.  0.
          2    1    1    2  501    0 -0.10933100601E+03 -0.46315365277E+01 -0.18917663144E+03  0.21854637469E+03  0.00000000000E+00 0. -1.
          1    1    1    2  502    0  0.12552557008E+03 -0.10239767016E+02  0.28701347268E+03  0.31342982480E+03  0.00000000000E+00 0. -1.
         22    1    3    3    0    0 -0.33122299970E+02 -0.42348428626E+02 -0.29962429298E+03  0.30440958117E+03  0.00000000000E+00 0.  1.
         22    1    3    3    0    0  0.16927735900E+02  0.57219732170E+02 -0.12045977235E+03  0.13442917372E+03  0.00000000000E+00 0.  1.
</event>
<event>
 7    1  0.6146596E-006  0.9846776E+02  0.7818608E-02  0.1459242E+00
          2   -1    0    0  502    0  0.00000000000E+00  0.00000000000E+00  0.45027496142E+03  0.45027496142E+03  0.00000000000E+00 0. -1.
          1   -1    0    0  501    0 -0.00000000000E+00 -0.00000000000E+00 -0.18042809973E+04  0.18042809973E+04  0.00000000000E+00 0. -1.
         25    2    1    2    0    0  0.11184355357E+02 -0.10349879155E+03 -0.57473182878E+03  0.59730928664E+03  0.12499847695E+03 0.  0.
          2    1    1    2  501    0  0.20484198054E+02  0.10293872541E+02 -0.12126323075E+04  0.12128489928E+04  0.00000000000E+00 0. -1.
          1    1    1    2  502    0 -0.31668553411E+02  0.93204919006E+02  0.43335810037E+03  0.44439767929E+03  0.00000000000E+00 0. -1.
         22    1    3    3    0    0 -0.47718698537E+02 -0.53096058515E+02 -0.39756391932E+03  0.40392243756E+03  0.00000000000E+00 0. -1.
         22    1    3    3    0    0  0.58903053894E+02 -0.50402733032E+02 -0.17716790946E+03  0.19338684908E+03  0.00000000000E+00 0. -1.
</event>
<event>
 7    1  0.6146596E-006  0.1213951E+03  0.7818608E-02  0.1408751E+00
          2   -1    0    0  502    0  0.00000000000E+00  0.00000000000E+00  0.80573627775E+03  0.80573627775E+03  0.00000000000E+00 0. -1.
          1   -1    0    0  501    0 -0.00000000000E+00 -0.00000000000E+00 -0.21121708310E+03  0.21121708310E+03  0.00000000000E+00 0. -1.
         25    2    1    2    0    0  0.70936783056E+02  0.80584305995E+02  0.59953835495E+02  0.17534474128E+03  0.12500183336E+03 0.  0.
          2    1    1    2  501    0 -0.91047435884E+01  0.25641949419E+02 -0.14677229618E+03  0.14927328244E+03  0.00000000000E+00 0. -1.
          1    1    1    2  502    0 -0.61832039467E+02 -0.10622625541E+03  0.68133765534E+03  0.69233533712E+03  0.00000000000E+00 0. -1.
         22    1    3    3    0    0 -0.17290929921E+02 -0.13740144198E+02 -0.14352306542E+02  0.26339258212E+02  0.00000000000E+00 0.  1.
         22    1    3    3    0    0  0.88227712976E+02  0.94324450193E+02  0.74306142037E+02  0.14900548307E+03  0.00000000000E+00 0.  1.
</event>
<event>
 7    1  0.6146596E-006  0.5125778E+02  0.7818608E-02  0.1542024E+00
          2   -1    0    0  502    0  0.00000000000E+00  0.00000000000E+00  0.59940775783E+03  0.59940775783E+03  0.00000000000E+00 0. -1.
          1   -1    0    0  501    0 -0.00000000000E+00 -0.00000000000E+00 -0.69151136404E+03  0.69151136404E+03  0.00000000000E+00 0. -1.
         25    2    1    2    0    0 -0.27497119437E+02 -0.15338540890E+02  0.88419610554E+02  0.15631623191E+03  0.12500149765E+03 0.  0.
          2    1    1    2  501    0 -0.23974396608E+02  0.68601891011E+01 -0.65589932851E+03  0.65637318884E+03  0.00000000000E+00 0. -1.
          1    1    1    2  502    0  0.51471516045E+02  0.84783517890E+01  0.47537611174E+03  0.47822970112E+03  0.00000000000E+00 0. -1.
         22    1    3    3    0    0 -0.67600009118E+02 -0.93438537893E+00  0.11776871663E+02  0.68624551109E+02  0.00000000000E+00 0.  1.
         22    1    3    3    0    0  0.40102889681E+02 -0.14404155511E+02  0.76642738891E+02  0.87691680800E+02  0.00000000000E+00 0.  1.
</event>
<event>
 7    1  0.6146596E-006  0.1006065E+03  0.7818608E-02  0.1412195E+00
          2   -1    0    0  502    0  0.00000000000E+00  0.00000000000E+00  0.19993273299E+04  0.19993273299E+04  0.00000000000E+00 0. -1.
          1   -1    0    0  501    0 -0.00000000000E+00 -0.00000000000E+00 -0.11207632210E+03  0.11207632210E+03  0.00000000000E+00 0. -1.
         25    2    1    2    0    0 -0.51255430396E+02 -0.69293920663E+02  0.50962900494E+03  0.53176579780E+03  0.12499749780E+03 0.  0.
          2    1    1    2  501    0  0.15659934677E+02 -0.27863809724E+02 -0.96619731290E+02  0.10176933684E+03  0.00000000000E+00 0. -1.
          1    1    1    2  502    0  0.35595495719E+02  0.97157730387E+02  0.14742417341E+04  0.14778685173E+04  0.00000000000E+00 0. -1.
         22    1    3    3    0    0 -0.88832907063E+02 -0.39699122479E+02  0.40802218165E+03  0.41946323608E+03  0.00000000000E+00 0. -1.
         22    1    3    3    0    0  0.37577476667E+02 -0.29594798184E+02  0.10160682329E+03  0.11230256173E+03  0.00000000000E+00 0. -1.
</event>
<event>
 7    1  0.6146596E-006  0.4929107E+02  0.7818608E-02  0.1470782E+00
          2   -1    0    0  502    0  0.00000000000E+00  0.00000000000E+00  0.58868320325E+02  0.58868320325E+02  0.00000000000E+00 0. -1.
          1   -1    0    0  501    0 -0.00000000000E+00 -0.00000000000E+00 -0.85095191435E+03  0.85095191435E+03  0.00000000000E+00 0. -1.
         25    2    1    2    0    0  0.76155653443E+02 -0.81287747902E+01 -0.31215489030E+03  0.34486351321E+03  0.12499762667E+03 0.  0.
          2    1    1    2  501    0 -0.31751385949E+02  0.27705665153E+02 -0.50743054574E+03  0.50917729048E+03  0.00000000000E+00 0. -1.
          1    1    1    2  502    0 -0.44404267494E+02 -0.19576890363E+02  0.27501842011E+02  0.55779430993E+02  0.00000000000E+00 0. -1.
         22    1    3    3    0    0 -0.38067836782E+01  0.31691508411E+02 -0.19469928365E+03  0.19729838915E+03  0.00000000000E+00 0.  1.
         22    1    3    3    0    0  0.79962437121E+02 -0.39820283201E+02 -0.11745560666E+03  0.14756512406E+03  0.00000000000E+00 0.  1.
</event>
<event>
 7    1  0.6146596E-006  0.2530088E+02  0.7818608E-02  0.1665775E+00
          2   -1    0    0  502    0  0.00000000000E+00  0.00000000000E+00  0.20111250377E+04  0.20111250377E+04  0.00000000000E+00 0. -1.
          1   -1    0    0  501    0 -0.00000000000E+00 -0.00000000000E+00 -0.29398358513E+02  0.29398358513E+02  0.00000000000E+00 0. -1.
         25    2    1    2    0    0  0.43333729406E+02  0.21091009577E+02  0.26804302269E+03  0.29965734754E+03  0.12499928454E+03 0.  0.
          2    1    1    2  501    0 -0.22976726791E+02 -0.82727646843E+01 -0.24686715151E+01  0.24545120667E+02  0.00000000000E+00 0. -1.
          1    1    1    2  502    0 -0.20357002615E+02 -0.12818244893E+02  0.17161523280E+04  0.17163209280E+04  0.00000000000E+00 0. -1.
         22    1    3    3    0    0 -0.89516601145E+01  0.61683945723E+02  0.17257689722E+03  0.18348794738E+03  0.00000000000E+00 0.  1.
         22    1    3    3    0    0  0.52285389521E+02 -0.40592936146E+02  0.95466125462E+02  0.11616940016E+03  0.00000000000E+00 0.  1.
</event>
<event>
 7    1  0.6146596E-006  0.9965648E+02  0.7818608E-02  0.1349918E+00
          2   -1    0    0  502    0  0.00000000000E+00  0.00000000000E+00  0.50928758667E+03  0.50928758667E+03  0.00000000000E+00 0. -1.
          1   -1    0    0  501    0 -0.00000000000E+00 -0.00000000000E+00 -0.16071335399E+04  0.16071335399E+04  0.00000000000E+00 0. -1.
         25    2    1    2    0    0 -0.62038112708E+02  0.11390501132E+03  0.26154188470E+03  0.31757172876E+03  0.12499826568E+03 0.  0.
          2    1    1    2  501    0 -0.61073277379E+01 -0.53243440307E+02 -0.15691711451E+04  0.15700860632E+04  0.00000000000E+00 0. -1.
          1    1    1    2  502    0  0.68145440446E+02 -0.60661571011E+02  0.20978330719E+03  0.22876333454E+03  0.00000000000E+00 0. -1.
         22    1    3    3    0    0 -0.24473996065E+02  0.10141600131E+03  0.25743743978E+03  0.27777367983E+03  0.00000000000E+00 0. -1.
         22    1    3    3    0    0 -0.37564116643E+02  0.12489010003E+02  0.41044449113E+01  0.39798048923E+02  0.00000000000E+00 0. -1.
</event>
<event>
 7    1  0.6146596E-006  0.5942176E+02  0.7818608E-02  0.1405976E+00
          2   -1    0    0  502    0  0.00000000000E+00  0.00000000000E+00  0.34245754833E+03  0.34245754833E+03  0.00000000000E+00 0. -1.
          1   -1    0    0  501    0 -0.00000000000E+00 -0.00000000000E+00 -0.26054591617E+03  0.26054591617E+03  0.00000000000E+00 0. -1.
         25    2    1    2    0    0 -0.16410486489E+01  0.18990243304E+02  0.17974792120E+03  0.21976802530E+03  0.12500138955E+03 0.  0.
          2    1    1    2  501    0 -0.25324650577E+02  0.53755071106E+02 -0.22585607622E+03  0.23354210062E+03  0.00000000000E+00 0. -1.
          1    1    1    2  502    0  0.26965699226E+02 -0.72745314410E+02  0.12801978719E+03  0.14969333858E+03  0.00000000000E+00 0. -1.
         22    1    3    3    0    0  0.58924367514E+02  0.98188292390E+01  0.56920183463E+02  0.82513015822E+02  0.00000000000E+00 0. -1.
         22    1    3    3    0    0 -0.60565416163E+02  0.91714140655E+01  0.12282773773E+03  0.13725500948E+03  0.00000000000E+00 0. -1.
</event>
<event>
 7    1  0.6146596E-006  0.8113305E+02  0.7818608E-02  0.1459372E+00
          2   -1    0    0  502    0  0.00000000000E+00  0.00000000000E+00  0.33229009620E+04  0.33229009620E+04  0.00000000000E+00 0. -1.
          1   -1    0    0  501    0 -0.00000000000E+00 -0.00000000000E+00 -0.46455281631E+03  0.46455281631E+03  0.00000000000E+00 0. -1.
         25    2    1    2    0    0 -0.14072839014E+02 -0.74146096949E+02  0.17559631285E+04  0.17620234617E+04  0.12499792951E+03 0.  0.
          2    1    1    2  501    0 -0.13080758444E+02  0.80092631277E+02 -0.45783038852E+03  0.46496731119E+03  0.00000000000E+00 0. -1.
          1    1    1    2  502    0  0.27153597458E+02 -0.59465343279E+01  0.15602154057E+04  0.15604630054E+04  0.00000000000E+00 0. -1.
         22    1    3    3    0    0 -0.61955849623E+02 -0.39616746504E+02  0.13245583072E+04  0.13265981770E+04  0.00000000000E+00 0.  1.
         22    1    3    3    0    0  0.47883010609E+02 -0.34529350445E+02  0.43140482131E+03  0.43542528475E+03  0.00000000000E+00 0.  1.
</event>
<event>
 7    1  0.6146596E-006  0.2482444E+02  0.7818608E-02  0.1665156E+00
          2   -1    0    0  502    0  0.00000000000E+00  0.00000000000E+00  0.98245843334E+02  0.98245843334E+02  0.00000000000E+00 0. -1.
          1   -1    0    0  501    0 -0.00000000000E+00 -0.00000000000E+00 -0.35608568971E+03  0.35608568971E+03  0.00000000000E+00 0. -1.
         25    2    1    2    0    0 -0.92717969165E+01  0.72645962380E+01 -0.89277929671E+02  0.15406051273E+03  0.12500140911E+03 0.  0.
          2    1    1    2  501    0  0.18466462385E+02  0.16256321974E+02 -0.23131877335E+03  0.23262341486E+03  0.00000000000E+00 0. -1.
          1    1    1    2  502    0 -0.91946654684E+01 -0.23520918213E+02  0.62756856649E+02  0.67647605450E+02  0.00000000000E+00 0. -1.
         22    1    3    3    0    0 -0.43669319646E+02 -0.37030208007E+02 -0.11872737349E+02  0.58473991445E+02  0.00000000000E+00 0.  1.
         22    1    3    3    0    0  0.34397522730E+02  0.44294804245E+02 -0.77405192322E+02  0.95586521286E+02  0.00000000000E+00 0.  1.
</event>
<event>
 7    1  0.6146596E-006  0.6950499E+02  0.7818608E-02  0.1424880E+00
          2   -1    0    0  502    0  0.00000000000E+00  0.00000000000E+00  0.12752128204E+04  0.12752128204E+04  0.00000000000E+00 0. -1.
          1   -1    0    0  501    0 -0.00000000000E+00 -0.00000000000E+00 -0.16241658521E+04  0.16241658521E+04  0.00000000000E+00 0. -1.
         25    2    1    2    0    0  0.21709540091E+02 -0.69316143892E+02 -0.77602455096E+02  0.16408227750E+03  0.12499928327E+03 0.  0.
          2    1    1    2  501    0  0.32836897447E+02  0.26116489298E+02 -0.15020478468E+04  0.15026337101E+04  0.00000000000E+00 0. -1.
          1    1    1    2  502    0 -0.54546437538E+02  0.43199654594E+02  0.12306972701E+04  0.12326626849E+04  0.00000000000E+00 0. -1.
         22    1    3    3    0    0 -0.32461184797E+02 -0.82639058278E+02 -0.47827563026E+02  0.10084849159E+03  0.00000000000E+00 0.  1.
         22    1    3    3    0    0  0.54170724888E+02  0.13322914386E+02 -0.29774892070E+02  0.63233785909E+02  0.00000000000E+00 0.  1.
</event>
<event>
 7    1  0.6146596E-006  0.5333250E+02  0.7818608E-02  0.1520932E+00
          2   -1    0    0  502    0  0.00000000000E+00  0.00000000000E+00  0.18662930741E+04  0.18662930741E+04  0.00000000000E+00 0. -1.
          1   -1    0    0  501    0 -0.00000000000E+00 -0.00000000000E+00 -0.89807639093E+02  0.89807639093E+02  0.00000000000E+00 0. -1.
         25    2    1    2    0    0  0.10407266135E+02 -0.71124414695E+02  0.29383049945E+03  0.32730459759E+03  0.12499977457E+03 0.  0.
          2    1    1    2  501    0  0.94285919417E+01  0.52024050101E+02 -0.63367866241E+02  0.82528095863E+02  0.00000000000E+00 0. -1.
          1    1    1    2  502    0 -0.19835858076E+02  0.19100364595E+02  0.15460228018E+04  0.15462680197E+04  0.00000000000E+00 0. -1.
         22    1    3    3    0    0  0.22912986468E+02 -0.84995325777E+02  0.10270315307E+03  0.13526695089E+03  0.00000000000E+00 0.  1.
         22    1    3    3    0    0 -0.12505720333E+02  0.13870911081E+02  0.19112734639E+03  0.19203764671E+03  0.00000000000E+00 0.  1.
</event>
<event>
 7    1  0.6146596E-006  0.6577401E+02  0.7818608E-02  0.1399854E+00
          2   -1    0    0  502    0  0.00000000000E+00  0.00000000000E+00  0.46437192102E+03  0.46437192102E+03  0.00000000000E+00 0. -1.
          1   -1    0    0  501    0 -0.00000000000E+00 -0.00000000000E+00 -0.11068045680E+04  0.11068045680E+04  0.00000000000E+00 0. -1.
         25    2    1    2    0    0  0.25191649058E+02  0.62009884964E+02 -0.43040988956E+03  0.45316445246E+03  0.12500201167E+03 0.  0.
          2    1    1    2  501    0 -0.53796645141E+02 -0.26564897952E+01 -0.66152125410E+03  0.66371040793E+03  0.00000000000E+00 0. -1.
          1    1    1    2  502    0  0.28604996083E+02 -0.59353395169E+02  0.44949849665E+03  0.45430162867E+03  0.00000000000E+00 0. -1.
         22    1    3    3    0    0  0.48154680224E+02  0.31370746874E+01 -0.33668753411E+03  0.34012822596E+03  0.00000000000E+00 0.  1.
         22    1    3    3    0    0 -0.22963031166E+02  0.58872810276E+02 -0.93722355449E+02  0.11303622650E+03  0.00000000000E+00 0.  1.
</event>
<event>
 7    1  0.6146596E-006  0.8408007E+02  0.7818608E-02  0.1410460E+00
          2   -1    0    0  502    0  0.00000000000E+00  0.00000000000E+00  0.23422824307E+03  0.23422824307E+03  0.00000000000E+00 0. -1.
          1   -1    0    0  501    0 -0.00000000000E+00 -0.00000000000E+00 -0.20075244911E+03  0.20075244911E+03  0.00000000000E+00 0. -1.
         25    2    1    2    0    0  0.71087770629E+02  0.61496948172E+02  0.71084853966E+02  0.17179467018E+03  0.12500002589E+03 0.  0.
          2    1    1    2  501    0 -0.80379225511E+02 -0.23861242541E+02 -0.13468768298E+03  0.15865355570E+03  0.00000000000E+00 0. -1.
          1    1    1    2  502    0  0.92914548821E+01 -0.37635705631E+02  0.97078622971E+02  0.10453246630E+03  0.00000000000E+00 0. -1.
         22    1    3    3    0    0  0.76720440507E+02  0.93132047238E+02  0.70308309161E+02  0.13965264964E+03  0.00000000000E+00 0.  1.
         22    1    3    3    0    0 -0.56326698778E+01 -0.31635099066E+02  0.77654480549E+00  0.32142020545E+02  0.00000000000E+00 0.  1.
</event>
<event>
 7    1  0.6146596E-006  0.1274186E+03  0.7818608E-02  0.1384488E+00
          2   -1    0    0  502    0  0.00000000000E+00  0.00000000000E+00  0.68629623022E+03  0.68629623022E+03  0.00000000000E+00 0. -1.
          1   -1    0    0  501    0 -0.00000000000E+00 -0.00000000000E+00 -0.36510733902E+03  0.36510733902E+03  0.00000000000E+00 0. -1.
         25    2    1    2    0    0 -0.86057434787E+02  0.73687672401E+02  0.62859330718E+02  0.18003370252E+03  0.12500033376E+03 0.  0.
          2    1    1    2  501    0  0.87099259813E+01  0.30215107521E+02 -0.29825667486E+03  0.29990975247E+03  0.00000000000E+00 0. -1.
          1    1    1    2  502    0  0.77347508806E+02 -0.10390277992E+03  0.55658623534E+03  0.57146011424E+03  0.00000000000E+00 0. -1.
         22    1    3    3    0    0 -0.63748997885E+02  0.80391294187E+02 -0.10432991360E+02  0.10312876525E+03  0.00000000000E+00 0.  1.
         22    1    3    3    0    0 -0.22308436902E+02 -0.67036217867E+01  0.73292322078E+02  0.76904937277E+02  0.00000000000E+00 0.  1.
</event>
<event>
 7    1  0.6146596E-006  0.1212354E+03  0.7818608E-02  0.1409787E+00
          2   -1    0    0  502    0  0.00000000000E+00  0.00000000000E+00  0.12555855187E+03  0.12555855187E+03  0.00000000000E+00 0. -1.
          1   -1    0    0  501    0 -0.00000000000E+00 -0.00000000000E+00 -0.67563666460E+03  0.67563666460E+03  0.00000000000E+00 0. -1.
         25    2    1    2    0    0  0.99557368539E+02 -0.91944837992E+02 -0.29030836740E+03  0.34390408097E+03  0.12500218343E+03 0.  0.
          2    1    1    2  501    0 -0.72540099268E+02  0.91233881961E+02 -0.34695645085E+03  0.36601156540E+03  0.00000000000E+00 0. -1.
          1    1    1    2  502    0 -0.27017269270E+02  0.71095603152E+00  0.87186705519E+02  0.91279570095E+02  0.00000000000E+00 0. -1.
         22    1    3    3    0    0 -0.20272414129E+02 -0.55110422038E+02 -0.83892332467E+02  0.10240142987E+03  0.00000000000E+00 0. -1.
         22    1    3    3    0    0  0.11982978267E+03 -0.36834415954E+02 -0.20641603493E+03  0.24150265110E+03  0.00000000000E+00 0. -1.
</event>
<event>
 7    1  0.6146596E-006  0.5730223E+02  0.7818608E-02  0.1436944E+00
          2   -1    0    0  502    0  0.00000000000E+00  0.00000000000E+00  0.27528068500E+04  0.27528068500E+04  0.00000000000E+00 0. -1.
          1   -1    0    0  501    0 -0.00000000000E+00 -0.00000000000E+00 -0.41345764843E+02  0.41345764843E+02  0.00000000000E+00 0. -1.
         25    2    1    2    0    0  0.25924246099E+02 -0.96184834663E+02  0.93355363039E+03  0.94713875349E+03  0.12500339429E+03 0.  0.
          2    1    1    2  501    0 -0.32177098166E+01  0.46337364435E+02 -0.18334774987E+02  0.49936649598E+02  0.00000000000E+00 0. -1.
          1    1    1    2  502    0 -0.22706536282E+02  0.49847470228E+02  0.17962422297E+04  0.17970772117E+04  0.00000000000E+00 0. -1.
         22    1    3    3    0    0  0.51297360811E+02 -0.91287218318E+02  0.89255038145E+03  0.89867177483E+03  0.00000000000E+00 0.  1.
         22    1    3    3    0    0 -0.25373114712E+02 -0.48976163443E+01  0.41003248942E+02  0.48466978654E+02  0.00000000000E+00 0.  1.
</event>
<event>
 7    1  0.6146596E-006  0.8800435E+02  0.7818608E-02  0.1310134E+00
          2   -1    0    0  502    0  0.00000000000E+00  0.00000000000E+00  0.11274323638E+03  0.11274323638E+03  0.00000000000E+00 0. -1.
          1   -1    0    0  501    0 -0.00000000000E+00 -0.00000000000E+00 -0.24454516137E+04  0.24454516137E+04  0.00000000000E+00 0. -1.
         25    2    1    2    0    0 -0.42679578576E+02 -0.39905908115E+02 -0.22996286098E+03  0.26818170878E+03  0.12499793423E+03 0.  0.
          2    1    1    2  501    0  0.79832840933E+02 -0.39871284730E+02 -0.21745818324E+04  0.21764119894E+04  0.00000000000E+00 0. -1.
          1    1    1    2  502    0 -0.37153262357E+02  0.79777192845E+02  0.71836316072E+02  0.11360115188E+03  0.00000000000E+00 0. -1.
         22    1    3    3    0    0 -0.51650709671E+02 -0.30491554859E+02 -0.28687818057E+02  0.66487003482E+02  0.00000000000E+00 0. -1.
         22    1    3    3    0    0  0.89711310950E+01 -0.94143532562E+01 -0.20127504293E+03  0.20169470530E+03  0.00000000000E+00 0. -1.
</event>
<event>
 7    1  0.6146596E-006  0.7487780E+02  0.7818608E-02  0.1360546E+00
          2   -1    0    0  502    0  0.00000000000E+00  0.00000000000E+00  0.64322992105E+03  0.64322992105E+03  0.00000000000E+00 0. -1.
          1   -1    0    0  501    0 -0.00000000000E+00 -0.00000000000E+00 -0.52945321903E+03  0.52945321903E+03  0.00000000000E+00 0. -1.
         25    2    1    2    0    0  0.11147182381E+03  0.68875533655E+02  0.15194052661E+02  0.18172744317E+03  0.12499679085E+03 0.  0.
          2    1    1    2  501    0 -0.71186322737E+02 -0.17620866054E+02 -0.44119866695E+03  0.44725188785E+03  0.00000000000E+00 0. -1.
          1    1    1    2  502    0 -0.40285501072E+02 -0.51254667601E+02  0.53978131631E+03  0.54370380906E+03  0.00000000000E+00 0. -1.
         22    1    3    3    0    0  0.30128910947E+02  0.46864178751E+02 -0.50253180911E+02  0.75029225749E+02  0.00000000000E+00 0. -1.
         22    1    3    3    0    0  0.81342912862E+02  0.22011354905E+02  0.65447233572E+02  0.10669821742E+03  0.00000000000E+00 0. -1.
</event>
<event>
 7    1  0.6146596E-006  0.1275135E+03  0.7818608E-02  0.1360978E+00
          2   -1    0    0  502    0  0.00000000000E+00  0.00000000000E+00  0.11436007099E+04  0.11436007099E+04  0.00000000000E+00 0. -1.
          1   -1    0    0  501    0 -0.00000000000E+00 -0.00000000000E+00 -0.76674782700E+03  0.76674782700E+03  0.00000000000E+00 0. -1.
         25    2    1    2    0    0 -0.50747736924E+02 -0.96817975806E+02  0.61563697119E+03  0.63764238218E+03  0.12501949458E+03 0.  0.
          2    1    1    2  501    0 -0.30559301244E+02 -0.22825454977E+02 -0.74512833414E+03  0.74610395162E+03  0.00000000000E+00 0. -1.
          1    1    1    2  502    0  0.81307038168E+02  0.11964343078E+03  0.50634424582E+03  0.52660220305E+03  0.00000000000E+00 0. -1.
         22    1    3    3    0    0 -0.50185565848E+02 -0.97710619099E+01  0.79753188746E+02  0.94734554337E+02  0.00000000000E+00 0. -1.
         22    1    3    3    0    0 -0.56217107636E+00 -0.87046913896E+02  0.53588378244E+03  0.54290782785E+03  0.00000000000E+00 0. -1.
</event>
<event>
 7    1  0.6146596E-006  0.8858999E+02  0.7818608E-02  0.1396166E+00
          2   -1    0    0  502    0  0.00000000000E+00  0.00000000000E+00  0.25151445651E+03  0.25151445651E+03  0.00000000000E+00 0. -1.
          1   -1    0    0  501    0 -0.00000000000E+00 -0.00000000000E+00 -0.50066443899E+03  0.50066443899E+03  0.00000000000E+00 0. -1.
         25    2    1    2    0    0 -0.12563166885E+03 -0.85272915700E+01 -0.10199637475E+03  0.20465609118E+03  0.12499929711E+03 0.  0.
          2    1    1    2  501    0  0.84714984631E+02  0.38916365044E+01 -0.33995505200E+03  0.35037295963E+03  0.00000000000E+00 0. -1.
          1    1    1    2  502    0  0.40916684219E+02  0.46356550656E+01  0.19280144428E+03  0.19714984469E+03  0.00000000000E+00 0. -1.
         22    1    3    3    0    0 -0.13296228236E+02  0.39201315282E+02  0.58193141493E+01  0.41801880608E+02  0.00000000000E+00 0.  1.
         22    1    3    3    0    0 -0.11233544061E+03 -0.47728606852E+02 -0.10781568890E+03  0.16285421058E+03  0.00000000000E+00 0.  1.
</event>
<event>
 7    1  0.6146596E-006  0.4672257E+02  0.7818608E-02  0.1465061E+00
          2   -1    0    0  502    0  0.00000000000E+00  0.00000000000E+00  0.40203169995E+02  0.40203169995E+02  0.00000000000E+00 0. -1.
          1   -1    0    0  501    0 -0.00000000000E+00 -0.00000000000E+00 -0.21184728582E+04  0.21184728582E+04  0.00000000000E+00 0. -1.
         25    2    1    2    0    0  0.16961366645E+02  0.21337944030E+02 -0.14989319723E+03  0.19706107095E+03  0.12498839663E+03 0.  0.
          2    1    1    2  501    0  0.25585308679E+02 -0.39652670312E+02 -0.19118524276E+04  0.19124347433E+04  0.00000000000E+00 0. -1.
          1    1    1    2  502    0 -0.42546675324E+02  0.18314726282E+02 -0.16524063397E+02  0.49180214020E+02  0.00000000000E+00 0. -1.
         22    1    3    3    0    0 -0.30906241609E+02 -0.36305310329E+02 -0.87121438796E+02  0.99314734185E+02  0.00000000000E+00 0. -1.
         22    1    3    3    0    0  0.47867608254E+02  0.57643254358E+02 -0.62771758436E+02  0.97746336760E+02  0.00000000000E+00 0. -1.
</event>
<event>
 7    1  0.6146596E-006  0.9361284E+02  0.7818608E-02  0.1326339E+00
          2   -1    0    0  502    0  0.00000000000E+00  0.00000000000E+00  0.38305195769E+03  0.38305195769E+03  0.00000000000E+00 0. -1.
          1   -1    0    0  501    0 -0.00000000000E+00 -0.00000000000E+00 -0.72871837338E+03  0.72871837338E+03  0.00000000000E+00 0. -1.
         25    2    1    2    0    0 -0.87846611090E+02 -0.87327121789E+02  0.10892254766E+03  0.20695823532E+03  0.12499814598E+03 0.  0.
          2    1    1    2  501    0  0.17958115962E+02  0.91676077311E+02 -0.67093950396E+03  0.67741185039E+03  0.00000000000E+00 0. -1.
          1    1    1    2  502    0  0.69888495128E+02 -0.43489555223E+01  0.21635054061E+03  0.22740024536E+03  0.00000000000E+00 0. -1.
         22    1    3    3    0    0 -0.42910901769E+02 -0.42699138739E+01 -0.19685371408E+02  0.47403496734E+02  0.00000000000E+00 0. -1.
         22    1    3    3    0    0 -0.44935709321E+02 -0.83057207915E+02  0.12860791906E+03  0.15955473858E+03  0.00000000000E+00 0. -1.
</event>
<event>
 7    1  0.6146596E-006  0.1046502E+03  0.7818608E-02  0.1367752E+00
          2   -1    0    0  502    0  0.00000000000E+00  0.00000000000E+00  0.72100770755E+03  0.72100770755E+03  0.00000000000E+00 0. -1.
          1   -1    0    0  501    0 -0.00000000000E+00 -0.00000000000E+00 -0.21569148464E+03  0.21569148464E+03  0.00000000000E+00 0. -1.
         25    2    1    2    0    0 -0.11575523356E+03  0.54900605567E+02  0.23777531523E+03  0.29760728762E+03  0.12497858425E+03 0.  0.
          2    1    1    2  501    0  0.75098222703E+02 -0.71514938988E+02 -0.17011828206E+03  0.19923443337E+03  0.00000000000E+00 0. -1.
          1    1    1    2  502    0  0.40657010856E+02  0.16614333421E+02  0.43765918973E+03  0.43985747119E+03  0.00000000000E+00 0. -1.
         22    1    3    3    0    0 -0.12711933670E+03  0.15931902648E+02  0.21702817819E+03  0.25202059720E+03  0.00000000000E+00 0. -1.
         22    1    3    3    0    0  0.11364103143E+02  0.38968702919E+02  0.20747137038E+02  0.45586690412E+02  0.00000000000E+00 0. -1.
</event>
<event>
 7    1  0.6146596E-006  0.4680511E+02  0.7818608E-02  0.1475324E+00
          2   -1    0    0  502    0  0.00000000000E+00  0.00000000000E+00  0.41702277120E+04  0.41702277120E+04  0.00000000000E+00 0. -1.
          1   -1    0    0  501    0 -0.00000000000E+00 -0.00000000000E+00 -0.21714189815E+02  0.21714189815E+02  0.00000000000E+00 0. -1.
         25    2    1    2    0    0 -0.22948139290E+02 -0.31982466404E+02  0.14788724614E+04  0.14846667597E+04  0.12498853928E+03 0.  0.
          2    1    1    2  501    0  0.40850375656E+02 -0.13307701853E+02  0.62227598516E+01  0.43411644291E+02  0.00000000000E+00 0. -1.
          1    1    1    2  502    0 -0.17902236366E+02  0.45290168256E+02  0.26634183009E+04  0.26638634979E+04  0.00000000000E+00 0. -1.
         22    1    3    3    0    0  0.40603843586E+01  0.46230634535E+02  0.41675084922E+03  0.41932687562E+03  0.00000000000E+00 0.  1.
         22    1    3    3    0    0 -0.27008523649E+02 -0.78213100939E+02  0.10621216122E+04  0.10653398841E+04  0.00000000000E+00 0.  1.
</event>
<event>
 7    1  0.6146596E-006  0.6423615E+02  0.7818608E-02  0.1451120E+00
          2   -1    0    0  502    0  0.00000000000E+00  0.00000000000E+00  0.98910500855E+03  0.98910500855E+03  0.00000000000E+00 0. -1.
          1   -1    0    0  501    0 -0.00000000000E+00 -0.00000000000E+00 -0.20637404762E+02  0.20637404762E+02  0.00000000000E+00 0. -1.
         25    2    1    2    0    0 -0.38997576398E+02 -0.72819910182E+02  0.64072659158E+03  0.65801192848E+03  0.12500233030E+03 0.  0.
          2    1    1    2  501    0  0.50265006752E+02  0.37269790342E+02  0.81858922983E+02  0.10303635983E+03  0.00000000000E+00 0. -1.
          1    1    1    2  502    0 -0.11267430354E+02  0.35550119840E+02  0.24588208922E+03  0.24869412500E+03  0.00000000000E+00 0. -1.
         22    1    3    3    0    0 -0.79202146433E+02 -0.24404952777E+02  0.43690630340E+03  0.44469731241E+03  0.00000000000E+00 0.  1.
         22    1    3    3    0    0  0.40204570035E+02 -0.48414957406E+02  0.20382028819E+03  0.21331461607E+03  0.00000000000E+00 0.  1.
</event>
<event>
 7    1  0.6146596E-006  0.8443609E+02  0.7818608E-02  0.1349597E+00
          2   -1    0    0  502    0  0.00000000000E+00  0.00000000000E+00  0.68485276957E+03  0.68485276957E+03  0.00000000000E+00 0. -1.
          1   -1    0    0  501    0 -0.00000000000E+00 -0.00000000000E+00 -0.25321005527E+03  0.25321005527E+03  0.00000000000E+00 0. -1.
         25    2    1    2    0    0  0.88310631498E+01  0.14591985634E+03 -0.24455590114E+02  0.19385598638E+03  0.12494588995E+03 0.  0.
          2    1    1    2  501    0 -0.55584479856E+01 -0.63182738059E+02 -0.13403934220E+03  0.14828856999E+03  0.00000000000E+00 0. -1.
          1    1    1    2  502    0 -0.32726151643E+01 -0.82737118285E+02  0.59013764661E+03  0.59591826847E+03  0.00000000000E+00 0. -1.
         22    1    3    3    0    0  0.22438441526E+02  0.35910557904E+02  0.45991954172E+02  0.62516491230E+02  0.00000000000E+00 0. -1.
         22    1    3    3    0    0 -0.13607378376E+02  0.11000929844E+03 -0.70447544286E+02  0.13133949515E+03  0.00000000000E+00 0. -1.
</event>
<event>
 7    1  0.6146596E-006  0.7049558E+02  0.7818608E-02  0.1411913E+00
          2   -1    0    0  502    0  0.00000000000E+00  0.00000000000E+00  0.10042468460E+04  0.10042468460E+04  0.00000000000E+00 0. -1.
          1   -1    0    0  501    0 -0.00000000000E+00 -0.00000000000E+00 -0.39531002264E+03  0.39531002264E+03  0.00000000000E+00 0. -1.
         25    2    1    2    0    0  0.32884780360E+02  0.47707356388E+02 -0.34491477780E+02  0.14201753854E+03  0.12498767371E+03 0.  0.
          2    1    1    2  501    0 -0.39589618717E+02  0.22859975294E+02 -0.30402256928E+03  0.30744046418E+03  0.00000000000E+00 0. -1.
          1    1    1    2  502    0  0.67048383577E+01 -0.70567331682E+02  0.94745087045E+03  0.95009886595E+03  0.00000000000E+00 0. -1.
         22    1    3    3    0    0 -0.61935043820E+01 -0.40553043244E+02 -0.66582561477E+01  0.41560091288E+02  0.00000000000E+00 0.  1.
         22    1    3    3    0    0  0.39078284742E+02  0.88260399633E+02 -0.27833221633E+02  0.10045744725E+03  0.00000000000E+00 0.  1.
</event>
<event>
 7    1  0.6146596E-006  0.1540157E+03  0.7818608E-02  0.1279209E+00
          2   -1    0    0  502    0  0.00000000000E+00  0.00000000000E+00  0.75025603807E+03  0.75025603807E+03  0.00000000000E+00 0. -1.
          1   -1    0    0  501    0 -0.00000000000E+00 -0.00000000000E+00 -0.18878133701E+04  0.18878133701E+04  0.00000000000E+00 0. -1.
         25    2    1    2    0    0 -0.18764649536E+03  0.29553519236E+02 -0.13336192620E+04  0.13528677981E+04  0.12500530208E+03 0.  0.
          2    1    1    2  501    0  0.12670559019E+03 -0.52621849649E+01 -0.53569956690E+03  0.55050524353E+03  0.00000000000E+00 0. -1.
          1    1    1    2  502    0  0.60940905174E+02 -0.24291334271E+02  0.73176149680E+03  0.73469636656E+03  0.00000000000E+00 0. -1.
         22    1    3    3    0    0 -0.12843185635E+03  0.18957550850E+02 -0.11913626571E+04  0.11984152499E+04  0.00000000000E+00 0. -1.
         22    1    3    3    0    0 -0.59214639011E+02  0.10595968386E+02 -0.14225660484E+03  0.15445254818E+03  0.00000000000E+00 0. -1.
</event>
<event>
 7    1  0.6146596E-006  0.3740999E+02  0.7818608E-02  0.1586724E+00
          2   -1    0    0  502    0  0.00000000000E+00  0.00000000000E+00  0.78208129514E+03  0.78208129514E+03  0.00000000000E+00 0. -1.
          1   -1    0    0  501    0 -0.00000000000E+00 -0.00000000000E+00 -0.13105158847E+04  0.13105158847E+04  0.00000000000E+00 0. -1.
         25    2    1    2    0    0 -0.24571110006E+01 -0.57346950559E+02 -0.37316906184E+01  0.13755618862E+03  0.12495226840E+03 0.  0.
          2    1    1    2  501    0 -0.11344625032E+02  0.35575593704E+02 -0.12393583777E+04  0.12399207683E+04  0.00000000000E+00 0. -1.
          1    1    1    2  502    0  0.13801736032E+02  0.21771356854E+02  0.71465547875E+03  0.71512022290E+03  0.00000000000E+00 0. -1.
         22    1    3    3    0    0 -0.39058034241E+02 -0.74802510521E+02 -0.29635503124E+02  0.89438295290E+02  0.00000000000E+00 0. -1.
         22    1    3    3    0    0  0.36600923241E+02  0.17455559962E+02  0.25903812506E+02  0.48117893325E+02  0.00000000000E+00 0. -1.
</event>
<event>
 7    1  0.6146596E-006  0.1447030E+03  0.7818608E-02  0.1312680E+00
          2   -1    0    0  502    0  0.00000000000E+00  0.00000000000E+00  0.46216068086E+03  0.46216068086E+03  0.00000000000E+00 0. -1.
          1   -1    0    0  501    0 -0.00000000000E+00 -0.00000000000E+00 -0.39214015414E+03  0.39214015414E+03  0.00000000000E+00 0. -1.
         25    2    1    2    0    0 -0.13934035326E+02 -0.15660032477E+03 -0.78005238925E+02  0.21547113010E+03  0.12500068619E+03 0.  0.
          2    1    1    2  501    0 -0.34024513214E+02  0.13871584826E+03 -0.22271168502E+03  0.26457560111E+03  0.00000000000E+00 0. -1.
          1    1    1    2  502    0  0.47958548540E+02  0.17884476518E+02  0.37073745067E+03  0.37425410379E+03  0.00000000000E+00 0. -1.
         22    1    3    3    0    0  0.47504298168E+02 -0.27813567461E+02 -0.39259517539E+02  0.67613331502E+02  0.00000000000E+00 0. -1.
         22    1    3    3    0    0 -0.61438333494E+02 -0.12878675731E+03 -0.38745721386E+02  0.14785779860E+03  0.00000000000E+00 0. -1.
</event>
<event>
 7    1  0.6146596E-006  0.1218822E+03  0.7818608E-02  0.1357543E+00
          2   -1    0    0  502    0  0.00000000000E+00  0.00000000000E+00  0.36643436706E+03  0.36643436706E+03  0.00000000000E+00 0. -1.
          1   -1    0    0  501    0 -0.00000000000E+00 -0.00000000000E+00 -0.11498892792E+04  0.11498892792E+04  0.00000000000E+00 0. -1.
         25    2    1    2    0    0  0.10190800569E+03  0.61039110044E+02 -0.34962805483E+02  0.17595484687E+03  0.12500678297E+03 0.  0.
          2    1    1    2  501    0 -0.77904288771E+02 -0.94370659703E+02 -0.10393982577E+04  0.10465771055E+04  0.00000000000E+00 0. -1.
          1    1    1    2  502    0 -0.24003716919E+02  0.33331549658E+02  0.29090615110E+03  0.29379169385E+03  0.00000000000E+00 0. -1.
         22    1    3    3    0    0  0.27375358789E+02  0.33056780619E+01 -0.70110954840E+02  0.75338461392E+02  0.00000000000E+00 0.  1.
         22    1    3    3    0    0  0.74532646901E+02  0.57733431983E+02  0.35148149357E+02  0.10061638547E+03  0.00000000000E+00 0.  1.
</event>
<event>
 7    1  0.6146596E-006  0.1812627E+03  0.7818608E-02  0.1202292E+00
          2   -1    0    0  502    0  0.00000000000E+00  0.00000000000E+00  0.44965296194E+04  0.44965296194E+04  0.00000000000E+00 0. -1.
          1   -1    0    0  501    0 -0.00000000000E+00 -0.00000000000E+00 -0.82515415184E+02  0.82515415184E+02  0.00000000000E+00 0. -1.
         25    2    1    2    0    0  0.73842465280E+02 -0.35220658186E+02  0.12240992940E+04  0.12331817031E+04  0.12499930683E+03 0.  0.
          2    1    1    2  501    0 -0.12390957410E+03  0.14615312085E+03  0.42717889540E+02  0.19631386954E+03  0.00000000000E+00 0. -1.
          1    1    1    2  502    0  0.50067108817E+02 -0.11093246266E+03  0.31471970207E+04  0.31495494620E+04  0.00000000000E+00 0. -1.
         22    1    3    3    0    0 -0.20110883410E+02 -0.21967260378E+02  0.69528008985E+03  0.69591767581E+03  0.00000000000E+00 0. -1.
         22    1    3    3    0    0  0.93953348690E+02 -0.13253397808E+02  0.52881920417E+03  0.53726402725E+03  0.00000000000E+00 0. -1.
</event>
<event>
 7    1  0.6146596E-006  0.6793821E+02  0.7818608E-02  0.1378815E+00
          2   -1    0    0  502    0  0.00000000000E+00  0.00000000000E+00  0.17215495423E+04  0.17215495423E+04  0.00000000000E+00 0. -1.
          1   -1    0    0  501    0 -0.00000000000E+00 -0.00000000000E+00 -0.41465650753E+03  0.41465650753E+03  0.00000000000E+00 0. -1.
         25    2    1    2    0    0  0.45627213393E+02 -0.22930601244E+02  0.16897840644E+03  0.21630554159E+03  0.12500692143E+03 0.  0.
          2    1    1    2  501    0 -0.57298407938E+02 -0.37718151341E+02 -0.38735430692E+03  0.39338165385E+03  0.00000000000E+00 0. -1.
          1    1    1    2  502    0  0.11671194545E+02  0.60648752585E+02  0.15252689352E+04  0.15265188544E+04  0.00000000000E+00 0. -1.
         22    1    3    3    0    0 -0.14328935055E+01  0.20574582591E+02 -0.12312412339E+02  0.24020036015E+02  0.00000000000E+00 0.  1.
         22    1    3    3    0    0  0.47060106899E+02 -0.43505183835E+02  0.18129081878E+03  0.19228550558E+03  0.00000000000E+00 0.  1.
</event>
<event>
 7    1  0.8569823E-006  0.8514680E+02  0.7818608E-02  0.1376235E+00
          2   -1    0    0  502    0  0.00000000000E+00  0.00000000000E+00  0.15459802325E+04  0.15459802325E+04  0.00000000000E+00 0. -1.
          1   -1    0    0  501    0 -0.00000000000E+00 -0.00000000000E+00 -0.10915212941E+04  0.10915212941E+04  0.00000000000E+00 0. -1.
         25    2    1    2    0    0 -0.11397202103E+03 -0.22675313316E+01 -0.97740439401E+02  0.19537387385E+03  0.12499197499E+03 0.  0.
          2    1    1    2  501    0  0.77792174709E+02 -0.32721538828E+02 -0.94265547309E+03  0.94642573005E+03  0.00000000000E+00 0. -1.
          1    1    1    2  502    0  0.36179846323E+02  0.34989070160E+02  0.14948548509E+04  0.14957019227E+04  0.00000000000E+00 0. -1.
         22    1    3    3    0    0  0.14499034194E+02  0.20895758968E+02  0.87595759965E+01  0.26899533584E+02  0.00000000000E+00 0. -1.
         22    1    3    3    0    0 -0.12847105523E+03 -0.23163290300E+02 -0.10650001540E+03  0.16847434027E+03  0.00000000000E+00 0. -1.
</event>
<event>
 7    1  0.6146596E-006  0.3387415E+02  0.7818608E-02  0.1566357E+00
          2   -1    0    0  502    0  0.00000000000E+00  0.00000000000E+00  0.10153512613E+03  0.10153512613E+03  0.00000000000E+00 0. -1.
          1   -1    0    0  501    0 -0.00000000000E+00 -0.00000000000E+00 -0.74538949232E+03  0.74538949232E+03  0.00000000000E+00 0. -1.
         25    2    1    2    0    0 -0.50905886296E+02 -0.13305742944E+02 -0.56962968146E+02  0.14709843896E+03  0.12499887579E+03 0.  0.
          2    1    1    2  501    0  0.31410811731E+02 -0.12449507649E+02 -0.63825564646E+03  0.63914935624E+03  0.00000000000E+00 0. -1.
          1    1    1    2  502    0  0.19495074565E+02  0.25755250593E+02  0.51364248422E+02  0.60676823264E+02  0.00000000000E+00 0. -1.
         22    1    3    3    0    0 -0.90688745854E+02 -0.11908014272E+02 -0.56061823274E+02  0.10728083453E+03  0.00000000000E+00 0.  1.
         22    1    3    3    0    0  0.39782859559E+02 -0.13977286711E+01 -0.90114487156E+00  0.39817604425E+02  0.00000000000E+00 0.  1.
</event>
<event>
 7    1  0.6146596E-006  0.7684210E+02  0.7818608E-02  0.1471294E+00
          2   -1    0    0  502    0  0.00000000000E+00  0.00000000000E+00  0.19018668748E+02  0.19018668748E+02  0.00000000000E+00 0. -1.
          1   -1    0    0  501    0 -0.00000000000E+00 -0.00000000000E+00 -0.86915576082E+03  0.86915576082E+03  0.00000000000E+00 0. -1.
         25    2    1    2    0    0  0.56790726775E+02 -0.13140847411E+01 -0.55598586799E+03  0.57268704008E+03  0.12499298786E+03 0.  0.
          2    1    1    2  501    0  0.26931846681E+02 -0.77569378360E-01 -0.10907041269E+03  0.11234627412E+03  0.00000000000E+00 0. -1.
          1    1    1    2  502    0 -0.83722573455E+02  0.13916541195E+01 -0.18508081139E+03  0.20314111537E+03  0.00000000000E+00 0. -1.
         22    1    3    3    0    0 -0.15850895820E+02 -0.15388788101E+02 -0.15090650052E+02  0.26754315848E+02  0.00000000000E+00 0. -1.
         22    1    3    3    0    0  0.72641622595E+02  0.14074703360E+02 -0.54089521793E+03  0.54593272424E+03  0.00000000000E+00 0. -1.
</event>
<event>
 7    1  0.6146596E-006  0.6851728E+02  0.7818608E-02  0.1391862E+00
          2   -1    0    0  502    0  0.00000000000E+00  0.00000000000E+00  0.27360577269E+03  0.27360577269E+03  0.00000000000E+00 0. -1.
          1   -1    0    0  501    0 -0.00000000000E+00 -0.00000000000E+00 -0.32916262730E+03  0.32916262730E+03  0.00000000000E+00 0. -1.
         25    2    1    2    0    0  0.99462777405E+02  0.27525242441E+02  0.99727906793E+02  0.19031810992E+03  0.12499937804E+03 0.  0.
          2    1    1    2  501    0 -0.36936014235E+02 -0.40893115070E+02 -0.27299183949E+03  0.27849786432E+03  0.00000000000E+00 0. -1.
          1    1    1    2  502    0 -0.62526763171E+02  0.13367872629E+02  0.11770707808E+03  0.13395242574E+03  0.00000000000E+00 0. -1.
         22    1    3    3    0    0  0.62670535659E+02  0.62618928621E+01 -0.17712605403E+02  0.65425864397E+02  0.00000000000E+00 0. -1.
         22    1    3    3    0    0  0.36792241747E+02  0.21263349579E+02  0.11744051220E+03  0.12489224553E+03  0.00000000000E+00 0. -1.
</event>
<event>
 7    1  0.6146596E-006  0.4673447E+02  0.7818608E-02  0.1559372E+00
          2   -1    0    0  502    0  0.00000000000E+00  0.00000000000E+00  0.35136459912E+03  0.35136459912E+03  0.00000000000E+00 0. -1.
          1   -1    0    0  501    0 -0.00000000000E+00 -0.00000000000E+00 -0.21304170902E+03  0.21304170902E+03  0.00000000000E+00 0. -1.
         25    2    1    2    0    0 -0.35141053929E+02  0.60910820206E+02 -0.10492670733E+03  0.17770159949E+03  0.12499289125E+03 0.  0.
          2    1    1    2  501    0  0.82498590150E+01 -0.23035969448E+02 -0.67865142979E+02  0.72141483861E+02  0.00000000000E+00 0. -1.
          1    1    1    2  502    0  0.26891194914E+02 -0.37874850759E+02  0.31111474041E+03  0.31456322478E+03  0.00000000000E+00 0. -1.
         22    1    3    3    0    0 -0.43418065953E+02  0.30841363862E+02 -0.12817712776E+03  0.13880091591E+03  0.00000000000E+00 0. -1.
         22    1    3    3    0    0  0.82770120239E+01  0.30069456344E+02  0.23250420433E+02  0.38900683582E+02  0.00000000000E+00 0. -1.
</event>
<event>
 7    1  0.6146596E-006  0.7871009E+02  0.7818608E-02  0.1399061E+00
          2   -1    0    0  502    0  0.00000000000E+00  0.00000000000E+00  0.30104752688E+03  0.30104752688E+03  0.00000000000E+00 0. -1.
          1   -1    0    0  501    0 -0.00000000000E+00 -0.00000000000E+00 -0.17146098695E+04  0.17146098695E+04  0.00000000000E+00 0. -1.
         25    2    1    2    0    0  0.10712202016E+03 -0.47280414044E+02  0.80233236905E+02  0.18912298601E+03  0.12497826522E+03 0.  0.
          2    1    1    2  501    0 -0.44156676219E+02  0.10084420694E+02 -0.16518029362E+04  0.16524238099E+04  0.00000000000E+00 0. -1.
          1    1    1    2  502    0 -0.62965343939E+02  0.37195993350E+02  0.15800735662E+03  0.17411060049E+03  0.00000000000E+00 0. -1.
         22    1    3    3    0    0 -0.25732548489E+02 -0.23562276756E+01 -0.30407477644E+01  0.26018493569E+02  0.00000000000E+00 0. -1.
         22    1    3    3    0    0  0.13285456865E+03 -0.44924186369E+02  0.83273984670E+02  0.16310449244E+03  0.00000000000E+00 0. -1.
</event>
<event>
 7    1  0.6146596E-006  0.1139150E+03  0.7818608E-02  0.1287311E+00
          2   -1    0    0  502    0  0.00000000000E+00  0.00000000000E+00  0.36131891850E+04  0.36131891850E+04  0.00000000000E+00 0. -1.
          1   -1    0    0  501    0 -0.00000000000E+00 -0.00000000000E+00 -0.23147634108E+02  0.23147634108E+02  0.00000000000E+00 0. -1.
         25    2    1    2    0    0  0.11109764595E+02  0.56634015507E+02  0.68984200096E+03  0.70344715138E+03  0.12500027969E+03 0.  0.
          2    1    1    2  501    0 -0.45376679249E+02 -0.13129510255E+03  0.29161586716E+03  0.32301278760E+03  0.00000000000E+00 0. -1.
          1    1    1    2  502    0  0.34266914654E+02  0.74661087047E+02  0.26085836828E+04  0.26098768801E+04  0.00000000000E+00 0. -1.
         22    1    3    3    0    0  0.53048441510E+02  0.65460279544E+02  0.31180088615E+03  0.32298448561E+03  0.00000000000E+00 0. -1.
         22    1    3    3    0    0 -0.41938676914E+02 -0.88262640361E+01  0.37804111481E+03  0.38046266577E+03  0.00000000000E+00 0. -1.
</event>
<event>
 7    1  0.6146596E-006  0.8639463E+02  0.7818608E-02  0.1369111E+00
          2   -1    0    0  502    0  0.00000000000E+00  0.00000000000E+00  0.17781427880E+04  0.17781427880E+04  0.00000000000E+00 0. -1.
          1   -1    0    0  501    0 -0.00000000000E+00 -0.00000000000E+00 -0.12506085917E+04  0.12506085917E+04  0.00000000000E+00 0. -1.
         25    2    1    2    0    0 -0.45546646336E+02  0.29982995633E+02  0.90323681896E+03  0.91347421897E+03  0.12499968233E+03 0.  0.
          2    1    1    2  501    0 -0.39860429251E+02  0.34328341073E+02 -0.12416454777E+04  0.12427593416E+04  0.00000000000E+00 0. -1.
          1    1    1    2  502    0  0.85407075587E+02 -0.64311336706E+02  0.86594285497E+03  0.87251781911E+03  0.00000000000E+00 0. -1.
         22    1    3    3    0    0  0.17765277821E+02  0.41176436536E+02  0.67114789952E+03  0.67264448787E+03  0.00000000000E+00 0.  1.
         22    1    3    3    0    0 -0.63311924157E+02 -0.11193440903E+02  0.23208891944E+03  0.24082973111E+03  0.00000000000E+00 0.  1.
</event>
<event>
 7    1  0.6146596E-006  0.5362972E+02  0.7818608E-02  0.1470513E+00
          2   -1    0    0  502    0  0.00000000000E+00  0.00000000000E+00  0.44868757523E+03  0.44868757523E+03  0.00000000000E+00 0. -1.
          1   -1    0    0  501    0 -0.00000000000E+00 -0.00000000000E+00 -0.23577810404E+04  0.23577810404E+04  0.00000000000E+00 0. -1.
         25    2    1    2    0    0 -0.22803231181E+02 -0.53005433095E+02  0.15549360776E+03  0.20768362541E+03  0.12499865167E+03 0.  0.
          2    1    1    2  501    0  0.38795046157E+02  0.87857561695E+00 -0.23287400736E+04  0.23290633649E+04  0.00000000000E+00 0. -1.
          1    1    1    2  502    0 -0.15991814976E+02  0.52126857478E+02  0.26415300064E+03  0.26972162532E+03  0.00000000000E+00 0. -1.
         22    1    3    3    0    0 -0.71634610807E+02 -0.21319720320E+02  0.11353362127E+03  0.13592619725E+03  0.00000000000E+00 0.  1.
         22    1    3    3    0    0  0.48831379626E+02 -0.31685712776E+02  0.41959986488E+02  0.71757428162E+02  0.00000000000E+00 0.  1.
</event>
<event>
 7    1  0.6146596E-006  0.3551686E+02  0.7818608E-02  0.1553906E+00
          2   -1    0    0  502    0  0.00000000000E+00  0.00000000000E+00  0.19559436109E+03  0.19559436109E+03  0.00000000000E+00 0. -1.
          1   -1    0    0  501    0 -0.00000000000E+00 -0.00000000000E+00 -0.21200807714E+04  0.21200807714E+04  0.00000000000E+00 0. -1.
         25    2    1    2    0    0 -0.15127127496E+02 -0.52318972727E+02 -0.74217322554E+02  0.15523973124E+03  0.12500023318E+03 0.  0.
          2    1    1    2  501    0 -0.12253253856E+02  0.33301467128E+02 -0.20034017759E+04  0.20037159992E+04  0.00000000000E+00 0. -1.
          1    1    1    2  502    0  0.27380381351E+02  0.19017505599E+02  0.15313268811E+03  0.15671940203E+03  0.00000000000E+00 0. -1.
         22    1    3    3    0    0 -0.15693265404E+02  0.12614961308E+02 -0.86792053607E+02  0.89097005546E+02  0.00000000000E+00 0.  1.
         22    1    3    3    0    0  0.56613790875E+00 -0.64933934035E+02  0.12574731053E+02  0.66142725696E+02  0.00000000000E+00 0.  1.
</event>
<event>
 7    1  0.6146596E-006  0.9986716E+02  0.7818608E-02  0.1447057E+00
          2   -1    0    0  502    0  0.00000000000E+00  0.00000000000E+00  0.64206065117E+02  0.64206065117E+02  0.00000000000E+00 0. -1.
          1   -1    0    0  501    0 -0.00000000000E+00 -0.00000000000E+00 -0.19791000740E+04  0.19791000740E+04  0.00000000000E+00 0. -1.
         25    2    1    2    0    0 -0.76814935014E+02 -0.77399107303E+01 -0.20215841202E+03  0.24990695117E+03  0.12500008093E+03 0.  0.
          2    1    1    2  501    0  0.10120010543E+03  0.37018867001E+01 -0.17476718532E+04  0.17506033450E+04  0.00000000000E+00 0. -1.
          1    1    1    2  502    0 -0.24385170418E+02  0.40380240302E+01  0.34936256251E+02  0.42795842967E+02  0.00000000000E+00 0. -1.
         22    1    3    3    0    0  0.18607580578E+02  0.29943816876E+02 -0.19191930737E+02  0.40139811029E+02  0.00000000000E+00 0. -1.
         22    1    3    3    0    0 -0.95422515591E+02 -0.37683727606E+02 -0.18296648128E+03  0.20976714014E+03  0.00000000000E+00 0. -1.
</event>
<event>
 7    1  0.6146596E-006  0.4747421E+02  0.7818608E-02  0.1566822E+00
          2   -1    0    0  502    0  0.00000000000E+00  0.00000000000E+00  0.84132450502E+03  0.84132450502E+03  0.00000000000E+00 0. -1.
          1   -1    0    0  501    0 -0.00000000000E+00 -0.00000000000E+00 -0.21142409829E+03  0.21142409829E+03  0.00000000000E+00 0. -1.
         25    2    1    2    0    0  0.19918521746E+02  0.32117064762E+02 -0.86402573424E+02  0.15658977022E+03  0.12500679215E+03 0.  0.
          2    1    1    2  501    0 -0.17097492149E+02  0.15355587289E+02 -0.87745613943E+02  0.90705077394E+02  0.00000000000E+00 0. -1.
          1    1    1    2  502    0 -0.28210295973E+01 -0.47472652051E+02  0.80404859410E+03  0.80545375570E+03  0.00000000000E+00 0. -1.
         22    1    3    3    0    0  0.22481641562E+02 -0.22820413677E+02 -0.95603947198E+02  0.10082812211E+03  0.00000000000E+00 0. -1.
         22    1    3    3    0    0 -0.25631198153E+01  0.54937478440E+02  0.92013737739E+01  0.55761648109E+02  0.00000000000E+00 0. -1.
</event>
<event>
 7    1  0.6146596E-006  0.5910873E+02  0.7818608E-02  0.1507062E+00
          2   -1    0    0  502    0  0.00000000000E+00  0.00000000000E+00  0.99402193863E+03  0.99402193863E+03  0.00000000000E+00 0. -1.
          1   -1    0    0  501    0 -0.00000000000E+00 -0.00000000000E+00 -0.34362136966E+03  0.34362136966E+03  0.00000000000E+00 0. -1.
         25    2    1    2    0    0 -0.31013017966E+02  0.35719986528E+02 -0.10105854463E+03  0.16755595897E+03  0.12499778087E+03 0.  0.
          2    1    1    2  501    0  0.56009885768E+02 -0.24792101909E+02 -0.20463436684E+03  0.21360472774E+03  0.00000000000E+00 0. -1.
          1    1    1    2  502    0 -0.24996867802E+02 -0.10927884620E+02  0.95609348044E+03  0.95648262159E+03  0.00000000000E+00 0. -1.
         22    1    3    3    0    0 -0.41107808772E+02 -0.26948351539E+02 -0.90807604732E+02  0.10325738070E+03  0.00000000000E+00 0.  1.
         22    1    3    3    0    0  0.10094790806E+02  0.62668338068E+02 -0.10250939896E+02  0.64298578261E+02  0.00000000000E+00 0.  1.
</event>
<event>
 7    1  0.6146596E-006  0.1934316E+03  0.7818608E-02  0.1276337E+00
          2   -1    0    0  502    0  0.00000000000E+00  0.00000000000E+00  0.26906255679E+03  0.26906255679E+03  0.00000000000E+00 0. -1.
          1   -1    0    0  501    0 -0.00000000000E+00 -0.00000000000E+00 -0.69128801323E+03  0.69128801323E+03  0.00000000000E+00 0. -1.
         25    2    1    2    0    0  0.14061308377E+03 -0.36585212089E+02 -0.34695136904E+03  0.39637119747E+03  0.12499742650E+03 0.  0.
          2    1    1    2  501    0  0.53159602684E+02 -0.75154020232E+01 -0.27620452617E+03  0.28137406580E+03  0.00000000000E+00 0. -1.
          1    1    1    2  502    0 -0.19377268646E+03  0.44100614112E+02  0.20093043877E+03  0.28260530675E+03  0.00000000000E+00 0. -1.
         22    1    3    3    0    0 -0.18889321201E+02  0.14559778003E+02 -0.36180138021E+02  0.43333543337E+02  0.00000000000E+00 0.  1.
         22    1    3    3    0    0  0.15950240498E+03 -0.51144990092E+02 -0.31077123102E+03  0.35303765413E+03  0.00000000000E+00 0.  1.
</event>
<event>
 7    1  0.6146596E-006  0.5094012E+02  0.7818608E-02  0.1490413E+00
          2   -1    0    0  502    0  0.00000000000E+00  0.00000000000E+00  0.68323033214E+03  0.68323033214E+03  0.00000000000E+00 0. -1.
          1   -1    0    0  501    0 -0.00000000000E+00 -0.00000000000E+00 -0.73570433784E+03  0.73570433784E+03  0.00000000000E+00 0. -1.
         25    2    1    2    0    0  0.23504977415E+01  0.19128655832E+02  0.82700769314E+02  0.15111678493E+03  0.12500174050E+03 0.  0.
          2    1    1    2  501    0  0.24934716727E+02  0.25268354675E+02 -0.69984670652E+03  0.70074648945E+03  0.00000000000E+00 0. -1.
          1    1    1    2  502    0 -0.27285214468E+02 -0.44397010507E+02  0.56467193151E+03  0.56707139560E+03  0.00000000000E+00 0. -1.
         22    1    3    3    0    0  0.57205418036E+02  0.93674943373E+01  0.89012956557E+01  0.58646763484E+02  0.00000000000E+00 0.  1.
         22    1    3    3    0    0 -0.54854920294E+02  0.97611614951E+01  0.73799473658E+02  0.92470021447E+02  0.00000000000E+00 0.  1.
</event>
<event>
 7    1  0.6146596E-006  0.2687054E+02  0.7818608E-02  0.1640387E+00
          2   -1    0    0  502    0  0.00000000000E+00  0.00000000000E+00  0.16256190252E+02  0.16256190252E+02  0.00000000000E+00 0. -1.
          1   -1    0    0  501    0 -0.00000000000E+00 -0.00000000000E+00 -0.36104027814E+04  0.36104027814E+04  0.00000000000E+00 0. -1.
         25    2    1    2    0    0 -0.11650257706E+02 -0.36194261858E+01 -0.24916049253E+04  0.24947690929E+04  0.12501557685E+03 0.  0.
          2    1    1    2  501    0 -0.36102174151E+01  0.25877984599E+02 -0.11045208863E+04  0.11048298928E+04  0.00000000000E+00 0. -1.
          1    1    1    2  502    0  0.15260475121E+02 -0.22258558413E+02  0.19792204759E+01  0.27059985906E+02  0.00000000000E+00 0. -1.
         22    1    3    3    0    0 -0.53072485813E+02  0.18951590052E+02 -0.61635884175E+03  0.61892978061E+03  0.00000000000E+00 0.  1.
         22    1    3    3    0    0  0.41422228107E+02 -0.22571016238E+02 -0.18752460836E+04  0.18758393123E+04  0.00000000000E+00 0.  1.
</event>
<event>
 7    1  0.6146596E-006  0.6411101E+02  0.7818608E-02  0.1417093E+00
          2   -1    0    0  502    0  0.00000000000E+00  0.00000000000E+00  0.75009703597E+03  0.75009703597E+03  0.00000000000E+00 0. -1.
          1   -1    0    0  501    0 -0.00000000000E+00 -0.00000000000E+00 -0.52389183443E+03  0.52389183443E+03  0.00000000000E+00 0. -1.
         25    2    1    2    0    0  0.35900771985E+02 -0.36589983217E+02  0.14137307628E+03  0.19556050204E+03  0.12501948233E+03 0.  0.
          2    1    1    2  501    0 -0.38284777977E+02 -0.29430310234E+02 -0.49374049177E+03  0.49609630174E+03  0.00000000000E+00 0. -1.
          1    1    1    2  502    0  0.23840059918E+01  0.66020293450E+02  0.57857261703E+03  0.58233206661E+03  0.00000000000E+00 0. -1.
         22    1    3    3    0    0  0.78958142577E+02 -0.39322540027E+01  0.67010466176E+02  0.10363519421E+03  0.00000000000E+00 0. -1.
         22    1    3    3    0    0 -0.43057370592E+02 -0.32657729214E+02  0.74362610102E+02  0.91925307837E+02  0.00000000000E+00 0. -1.
</event>
<event>
 7    1  0.6146596E-006  0.1172397E+03  0.7818608E-02  0.1258092E+00
          2   -1    0    0  502    0  0.00000000000E+00  0.00000000000E+00  0.70406738192E+03  0.70406738192E+03  0.00000000000E+00 0. -1.
          1   -1    0    0  501    0 -0.00000000000E+00 -0.00000000000E+00 -0.10720336784E+03  0.10720336784E+03  0.00000000000E+00 0. -1.
         25    2    1    2    0    0  0.40542674970E+02 -0.71710481273E+01  0.70135133505E+02  0.14913017385E+03  0.12500295747E+03 0.  0.
          2    1    1    2  501    0 -0.26879277932E+02 -0.11411681236E+03 -0.42473354808E+01  0.11731659007E+03  0.00000000000E+00 0. -1.
          1    1    1    2  502    0 -0.13663397038E+02  0.12128786049E+03  0.53097621606E+03  0.54482398583E+03  0.00000000000E+00 0. -1.
         22    1    3    3    0    0  0.59877968389E+02 -0.12629261968E+02 -0.13877088027E+02  0.62749047230E+02  0.00000000000E+00 0.  1.
         22    1    3    3    0    0 -0.19335293419E+02  0.54582138405E+01  0.84012221532E+02  0.86381126623E+02  0.00000000000E+00 0.  1.
</event>
<event>
 7    1  0.6146596E-006  0.6389620E+02  0.7818608E-02  0.1491217E+00
          2   -1    0    0  502    0  0.00000000000E+00  0.00000000000E+00  0.85294933084E+03  0.85294933084E+03  0.00000000000E+00 0. -1.
          1   -1    0    0  501    0 -0.00000000000E+00 -0.00000000000E+00 -0.19652664665E+04  0.19652664665E+04  0.00000000000E+00 0. -1.
         25    2    1    2    0    0  0.50058311315E+02  0.31492847149E+02 -0.87171765967E+02  0.16346844575E+03  0.12500152807E+03 0.  0.
          2    1    1    2  501    0 -0.33757040147E+02 -0.54434786754E+02 -0.18391456507E+04  0.18402606903E+04  0.00000000000E+00 0. -1.
          1    1    1    2  502    0 -0.16301271168E+02  0.22941939605E+02  0.81400028097E+03  0.81448666132E+03  0.00000000000E+00 0. -1.
         22    1    3    3    0    0  0.12147749324E+02 -0.42833509700E+02 -0.24970024393E+01  0.44592739185E+02  0.00000000000E+00 0.  1.
         22    1    3    3    0    0  0.37910561991E+02  0.74326356849E+02 -0.84674763528E+02  0.11887570657E+03  0.00000000000E+00 0.  1.
</event>
<event>
 7    1  0.6146596E-006  0.1925794E+03  0.7818608E-02  0.1190812E+00
          2   -1    0    0  502    0  0.00000000000E+00  0.00000000000E+00  0.29929390485E+03  0.29929390485E+03  0.00000000000E+00 0. -1.
          1   -1    0    0  501    0 -0.00000000000E+00 -0.00000000000E+00 -0.18644047893E+04  0.18644047893E+04  0.00000000000E+00 0. -1.
         25    2    1    2    0    0 -0.80620150196E+02 -0.25420680663E+03 -0.33892952514E+02  0.29646924295E+03  0.12499828251E+03 0.  0.
          2    1    1    2  501    0 -0.38483652201E+02  0.12402702970E+03 -0.16496309648E+04  0.16547344245E+04  0.00000000000E+00 0. -1.
          1    1    1    2  502    0  0.11910380240E+03  0.13017977693E+03  0.11841303279E+03  0.21249502677E+03  0.00000000000E+00 0. -1.
         22    1    3    3    0    0 -0.85432498866E+00  0.12399644274E+02  0.83846947485E+01  0.14992803452E+02  0.00000000000E+00 0. -1.
         22    1    3    3    0    0 -0.79765825207E+02 -0.26660645091E+03 -0.42277647262E+02  0.28147643950E+03  0.00000000000E+00 0. -1.
</event>
<event>
 7    1  0.6146596E-006  0.8999689E+02  0.7818608E-02  0.1412545E+00
          2   -1    0    0  502    0  0.00000000000E+00  0.00000000000E+00  0.29898390267E+04  0.29898390267E+04  0.00000000000E+00 0. -1.
          1   -1    0    0  501    0 -0.00000000000E+00 -0.00000000000E+00 -0.41958712114E+02  0.41958712114E+02  0.00000000000E+00 0. -1.
         25    2    1    2    0    0  0.87888584611E+02  0.78544458440E+02  0.39292194892E+03  0.42884296975E+03  0.12499999801E+03 0.  0.
          2    1    1    2  501    0 -0.54992207213E+02 -0.64847505881E+02  0.51839979042E+02  0.99582756039E+02  0.00000000000E+00 0. -1.
          1    1    1    2  502    0 -0.32896377399E+02 -0.13696952559E+02  0.25031183867E+04  0.25033720131E+04  0.00000000000E+00 0. -1.
         22    1    3    3    0    0  0.11798284546E+03  0.47261945473E+02  0.26839529620E+03  0.29696747016E+03  0.00000000000E+00 0. -1.
         22    1    3    3    0    0 -0.30094260846E+02  0.31282512967E+02  0.12452665273E+03  0.13187549959E+03  0.00000000000E+00 0. -1.
</event>
<event>
 7    1  0.6146596E-006  0.1370735E+03  0.7818608E-02  0.1232844E+00
          2   -1    0    0  502    0  0.00000000000E+00  0.00000000000E+00  0.82462703686E+03  0.82462703686E+03  0.00000000000E+00 0. -1.
          1   -1    0    0  501    0 -0.00000000000E+00 -0.00000000000E+00 -0.66133228064E+03  0.66133228064E+03  0.00000000000E+00 0. -1.
         25    2    1    2    0    0  0.21437938054E+02  0.63544193356E+02  0.14381865600E+03  0.20200740523E+03  0.12500294499E+03 0.  0.
          2    1    1    2  501    0  0.11005679115E+03  0.38575863897E+02 -0.61604388779E+03  0.62698537960E+03  0.00000000000E+00 0. -1.
          1    1    1    2  502    0 -0.13149472920E+03 -0.10212005725E+03  0.63551998801E+03  0.65696653268E+03  0.00000000000E+00 0. -1.
         22    1    3    3    0    0  0.46770153707E+02 -0.15562606880E+02  0.20638544294E+02  0.53437734993E+02  0.00000000000E+00 0. -1.
         22    1    3    3    0    0 -0.25332215653E+02  0.79106800235E+02  0.12318011170E+03  0.14856967023E+03  0.00000000000E+00 0. -1.
</event>
<event>
 7    1  0.6146596E-006  0.8356749E+02  0.7818608E-02  0.1429416E+00
          2   -1    0    0  502    0  0.00000000000E+00  0.00000000000E+00  0.86438951422E+03  0.86438951422E+03  0.00000000000E+00 0. -1.
          1   -1    0    0  501    0 -0.00000000000E+00 -0.00000000000E+00 -0.24740193104E+03  0.24740193104E+03  0.00000000000E+00 0. -1.
         25    2    1    2    0    0  0.57373532324E+02  0.19046503095E+02 -0.10974567003E+03  0.17698606904E+03  0.12500186019E+03 0.  0.
          2    1    1    2  501    0  0.88877769814E+01  0.32519153302E+02 -0.99119480128E+02  0.10469555507E+03  0.00000000000E+00 0. -1.
          1    1    1    2  502    0 -0.66261309306E+02 -0.51565656398E+02  0.82585273333E+03  0.83010982116E+03  0.00000000000E+00 0. -1.
         22    1    3    3    0    0  0.64905658342E+02  0.28692249588E+02 -0.13297730407E+03  0.15072807658E+03  0.00000000000E+00 0.  1.
         22    1    3    3    0    0 -0.75321260176E+01 -0.96457464925E+01  0.23231634043E+02  0.26257992460E+02  0.00000000000E+00 0.  1.
</event>
<event>
 7    1  0.6146596E-006  0.1209229E+03  0.7818608E-02  0.1360192E+00
          2   -1    0    0  502    0  0.00000000000E+00  0.00000000000E+00  0.61617717723E+02  0.61617717723E+02  0.00000000000E+00 0. -1.
          1   -1    0    0  501    0 -0.00000000000E+00 -0.00000000000E+00 -0.54262919796E+03  0.54262919796E+03  0.00000000000E+00 0. -1.
         25    2    1    2    0    0 -0.77923287766E+01  0.10429161541E+03 -0.14731988056E+03  0.21969365279E+03  0.12499876973E+03 0.  0.
          2    1    1    2  501    0  0.45363682359E+02 -0.11938005900E+03 -0.31510901134E+03  0.34000463408E+03  0.00000000000E+00 0. -1.
          1    1    1    2  502    0 -0.37571353582E+02  0.15088443595E+02 -0.18582588330E+02  0.44548628814E+02  0.00000000000E+00 0. -1.
         22    1    3    3    0    0 -0.64099714473E+02  0.77548572786E+02 -0.93091346516E+02  0.13707134395E+03  0.00000000000E+00 0. -1.
         22    1    3    3    0    0  0.56307385697E+02  0.26743042624E+02 -0.54228534048E+02  0.82622308838E+02  0.00000000000E+00 0. -1.
</event>
<event>
 7    1  0.6146596E-006  0.4189077E+02  0.7818608E-02  0.1517232E+00
          2   -1    0    0  502    0  0.00000000000E+00  0.00000000000E+00  0.28973880231E+04  0.28973880231E+04  0.00000000000E+00 0. -1.
          1   -1    0    0  501    0 -0.00000000000E+00 -0.00000000000E+00 -0.92038168171E+01  0.92038168171E+01  0.00000000000E+00 0. -1.
         25    2    1    2    0    0  0.98678625788E+01  0.13444553034E+01  0.92872993253E+03  0.93715555993E+03  0.12498829410E+03 0.  0.
          2    1    1    2  501    0 -0.42881400581E+02 -0.15543359236E+02  0.10315333605E+03  0.11278750494E+03  0.00000000000E+00 0. -1.
          1    1    1    2  502    0  0.33013538003E+02  0.14198903933E+02  0.18563009377E+04  0.18566487751E+04  0.00000000000E+00 0. -1.
         22    1    3    3    0    0  0.44746816097E+02 -0.10156613609E+02  0.83826529695E+03  0.83952018583E+03  0.00000000000E+00 0.  1.
         22    1    3    3    0    0 -0.34878953519E+02  0.11501068912E+02  0.90464635579E+02  0.97635374097E+02  0.00000000000E+00 0.  1.
</event>
<event>
 7    1  0.6146596E-006  0.8002046E+02  0.7818608E-02  0.1361623E+00
          2   -1    0    0  502    0  0.00000000000E+00  0.00000000000E+00  0.15331055167E+04  0.15331055167E+04  0.00000000000E+00 0. -1.
          1   -1    0    0  501    0 -0.00000000000E+00 -0.00000000000E+00 -0.31145340317E+03  0.31145340317E+03  0.00000000000E+00 0. -1.
         25    2    1    2    0    0 -0.24039795269E+01 -0.54723402824E+02  0.17215472571E+02  0.13755684224E+03  0.12500032966E+03 0.  0.
          2    1    1    2  501    0 -0.60336307609E+02  0.37565342114E+01 -0.24650549968E+03  0.25381005287E+03  0.00000000000E+00 0. -1.
          1    1    1    2  502    0  0.62740287136E+02  0.50966868612E+02  0.14509421407E+04  0.14531920248E+04  0.00000000000E+00 0. -1.
         22    1    3    3    0    0 -0.29302572372E+01 -0.71613118304E+02  0.58776830894E+02  0.92691644556E+02  0.00000000000E+00 0.  1.
         22    1    3    3    0    0  0.52627771031E+00  0.16889715480E+02 -0.41561358323E+02  0.44865197680E+02  0.00000000000E+00 0.  1.
</event>
<event>
 7    1  0.6146596E-006  0.8812758E+02  0.7818608E-02  0.1412179E+00
          2   -1    0    0  502    0  0.00000000000E+00  0.00000000000E+00  0.48414949609E+03  0.48414949609E+03  0.00000000000E+00 0. -1.
          1   -1    0    0  501    0 -0.00000000000E+00 -0.00000000000E+00 -0.62897515674E+03  0.62897515674E+03  0.00000000000E+00 0. -1.
         25    2    1    2    0    0  0.10859399337E+03 -0.92517553651E+01 -0.72304762614E+02  0.18091565717E+03  0.12499698373E+03 0.  0.
          2    1    1    2  501    0 -0.27560579991E+02 -0.23920439166E+02 -0.49723023871E+03  0.49856763159E+03  0.00000000000E+00 0. -1.
          1    1    1    2  502    0 -0.81033413376E+02  0.33172194531E+02  0.42470934068E+03  0.43364136407E+03  0.00000000000E+00 0. -1.
         22    1    3    3    0    0  0.91631708781E+02  0.49267613167E+02 -0.36545630345E+02  0.11026899319E+03  0.00000000000E+00 0. -1.
         22    1    3    3    0    0  0.16962284586E+02 -0.58519368532E+02 -0.35759132269E+02  0.70646663987E+02  0.00000000000E+00 0. -1.
</event>
<event>
 7    1  0.6146596E-006  0.3468059E+02  0.7818608E-02  0.1562118E+00
          2   -1    0    0  502    0  0.00000000000E+00  0.00000000000E+00  0.61298700647E+03  0.61298700647E+03  0.00000000000E+00 0. -1.
          1   -1    0    0  501    0 -0.00000000000E+00 -0.00000000000E+00 -0.19387842507E+04  0.19387842507E+04  0.00000000000E+00 0. -1.
         25    2    1    2    0    0  0.13207944552E+02 -0.65497500395E+02  0.31836706834E+02  0.14526761903E+03  0.12499893151E+03 0.  0.
          2    1    1    2  501    0 -0.94330282319E+01  0.33313361704E+02 -0.18814087939E+04  0.18817273479E+04  0.00000000000E+00 0. -1.
          1    1    1    2  502    0 -0.37749163197E+01  0.32184138691E+02  0.52377484285E+03  0.52477629022E+03  0.00000000000E+00 0. -1.
         22    1    3    3    0    0 -0.27692774284E+02  0.27973224997E+02  0.43477462016E+01  0.39601691395E+02  0.00000000000E+00 0.  1.
         22    1    3    3    0    0  0.40900718836E+02 -0.93470725392E+02  0.27488960632E+02  0.10566592764E+03  0.00000000000E+00 0.  1.
</event>
<event>
 7    1  0.6146596E-006  0.9112184E+02  0.7818608E-02  0.1389779E+00
          2   -1    0    0  502    0  0.00000000000E+00  0.00000000000E+00  0.14920008178E+04  0.14920008178E+04  0.00000000000E+00 0. -1.
          1   -1    0    0  501    0 -0.00000000000E+00 -0.00000000000E+00 -0.12966413163E+03  0.12966413163E+03  0.00000000000E+00 0. -1.
         25    2    1    2    0    0  0.11422335615E+03 -0.10998257656E+01  0.37342784355E+03  0.41002654749E+03  0.12500092240E+03 0.  0.
          2    1    1    2  501    0 -0.29617720664E+02  0.29966650147E+02 -0.10549086673E+03  0.11359371664E+03  0.00000000000E+00 0. -1.
          1    1    1    2  502    0 -0.84605635490E+02 -0.28866824382E+02  0.10943997093E+04  0.10980446853E+04  0.00000000000E+00 0. -1.
         22    1    3    3    0    0  0.55627257722E+02  0.33264736828E+02  0.31128286655E+03  0.31795905008E+03  0.00000000000E+00 0. -1.
         22    1    3    3    0    0  0.58596098431E+02 -0.34364562594E+02  0.62144976998E+02  0.92067497412E+02  0.00000000000E+00 0. -1.
</event>
<event>
 7    1  0.6146596E-006  0.1315625E+03  0.7818608E-02  0.1396804E+00
          2   -1    0    0  502    0  0.00000000000E+00  0.00000000000E+00  0.90062969495E+03  0.90062969495E+03  0.00000000000E+00 0. -1.
          1   -1    0    0  501    0 -0.00000000000E+00 -0.00000000000E+00 -0.10137107994E+04  0.10137107994E+04  0.00000000000E+00 0. -1.
         25    2    1    2    0    0  0.98941212578E+01 -0.15759829366E+03 -0.62516303671E+03  0.65680087104E+03  0.12499378359E+03 0.  0.
          2    1    1    2  501    0 -0.85118349633E+01  0.26241943368E+02 -0.36733300547E+03  0.36836751735E+03  0.00000000000E+00 0. -1.
          1    1    1    2  502    0 -0.13822862945E+01  0.13135635029E+03  0.87941493768E+03  0.88917210600E+03  0.00000000000E+00 0. -1.
         22    1    3    3    0    0 -0.34574365270E+02 -0.12848013102E+02 -0.24210480107E+03  0.24489833171E+03  0.00000000000E+00 0.  1.
         22    1    3    3    0    0  0.44468486528E+02 -0.14475028056E+03 -0.38305823564E+03  0.41190253933E+03  0.00000000000E+00 0.  1.
</event>
<event>
 7    1  0.6146596E-006  0.6056774E+02  0.7818608E-02  0.1537434E+00
          2   -1    0    0  502    0  0.00000000000E+00  0.00000000000E+00  0.88930762413E+03  0.88930762413E+03  0.00000000000E+00 0. -1.
          1   -1    0    0  501    0 -0.00000000000E+00 -0.00000000000E+00 -0.33557359012E+03  0.33557359012E+03  0.00000000000E+00 0. -1.
         25    2    1    2    0    0  0.91764297181E+01 -0.59095789256E+02  0.35193581174E+03  0.37823185256E+03  0.12499599808E+03 0.  0.
          2    1    1    2  501    0 -0.29953398642E+02  0.52684192439E+02 -0.31934904912E+03  0.32504868158E+03  0.00000000000E+00 0. -1.
          1    1    1    2  502    0  0.20776968924E+02  0.64115968173E+01  0.52114727139E+03  0.52160068010E+03  0.00000000000E+00 0. -1.
         22    1    3    3    0    0 -0.35363983385E+02 -0.59819237867E+02  0.96361611177E+02  0.11880451443E+03  0.00000000000E+00 0.  1.
         22    1    3    3    0    0  0.44540413103E+02  0.72344861055E+00  0.25557420056E+03  0.25942733813E+03  0.00000000000E+00 0.  1.
</event>
<event>
 7    1  0.6146596E-006  0.5338736E+02  0.7818608E-02  0.1454702E+00
          2   -1    0    0  502    0  0.00000000000E+00  0.00000000000E+00  0.68850379400E+03  0.68850379400E+03  0.00000000000E+00 0. -1.
          1   -1    0    0  501    0 -0.00000000000E+00 -0.00000000000E+00 -0.57267610735E+03  0.57267610735E+03  0.00000000000E+00 0. -1.
         25    2    1    2    0    0  0.42034855065E+02  0.77594377560E+02  0.13752446090E+02  0.15363198029E+03  0.12500335646E+03 0.  0.
          2    1    1    2  501    0 -0.62207781798E+01 -0.52541031023E+02 -0.50055067626E+03  0.50333908802E+03  0.00000000000E+00 0. -1.
          1    1    1    2  502    0 -0.35814076886E+02 -0.25053346537E+02  0.60262591683E+03  0.60420883303E+03  0.00000000000E+00 0. -1.
         22    1    3    3    0    0  0.60777332029E+02  0.40582719929E+02  0.57761063467E+02  0.93151391285E+02  0.00000000000E+00 0. -1.
         22    1    3    3    0    0 -0.18742476964E+02  0.37011657631E+02 -0.44008617378E+02  0.60480589009E+02  0.00000000000E+00 0. -1.
</event>
<event>
 7    1  0.6146596E-006  0.1071761E+03  0.7818608E-02  0.1293714E+00
          2   -1    0    0  502    0  0.00000000000E+00  0.00000000000E+00  0.28113107687E+03  0.28113107687E+03  0.00000000000E+00 0. -1.
          1   -1    0    0  501    0 -0.00000000000E+00 -0.00000000000E+00 -0.54933793386E+03  0.54933793386E+03  0.00000000000E+00 0. -1.
         25    2    1    2    0    0 -0.37456495382E+02  0.52919173723E+02 -0.23641790169E+03  0.27517466598E+03  0.12499697821E+03 0.  0.
          2    1    1    2  501    0 -0.62321449637E+02 -0.92048097738E+02 -0.27114058936E+03  0.29304271801E+03  0.00000000000E+00 0. -1.
          1    1    1    2  502    0  0.99777945018E+02  0.39128924015E+02  0.23935163405E+03  0.26225162674E+03  0.00000000000E+00 0. -1.
         22    1    3    3    0    0  0.22013839244E+01  0.19572366357E+02 -0.21991527905E+03  0.22079550171E+03  0.00000000000E+00 0. -1.
         22    1    3    3    0    0 -0.39657879306E+02  0.33346807365E+02 -0.16502622647E+02  0.54379164270E+02  0.00000000000E+00 0. -1.
</event>
<event>
 7    1  0.6146596E-006  0.3506088E+02  0.7818608E-02  0.1585208E+00
          2   -1    0    0  502    0  0.00000000000E+00  0.00000000000E+00  0.10754816490E+04  0.10754816490E+04  0.00000000000E+00 0. -1.
          1   -1    0    0  501    0 -0.00000000000E+00 -0.00000000000E+00 -0.14290964062E+04  0.14290964062E+04  0.00000000000E+00 0. -1.
         25    2    1    2    0    0 -0.16596063449E+02  0.39383753149E+02 -0.17411621749E+03  0.21856009395E+03  0.12500219254E+03 0.  0.
          2    1    1    2  501    0 -0.14692323116E+02 -0.23554726580E+02 -0.12323100393E+04  0.12326227008E+04  0.00000000000E+00 0. -1.
          1    1    1    2  502    0  0.31288386565E+02 -0.15829026569E+02  0.10528114996E+04  0.10533952605E+04  0.00000000000E+00 0. -1.
         22    1    3    3    0    0 -0.54564154300E+02  0.34385597822E+01 -0.15246346295E+03  0.16196968285E+03  0.00000000000E+00 0. -1.
         22    1    3    3    0    0  0.37968090851E+02  0.35945193367E+02 -0.21652754538E+02  0.56590411098E+02  0.00000000000E+00 0. -1.
</event>
<event>
 7    1  0.6146596E-006  0.1108772E+03  0.7818608E-02  0.1412630E+00
          2   -1    0    0  502    0  0.00000000000E+00  0.00000000000E+00  0.72819702775E+03  0.72819702775E+03  0.00000000000E+00 0. -1.
          1   -1    0    0  501    0 -0.00000000000E+00 -0.00000000000E+00 -0.35228467474E+03  0.35228467474E+03  0.00000000000E+00 0. -1.
         25    2    1    2    0    0 -0.82745476993E+02  0.71072376992E+02  0.53943648004E+02  0.17445677890E+03  0.12500861495E+03 0.  0.
          2    1    1    2  501    0 -0.17616245541E+02 -0.22915614402E+02 -0.28624886673E+03  0.28770448587E+03  0.00000000000E+00 0. -1.
          1    1    1    2  502    0  0.10036172253E+03 -0.48156762590E+02  0.60821757173E+03  0.61832043772E+03  0.00000000000E+00 0. -1.
         22    1    3    3    0    0  0.17672239202E+02 -0.16365003239E+02  0.31140130641E+02  0.39367868951E+02  0.00000000000E+00 0. -1.
         22    1    3    3    0    0 -0.10041771619E+03  0.87437380231E+02  0.22803517363E+02  0.13508890995E+03  0.00000000000E+00 0. -1.
</event>
<event>
 7    1  0.6146596E-006  0.4916704E+02  0.7818608E-02  0.1453047E+00
          2   -1    0    0  502    0  0.00000000000E+00  0.00000000000E+00  0.34540410426E+03  0.34540410426E+03  0.00000000000E+00 0. -1.
          1   -1    0    0  501    0 -0.00000000000E+00 -0.00000000000E+00 -0.34640869363E+03  0.34640869363E+03  0.00000000000E+00 0. -1.
         25    2    1    2    0    0  0.73317817571E+02 -0.40163012629E+02 -0.34119811719E+02  0.15420247302E+03  0.12500268468E+03 0.  0.
          2    1    1    2  501    0 -0.48226489206E+02 -0.80133590071E+00 -0.24788477395E+03  0.25253375528E+03  0.00000000000E+00 0. -1.
          1    1    1    2  502    0 -0.25091328365E+02  0.40964348530E+02  0.28099999630E+03  0.28507656959E+03  0.00000000000E+00 0. -1.
         22    1    3    3    0    0 -0.19755097429E+02 -0.52860091622E+02 -0.11773587164E+02  0.57646079792E+02  0.00000000000E+00 0.  1.
         22    1    3    3    0    0  0.93072915000E+02  0.12697078993E+02 -0.22346224554E+02  0.96556393229E+02  0.00000000000E+00 0.  1.
</event>
<event>
 7    1  0.6146596E-006  0.3358296E+02  0.7818608E-02  0.1646176E+00
          2   -1    0    0  502    0  0.00000000000E+00  0.00000000000E+00  0.23393302529E+03  0.23393302529E+03  0.00000000000E+00 0. -1.
          1   -1    0    0  501    0 -0.00000000000E+00 -0.00000000000E+00 -0.30700551543E+03  0.30700551543E+03  0.00000000000E+00 0. -1.
         25    2    1    2    0    0 -0.45437133429E+02 -0.16410943003E+02 -0.65909020300E+02  0.14934058377E+03  0.12499903543E+03 0.  0.
          2    1    1    2  501    0  0.12016529472E+02  0.16272118679E+02 -0.19740723249E+03  0.19844090875E+03  0.00000000000E+00 0. -1.
          1    1    1    2  502    0  0.33420603957E+02  0.13882432395E+00  0.19024376265E+03  0.19315704820E+03  0.00000000000E+00 0. -1.
         22    1    3    3    0    0 -0.18899207710E+00  0.42558583591E+02 -0.61619227947E+02  0.74887902949E+02  0.00000000000E+00 0.  1.
         22    1    3    3    0    0 -0.45248141352E+02 -0.58969526594E+02 -0.42897923524E+01  0.74452680817E+02  0.00000000000E+00 0.  1.
</event>
<event>
 7    1  0.6146596E-006  0.7391446E+02  0.7818608E-02  0.1507532E+00
          2   -1    0    0  502    0  0.00000000000E+00  0.00000000000E+00  0.21823619203E+03  0.21823619203E+03  0.00000000000E+00 0. -1.
          1   -1    0    0  501    0 -0.00000000000E+00 -0.00000000000E+00 -0.88849963138E+03  0.88849963138E+03  0.00000000000E+00 0. -1.
         25    2    1    2    0    0  0.67848863436E+02 -0.53584571588E+02 -0.40893707877E+02  0.15738428604E+03  0.12499097394E+03 0.  0.
          2    1    1    2  501    0 -0.66336916396E+02  0.31890375101E+02 -0.78689619086E+03  0.79033106841E+03  0.00000000000E+00 0. -1.
          1    1    1    2  502    0 -0.15119470401E+01  0.21694196486E+02  0.15752645939E+03  0.15902046897E+03  0.00000000000E+00 0. -1.
         22    1    3    3    0    0  0.96890576389E+02 -0.58657480825E+02 -0.84968191702E+01  0.11358115947E+03  0.00000000000E+00 0. -1.
         22    1    3    3    0    0 -0.29041712953E+02  0.50729092371E+01 -0.32396888707E+02  0.43803126569E+02  0.00000000000E+00 0. -1.
</event>
<event>
 7    1  0.6146596E-006  0.4474126E+02  0.7818608E-02  0.1499073E+00
          2   -1    0    0  502    0  0.00000000000E+00  0.00000000000E+00  0.30414805024E+03  0.30414805024E+03  0.00000000000E+00 0. -1.
          1   -1    0    0  501    0 -0.00000000000E+00 -0.00000000000E+00 -0.18607416018E+03  0.18607416018E+03  0.00000000000E+00 0. -1.
         25    2    1    2    0    0  0.61189794106E+02 -0.32819170019E+02  0.41074713861E+02  0.14876987970E+03  0.12499622460E+03 0.  0.
          2    1    1    2  501    0 -0.23398862992E+02  0.37393731841E+02 -0.12673506026E+03  0.13419230033E+03  0.00000000000E+00 0. -1.
          1    1    1    2  502    0 -0.37790931114E+02 -0.45745618220E+01  0.20373423646E+03  0.20726003039E+03  0.00000000000E+00 0. -1.
         22    1    3    3    0    0  0.24220565515E+02  0.48190565602E+02  0.16141735198E+02  0.56298508170E+02  0.00000000000E+00 0.  1.
         22    1    3    3    0    0  0.36969228591E+02 -0.81009735621E+02  0.24932978663E+02  0.92471371532E+02  0.00000000000E+00 0.  1.
</event>
<event>
 7    1  0.6146596E-006  0.7868575E+02  0.7818608E-02  0.1382906E+00
          2   -1    0    0  502    0  0.00000000000E+00  0.00000000000E+00  0.34792518640E+03  0.34792518640E+03  0.00000000000E+00 0. -1.
          1   -1    0    0  501    0 -0.00000000000E+00 -0.00000000000E+00 -0.50364195266E+04  0.50364195266E+04  0.00000000000E+00 0. -1.
         25    2    1    2    0    0  0.11580219667E+03  0.51441666559E+02 -0.34899214225E+03  0.39176110965E+03  0.12499943149E+03 0.  0.
          2    1    1    2  501    0 -0.64875598918E+02 -0.43268671313E+02 -0.46636781689E+04  0.46643300789E+04  0.00000000000E+00 0. -1.
          1    1    1    2  502    0 -0.50926597755E+02 -0.81729952463E+01  0.32417597095E+03  0.32825352451E+03  0.00000000000E+00 0. -1.
         22    1    3    3    0    0  0.13870533703E+03  0.22977978607E+02 -0.26039359851E+03  0.29592563959E+03  0.00000000000E+00 0. -1.
         22    1    3    3    0    0 -0.22903140355E+02  0.28463687953E+02 -0.88598543736E+02  0.95835470063E+02  0.00000000000E+00 0. -1.
</event>
<event>
 7    1  0.6146596E-006  0.9190903E+02  0.7818608E-02  0.1373892E+00
          2   -1    0    0  502    0  0.00000000000E+00  0.00000000000E+00  0.79726432945E+03  0.79726432945E+03  0.00000000000E+00 0. -1.
          1   -1    0    0  501    0 -0.00000000000E+00 -0.00000000000E+00 -0.91742122056E+02  0.91742122056E+02  0.00000000000E+00 0. -1.
         25    2    1    2    0    0  0.30243039450E+02 -0.49341898504E+02  0.63274244830E+02  0.15158300913E+03  0.12499805684E+03 0.  0.
          2    1    1    2  501    0  0.47238535002E+02 -0.52934778433E+01 -0.31508814497E+02  0.57028988136E+02  0.00000000000E+00 0. -1.
          1    1    1    2  502    0 -0.77481574452E+02  0.54635376347E+02  0.67375677706E+03  0.68039445424E+03  0.00000000000E+00 0. -1.
         22    1    3    3    0    0  0.32930683479E+02 -0.53341447088E+02  0.98103604437E+02  0.11642189268E+03  0.00000000000E+00 0.  1.
         22    1    3    3    0    0 -0.26876440287E+01  0.39995485844E+01 -0.34829359607E+02  0.35161116449E+02  0.00000000000E+00 0.  1.
</event>
<event>
 7    1  0.6146596E-006  0.7249812E+02  0.7818608E-02  0.1391123E+00
          2   -1    0    0  502    0  0.00000000000E+00  0.00000000000E+00  0.46386073376E+02  0.46386073376E+02  0.00000000000E+00 0. -1.
          1   -1    0    0  501    0 -0.00000000000E+00 -0.00000000000E+00 -0.67642080701E+03  0.67642080701E+03  0.00000000000E+00 0. -1.
         25    2    1    2    0    0 -0.79804688995E+02 -0.50562512621E+02 -0.45871618908E+03  0.48473688095E+03  0.12499578219E+03 0.  0.
          2    1    1    2  501    0  0.50250602793E+02 -0.14811678296E+02 -0.15619863148E+03  0.16474987518E+03  0.00000000000E+00 0. -1.
          1    1    1    2  502    0  0.29554086202E+02  0.65374190917E+02 -0.15119913075E+02  0.73320124254E+02  0.00000000000E+00 0. -1.
         22    1    3    3    0    0 -0.96541767128E+02  0.68488827972E+01 -0.27519974852E+03  0.29172267923E+03  0.00000000000E+00 0. -1.
         22    1    3    3    0    0  0.16737078133E+02 -0.57411395418E+02 -0.18351644056E+03  0.19301420172E+03  0.00000000000E+00 0. -1.
</event>
<event>
 7    1  0.6146596E-006  0.5664156E+02  0.7818608E-02  0.1474345E+00
          2   -1    0    0  502    0  0.00000000000E+00  0.00000000000E+00  0.61593543145E+03  0.61593543145E+03  0.00000000000E+00 0. -1.
          1   -1    0    0  501    0 -0.00000000000E+00 -0.00000000000E+00 -0.11125886530E+04  0.11125886530E+04  0.00000000000E+00 0. -1.
         25    2    1    2    0    0  0.10346899318E+02 -0.63089879548E+02 -0.14858674626E+03  0.20442759356E+03  0.12500091447E+03 0.  0.
          2    1    1    2  501    0 -0.33842644930E+02  0.11522171338E+02 -0.93437354618E+03  0.93505722224E+03  0.00000000000E+00 0. -1.
          1    1    1    2  502    0  0.23495745612E+02  0.51567708210E+02  0.58630707091E+03  0.58903926863E+03  0.00000000000E+00 0. -1.
         22    1    3    3    0    0  0.67550341839E+02 -0.28685528430E+02 -0.71582839424E+02  0.10251834530E+03  0.00000000000E+00 0. -1.
         22    1    3    3    0    0 -0.57203442521E+02 -0.34404351118E+02 -0.77003906837E+02  0.10190924826E+03  0.00000000000E+00 0. -1.
</event>
<event>
 7    1  0.6146596E-006  0.1002792E+03  0.7818608E-02  0.1348940E+00
          2   -1    0    0  502    0  0.00000000000E+00  0.00000000000E+00  0.13538689445E+04  0.13538689445E+04  0.00000000000E+00 0. -1.
          1   -1    0    0  501    0 -0.00000000000E+00 -0.00000000000E+00 -0.86656890241E+02  0.86656890241E+02  0.00000000000E+00 0. -1.
         25    2    1    2    0    0 -0.94973654401E+02 -0.42433743189E+02  0.41838404342E+03  0.44887694650E+03  0.12499875085E+03 0.  0.
          2    1    1    2  501    0  0.35556375589E+02 -0.40250868001E+02 -0.58043914596E+02  0.79078974712E+02  0.00000000000E+00 0. -1.
          1    1    1    2  502    0  0.59417278812E+02  0.82684611190E+02  0.90687192548E+03  0.91256991358E+03  0.00000000000E+00 0. -1.
         22    1    3    3    0    0 -0.84871170278E+02 -0.21999827715E+02  0.41691555785E+03  0.42603484640E+03  0.00000000000E+00 0.  1.
         22    1    3    3    0    0 -0.10102484123E+02 -0.20433915475E+02  0.14684855696E+01  0.22842100100E+02  0.00000000000E+00 0.  1.
</event>
<event>
 7    1  0.6146596E-006  0.8934290E+02  0.7818608E-02  0.1470546E+00
          2   -1    0    0  502    0  0.00000000000E+00  0.00000000000E+00  0.35172571558E+03  0.35172571558E+03  0.00000000000E+00 0. -1.
          1   -1    0    0  501    0 -0.00000000000E+00 -0.00000000000E+00 -0.14343043538E+03  0.14343043538E+03  0.00000000000E+00 0. -1.
         25    2    1    2    0    0 -0.60082335211E+01  0.72653549425E+02  0.23535847013E+03  0.27628348918E+03  0.12499727922E+03 0.  0.
          2    1    1    2  501    0  0.24178494706E+02 -0.87219620150E+02 -0.10436185584E+03  0.13814216843E+03  0.00000000000E+00 0. -1.
          1    1    1    2  502    0 -0.18170261184E+02  0.14566070724E+02  0.77298665899E+02  0.80730493356E+02  0.00000000000E+00 0. -1.
         22    1    3    3    0    0  0.20172033854E+02 -0.88243056412E+01  0.16222125314E+03  0.16370862619E+03  0.00000000000E+00 0. -1.
         22    1    3    3    0    0 -0.26180267375E+02  0.81477855066E+02  0.73137216995E+02  0.11257486298E+03  0.00000000000E+00 0. -1.
</event>
<event>
 7    1  0.6146596E-006  0.1004257E+03  0.7818608E-02  0.1321761E+00
          2   -1    0    0  502    0  0.00000000000E+00  0.00000000000E+00  0.10406509411E+04  0.10406509411E+04  0.00000000000E+00 0. -1.
          1   -1    0    0  501    0 -0.00000000000E+00 -0.00000000000E+00 -0.15259036781E+03  0.15259036781E+03  0.00000000000E+00 0. -1.
         25    2    1    2    0    0  0.19083542596E+01 -0.70606833452E+02  0.16376105382E+03  0.21779497524E+03  0.12501200640E+03 0.  0.
          2    1    1    2  501    0  0.64841915184E+02  0.83481907665E+02 -0.10168150405E+03  0.14667253027E+03  0.00000000000E+00 0. -1.
          1    1    1    2  502    0 -0.66750269444E+02 -0.12875074213E+02  0.82598102352E+03  0.82877380341E+03  0.00000000000E+00 0. -1.
         22    1    3    3    0    0 -0.57797669887E+02 -0.13832909582E+02  0.52139557448E+02  0.79059809529E+02  0.00000000000E+00 0.  1.
         22    1    3    3    0    0  0.59706024147E+02 -0.56773923870E+02  0.11162149637E+03  0.13873516571E+03  0.00000000000E+00 0.  1.
</event>
<event>
 7    1  0.6146596E-006  0.1641966E+03  0.7818608E-02  0.1247890E+00
          2   -1    0    0  502    0  0.00000000000E+00  0.00000000000E+00  0.83889945677E+03  0.83889945677E+03  0.00000000000E+00 0. -1.
          1   -1    0    0  501    0 -0.00000000000E+00 -0.00000000000E+00 -0.63256375711E+03  0.63256375711E+03  0.00000000000E+00 0. -1.
         25    2    1    2    0    0 -0.12277425424E+03 -0.17800651334E+02  0.12940345341E+03  0.21854248906E+03  0.12500074031E+03 0.  0.
          2    1    1    2  501    0  0.15757411660E+03 -0.58179148223E+02 -0.57326907995E+03  0.59737078397E+03  0.00000000000E+00 0. -1.
          1    1    1    2  502    0 -0.34799862353E+02  0.75979799557E+02  0.65020132620E+03  0.65554994086E+03  0.00000000000E+00 0. -1.
         22    1    3    3    0    0  0.81681117115E+01 -0.37840839417E+02  0.94823325069E+01  0.39856766132E+02  0.00000000000E+00 0. -1.
         22    1    3    3    0    0 -0.13094236595E+03  0.20040188084E+02  0.11992112090E+03  0.17868572293E+03  0.00000000000E+00 0. -1.
</event>
<event>
 7    1  0.6146596E-006  0.8733093E+02  0.7818608E-02  0.1364849E+00
          2   -1    0    0  502    0  0.00000000000E+00  0.00000000000E+00  0.27962351344E+03  0.27962351344E+03  0.00000000000E+00 0. -1.
          1   -1    0    0  501    0 -0.00000000000E+00 -0.00000000000E+00 -0.29429774856E+03  0.29429774856E+03  0.00000000000E+00 0. -1.
         25    2    1    2    0    0 -0.95821264598E+02  0.29172227867E+02  0.70654249974E+02  0.17506993430E+03  0.12499890092E+03 0.  0.
          2    1    1    2  501    0  0.56859872585E+02 -0.66443814276E+02 -0.22914186440E+03  0.24526275621E+03  0.00000000000E+00 0. -1.
          1    1    1    2  502    0  0.38961392013E+02  0.37271586409E+02  0.14381337931E+03  0.15358857148E+03  0.00000000000E+00 0. -1.
         22    1    3    3    0    0 -0.24019458922E+02  0.66407472226E+02  0.48215212464E+01  0.70782298928E+02  0.00000000000E+00 0. -1.
         22    1    3    3    0    0 -0.71801805677E+02 -0.37235244359E+02  0.65832728727E+02  0.10428763538E+03  0.00000000000E+00 0. -1.
</event>
<event>
 7    1  0.6146596E-006  0.1339368E+03  0.7818608E-02  0.1305348E+00
          2   -1    0    0  502    0  0.00000000000E+00  0.00000000000E+00  0.78436189698E+03  0.78436189698E+03  0.00000000000E+00 0. -1.
          1   -1    0    0  501    0 -0.00000000000E+00 -0.00000000000E+00 -0.32400829573E+04  0.32400829573E+04  0.00000000000E+00 0. -1.
         25    2    1    2    0    0 -0.12235929845E+03  0.10680375632E+03 -0.19495355198E+03  0.28286311743E+03  0.12500326191E+03 0.  0.
          2    1    1    2  501    0  0.58216538774E+02  0.10234927637E+02 -0.29948662461E+04  0.29954495074E+04  0.00000000000E+00 0. -1.
          1    1    1    2  502    0  0.64142759677E+02 -0.11703868396E+03  0.73409873774E+03  0.74613222951E+03  0.00000000000E+00 0. -1.
         22    1    3    3    0    0 -0.99731985332E+02  0.11144760649E+03 -0.88173830765E+02  0.17361354302E+03  0.00000000000E+00 0.  1.
         22    1    3    3    0    0 -0.22627313119E+02 -0.46438501639E+01 -0.10677972122E+03  0.10924957440E+03  0.00000000000E+00 0.  1.
</event>
<event>
 7    1  0.6146596E-006  0.8969398E+02  0.7818608E-02  0.1312219E+00
          2   -1    0    0  502    0  0.00000000000E+00  0.00000000000E+00  0.21838037679E+03  0.21838037679E+03  0.00000000000E+00 0. -1.
          1   -1    0    0  501    0 -0.00000000000E+00 -0.00000000000E+00 -0.39360451432E+03  0.39360451432E+03  0.00000000000E+00 0. -1.
         25    2    1    2    0    0  0.10187200402E+03 -0.42489972562E+00 -0.59964476199E+02  0.17204235656E+03  0.12499899320E+03 0.  0.
          2    1    1    2  501    0 -0.42699489596E+02  0.71081428124E+02 -0.25746264679E+03  0.27048628491E+03  0.00000000000E+00 0. -1.
          1    1    1    2  502    0 -0.59172514422E+02 -0.70656528398E+02  0.14220298545E+03  0.16945624964E+03  0.00000000000E+00 0. -1.
         22    1    3    3    0    0 -0.47884098830E+01 -0.40647242493E+02 -0.38210790721E+02  0.55992782740E+02  0.00000000000E+00 0.  1.
         22    1    3    3    0    0  0.10666041390E+03  0.40222342767E+02 -0.21753685478E+02  0.11604957382E+03  0.00000000000E+00 0.  1.
</event>
<event>
 7    1  0.6146596E-006  0.7466658E+02  0.7818608E-02  0.1426535E+00
          2   -1    0    0  502    0  0.00000000000E+00  0.00000000000E+00  0.24844150298E+04  0.24844150298E+04  0.00000000000E+00 0. -1.
          1   -1    0    0  501    0 -0.00000000000E+00 -0.00000000000E+00 -0.23015916118E+03  0.23015916118E+03  0.00000000000E+00 0. -1.
         25    2    1    2    0    0 -0.19771639720E+02  0.81274225949E+02  0.47084392773E+03  0.49428254606E+03  0.12499925407E+03 0.  0.
          2    1    1    2  501    0 -0.17788107989E+02 -0.72521019794E+02 -0.21186676873E+03  0.22464025193E+03  0.00000000000E+00 0. -1.
          1    1    1    2  502    0  0.37559747709E+02 -0.87532061551E+01  0.19952787096E+04  0.19956513930E+04  0.00000000000E+00 0. -1.
         22    1    3    3    0    0 -0.28445782100E+02  0.10473572360E+03  0.25693861648E+03  0.27891967833E+03  0.00000000000E+00 0.  1.
         22    1    3    3    0    0  0.86741423799E+01 -0.23461497655E+02  0.21390531125E+03  0.21536286774E+03  0.00000000000E+00 0.  1.
</event>
<event>
 7    1  0.6146596E-006  0.9043049E+02  0.7818608E-02  0.1402299E+00
          2   -1    0    0  502    0  0.00000000000E+00  0.00000000000E+00  0.19774846737E+04  0.19774846737E+04  0.00000000000E+00 0. -1.
          1   -1    0    0  501    0 -0.00000000000E+00 -0.00000000000E+00 -0.84727401551E+02  0.84727401551E+02  0.00000000000E+00 0. -1.
         25    2    1    2    0    0 -0.38330469825E+02  0.96034171943E+02  0.53327418848E+02  0.17077571247E+03  0.12501497219E+03 0.  0.
          2    1    1    2  501    0  0.57179531574E+02 -0.62548694011E+02  0.43799954608E+02  0.95395356162E+02  0.00000000000E+00 0. -1.
          1    1    1    2  502    0 -0.18849061750E+02 -0.33485477931E+02  0.17956298987E+04  0.17960410066E+04  0.00000000000E+00 0. -1.
         22    1    3    3    0    0  0.21793130664E+02 -0.10464841931E+02  0.41341703793E+02  0.47891439040E+02  0.00000000000E+00 0.  1.
         22    1    3    3    0    0 -0.60123600489E+02  0.10649901387E+03  0.11985715054E+02  0.12288427343E+03  0.00000000000E+00 0.  1.
</event>
<event>
 7    1  0.6146596E-006  0.7873580E+02  0.7818608E-02  0.1480460E+00
          2   -1    0    0  502    0  0.00000000000E+00  0.00000000000E+00  0.24243632990E+04  0.24243632990E+04  0.00000000000E+00 0. -1.
          1   -1    0    0  501    0 -0.00000000000E+00 -0.00000000000E+00 -0.49728468826E+03  0.49728468826E+03  0.00000000000E+00 0. -1.
         25    2    1    2    0    0 -0.25601937038E+02 -0.70970309611E+02  0.27758327724E+03  0.31363922449E+03  0.12499937322E+03 0.  0.
          2    1    1    2  501    0  0.23287349730E+02 -0.80126229790E+01 -0.47820649017E+03  0.47884021346E+03  0.00000000000E+00 0. -1.
          1    1    1    2  502    0  0.23145873072E+01  0.78982932590E+02  0.21277018236E+04  0.21291685493E+04  0.00000000000E+00 0. -1.
         22    1    3    3    0    0 -0.39243456446E+02 -0.11947608788E+02  0.14247832309E+02  0.43425740697E+02  0.00000000000E+00 0. -1.
         22    1    3    3    0    0  0.13641519409E+02 -0.59022700823E+02  0.26333544493E+03  0.27021348379E+03  0.00000000000E+00 0. -1.
</event>
<event>
 7    1  0.6146596E-006  0.1768412E+03  0.7818608E-02  0.1338560E+00
          2   -1    0    0  502    0  0.00000000000E+00  0.00000000000E+00  0.23035956635E+04  0.23035956635E+04  0.00000000000E+00 0. -1.
          1   -1    0    0  501    0 -0.00000000000E+00 -0.00000000000E+00 -0.69576444031E+02  0.69576444031E+02  0.00000000000E+00 0. -1.
         25    2    1    2    0    0 -0.11573972869E+03 -0.14898550969E+03  0.16885062983E+04  0.17036055885E+04  0.12500445830E+03 0.  0.
          2    1    1    2  501    0  0.83048950350E+02  0.15534161537E+03  0.64781105510E+02  0.18768254381E+03  0.00000000000E+00 0. -1.
          1    1    1    2  502    0  0.32690778343E+02 -0.63561056782E+01  0.48073181561E+03  0.48188397525E+03  0.00000000000E+00 0. -1.
         22    1    3    3    0    0  0.11503053815E+02 -0.53676289062E+02  0.72463266450E+03  0.72670899452E+03  0.00000000000E+00 0.  1.
         22    1    3    3    0    0 -0.12724278251E+03 -0.95309220629E+02  0.96387363384E+03  0.97689659394E+03  0.00000000000E+00 0.  1.
</event>
<event>
 7    1  0.6146596E-006  0.1220866E+03  0.7818608E-02  0.1280247E+00
          2   -1    0    0  502    0  0.00000000000E+00  0.00000000000E+00  0.10885409746E+04  0.10885409746E+04  0.00000000000E+00 0. -1.
          1   -1    0    0  501    0 -0.00000000000E+00 -0.00000000000E+00 -0.14368092877E+04  0.14368092877E+04  0.00000000000E+00 0. -1.
         25    2    1    2    0    0 -0.94058557692E+02 -0.71249881962E+02 -0.74682467546E+02  0.18742025551E+03  0.12500129304E+03 0.  0.
          2    1    1    2  501    0  0.66077414565E+02 -0.48468007577E+02 -0.13008029587E+04  0.13033816440E+04  0.00000000000E+00 0. -1.
          1    1    1    2  502    0  0.27981143127E+02  0.11971788954E+03  0.10272171132E+04  0.10345483628E+04  0.00000000000E+00 0. -1.
         22    1    3    3    0    0 -0.56132718283E+02 -0.34463373648E+02 -0.10688032812E+03  0.12554684673E+03  0.00000000000E+00 0.  1.
         22    1    3    3    0    0 -0.37925839409E+02 -0.36786508314E+02  0.32197860571E+02  0.61873408781E+02  0.00000000000E+00 0.  1.
</event>
<event>
 7    1  0.6146596E-006  0.5245647E+02  0.7818608E-02  0.1456657E+00
          2   -1    0    0  502    0  0.00000000000E+00  0.00000000000E+00  0.14321351547E+04  0.14321351547E+04  0.00000000000E+00 0. -1.
          1   -1    0    0  501    0 -0.00000000000E+00 -0.00000000000E+00 -0.14138653942E+03  0.14138653942E+03  0.00000000000E+00 0. -1.
         25    2    1    2    0    0  0.15010768315E+02 -0.90002046432E+01  0.58034260954E+03  0.59390953601E+03  0.12499866266E+03 0.  0.
          2    1    1    2  501    0  0.42936608818E+02  0.89127863420E+01 -0.13000711011E+03  0.13720363995E+03  0.00000000000E+00 0. -1.
          1    1    1    2  502    0 -0.57947377133E+02  0.87418301177E-01  0.84041311589E+03  0.84240851818E+03  0.00000000000E+00 0. -1.
         22    1    3    3    0    0 -0.54784384991E+02 -0.98067446048E+01  0.29024740245E+03  0.29553520214E+03  0.00000000000E+00 0. -1.
         22    1    3    3    0    0  0.69795153306E+02  0.80653996162E+00  0.29009520709E+03  0.29837433386E+03  0.00000000000E+00 0. -1.
</event>
<event>
 7    1  0.6146596E-006  0.1201165E+03  0.7818608E-02  0.1440816E+00
          2   -1    0    0  502    0  0.00000000000E+00  0.00000000000E+00  0.42207549126E+03  0.42207549126E+03  0.00000000000E+00 0. -1.
          1   -1    0    0  501    0 -0.00000000000E+00 -0.00000000000E+00 -0.74035529393E+03  0.74035529393E+03  0.00000000000E+00 0. -1.
         25    2    1    2    0    0 -0.13644968815E+02  0.12230927520E+03  0.41305923580E+02  0.18021371519E+03  0.12500023938E+03 0.  0.
          2    1    1    2  501    0  0.21360399175E+02 -0.26632908127E+01 -0.65917569258E+03  0.65952706803E+03  0.00000000000E+00 0. -1.
          1    1    1    2  502    0 -0.77154303601E+01 -0.11964598439E+03  0.29958996634E+03  0.32269000198E+03  0.00000000000E+00 0. -1.
         22    1    3    3    0    0  0.29956196298E+01  0.59116608989E+02  0.83555966244E+02  0.10239798187E+03  0.00000000000E+00 0. -1.
         22    1    3    3    0    0 -0.16640588444E+02  0.63192666212E+02 -0.42250042665E+02  0.77815733319E+02  0.00000000000E+00 0. -1.
</event>
<event>
 7    1  0.6146596E-006  0.1335955E+03  0.7818608E-02  0.1319940E+00
          2   -1    0    0  502    0  0.00000000000E+00  0.00000000000E+00  0.95576539944E+03  0.95576539944E+03  0.00000000000E+00 0. -1.
          1   -1    0    0  501    0 -0.00000000000E+00 -0.00000000000E+00 -0.15517286362E+04  0.15517286362E+04  0.00000000000E+00 0. -1.
         25    2    1    2    0    0 -0.45592076992E+02 -0.11003014773E+03  0.21086305609E+03  0.27253143594E+03  0.12499953703E+03 0.  0.
          2    1    1    2  501    0 -0.54584937328E+00  0.13388296078E+03 -0.15169977738E+04  0.15228943465E+04  0.00000000000E+00 0. -1.
          1    1    1    2  502    0  0.46137926366E+02 -0.23852813043E+02  0.71017148088E+03  0.71206825318E+03  0.00000000000E+00 0. -1.
         22    1    3    3    0    0 -0.50180298995E+02 -0.10560604043E+03  0.22691149432E+03  0.25526363712E+03  0.00000000000E+00 0. -1.
         22    1    3    3    0    0  0.45882220029E+01 -0.44241073088E+01 -0.16048438228E+02  0.17267798823E+02  0.00000000000E+00 0. -1.
</event>
<event>
 7    1  0.6146596E-006  0.4846979E+03  0.7818608E-02  0.1115086E+00
          2   -1    0    0  502    0  0.00000000000E+00  0.00000000000E+00  0.14323895025E+04  0.14323895025E+04  0.00000000000E+00 0. -1.
          1   -1    0    0  501    0 -0.00000000000E+00 -0.00000000000E+00 -0.65867051430E+03  0.65867051430E+03  0.00000000000E+00 0. -1.
         25    2    1    2    0    0 -0.95173236469E+01 -0.45703876218E+03  0.50504093745E+03  0.69258044838E+03  0.12500527748E+03 0.  0.
          2    1    1    2  501    0  0.11749335659E+03 -0.45719800069E+02 -0.47661256555E+03  0.49300560505E+03  0.00000000000E+00 0. -1.
          1    1    1    2  502    0 -0.10797603295E+03  0.50275856225E+03  0.74529061632E+03  0.90547396339E+03  0.00000000000E+00 0. -1.
         22    1    3    3    0    0  0.94269408949E+01 -0.24789681432E+03  0.36064446442E+03  0.43772837180E+03  0.00000000000E+00 0. -1.
         22    1    3    3    0    0 -0.18944264542E+02 -0.20914194786E+03  0.14439647303E+03  0.25485207658E+03  0.00000000000E+00 0. -1.
</event>
<event>
 7    1  0.6146596E-006  0.8223890E+02  0.7818608E-02  0.1376924E+00
          2   -1    0    0  502    0  0.00000000000E+00  0.00000000000E+00  0.37027179151E+03  0.37027179151E+03  0.00000000000E+00 0. -1.
          1   -1    0    0  501    0 -0.00000000000E+00 -0.00000000000E+00 -0.47510086502E+03  0.47510086502E+03  0.00000000000E+00 0. -1.
         25    2    1    2    0    0 -0.91633106148E+01  0.43961885573E+02  0.17011470381E+03  0.21582498498E+03  0.12499919218E+03 0.  0.
          2    1    1    2  501    0 -0.30467032817E+02 -0.77345580706E+02 -0.44452253722E+03  0.45222877511E+03  0.00000000000E+00 0. -1.
          1    1    1    2  502    0  0.39630343432E+02  0.33383695134E+02  0.16957875990E+03  0.17731889643E+03  0.00000000000E+00 0. -1.
         22    1    3    3    0    0  0.18987688986E+02  0.15797396551E+02 -0.13357931790E+02  0.28080676853E+02  0.00000000000E+00 0. -1.
         22    1    3    3    0    0 -0.28150999601E+02  0.28164489022E+02  0.18347263560E+03  0.18774430813E+03  0.00000000000E+00 0. -1.
</event>
<event>
 7    1  0.6146596E-006  0.6311300E+02  0.7818608E-02  0.1453051E+00
          2   -1    0    0  502    0  0.00000000000E+00  0.00000000000E+00  0.32683843332E+03  0.32683843332E+03  0.00000000000E+00 0. -1.
          1   -1    0    0  501    0 -0.00000000000E+00 -0.00000000000E+00 -0.30134032071E+03  0.30134032071E+03  0.00000000000E+00 0. -1.
         25    2    1    2    0    0  0.27846760870E+02  0.21152189832E+02 -0.11292763249E+03  0.17204591396E+03  0.12499715640E+03 0.  0.
          2    1    1    2  501    0 -0.21590403567E+01  0.37359601618E+02 -0.15314027692E+03  0.15764626765E+03  0.00000000000E+00 0. -1.
          1    1    1    2  502    0 -0.25687720513E+02 -0.58511791449E+02  0.29156602201E+03  0.29848657242E+03  0.00000000000E+00 0. -1.
         22    1    3    3    0    0 -0.34821741453E+02 -0.23519425934E+02 -0.94215054456E+01  0.43063695138E+02  0.00000000000E+00 0. -1.
         22    1    3    3    0    0  0.62668502323E+02  0.44671615765E+02 -0.10350612704E+03  0.12898221883E+03  0.00000000000E+00 0. -1.
</event>
<event>
 7    1  0.6146596E-006  0.1877189E+03  0.7818608E-02  0.1278944E+00
          2   -1    0    0  502    0  0.00000000000E+00  0.00000000000E+00  0.54268815369E+03  0.54268815369E+03  0.00000000000E+00 0. -1.
          1   -1    0    0  501    0 -0.00000000000E+00 -0.00000000000E+00 -0.35455926482E+03  0.35455926482E+03  0.00000000000E+00 0. -1.
         25    2    1    2    0    0  0.12312625207E+02 -0.23039051364E+03  0.22418448055E+03  0.34513104334E+03  0.12500146495E+03 0.  0.
          2    1    1    2  501    0  0.13523211582E+02  0.18301598541E+03 -0.26196647982E+03  0.31985022231E+03  0.00000000000E+00 0. -1.
          1    1    1    2  502    0 -0.25835836789E+02  0.47374528235E+02  0.22591088814E+03  0.23226615287E+03  0.00000000000E+00 0. -1.
         22    1    3    3    0    0 -0.51566601549E+00 -0.17154855418E+03  0.80826340109E+02  0.18963667791E+03  0.00000000000E+00 0. -1.
         22    1    3    3    0    0  0.12828291222E+02 -0.58841959462E+02  0.14335814044E+03  0.15549436543E+03  0.00000000000E+00 0. -1.
</event>
<event>
 7    1  0.6146596E-006  0.3105793E+03  0.7818608E-02  0.1194570E+00
          2   -1    0    0  502    0  0.00000000000E+00  0.00000000000E+00  0.59951265110E+03  0.59951265110E+03  0.00000000000E+00 0. -1.
          1   -1    0    0  501    0 -0.00000000000E+00 -0.00000000000E+00 -0.55890353985E+03  0.55890353985E+03  0.00000000000E+00 0. -1.
         25    2    1    2    0    0 -0.29058349168E+02  0.31640862510E+03  0.23979952726E+03  0.41723783742E+03  0.12499917603E+03 0.  0.
          2    1    1    2  501    0 -0.47637982953E+02 -0.30707275238E+03 -0.41126802437E+03  0.51546526609E+03  0.00000000000E+00 0. -1.
          1    1    1    2  502    0  0.76696332122E+02 -0.93358727205E+01  0.21207760835E+03  0.22571308745E+03  0.00000000000E+00 0. -1.
         22    1    3    3    0    0 -0.47056158289E+02  0.12765081748E+03  0.16387436125E+03  0.21298783888E+03  0.00000000000E+00 0. -1.
         22    1    3    3    0    0  0.17997809121E+02  0.18875780762E+03  0.75925166014E+02  0.20424999854E+03  0.00000000000E+00 0. -1.
</event>
<event>
 7    1  0.6146596E-006  0.7778911E+02  0.7818608E-02  0.1502441E+00
          2   -1    0    0  502    0  0.00000000000E+00  0.00000000000E+00  0.14909143723E+04  0.14909143723E+04  0.00000000000E+00 0. -1.
          1   -1    0    0  501    0 -0.00000000000E+00 -0.00000000000E+00 -0.30560462444E+02  0.30560462444E+02  0.00000000000E+00 0. -1.
         25    2    1    2    0    0  0.44185877135E+02 -0.78692869844E+02  0.22564945438E+03  0.27329232423E+03  0.12500423481E+03 0.  0.
          2    1    1    2  501    0 -0.34092083549E+02  0.59829435795E+02  0.17213439569E+03  0.18539709202E+03  0.00000000000E+00 0. -1.
          1    1    1    2  502    0 -0.10093793586E+02  0.18863434049E+02  0.10625700598E+04  0.10627854185E+04  0.00000000000E+00 0. -1.
         22    1    3    3    0    0  0.61176749862E+02 -0.10123333744E+03  0.20999261771E+03  0.24101386438E+03  0.00000000000E+00 0. -1.
         22    1    3    3    0    0 -0.16990872727E+02  0.22540467601E+02  0.15656836676E+02  0.32278459852E+02  0.00000000000E+00 0. -1.
</event>
<event>
 7    1  0.6146596E-006  0.7325961E+02  0.7818608E-02  0.1420543E+00
          2   -1    0    0  502    0  0.00000000000E+00  0.00000000000E+00  0.11320193442E+04  0.11320193442E+04  0.00000000000E+00 0. -1.
          1   -1    0    0  501    0 -0.00000000000E+00 -0.00000000000E+00 -0.39587111169E+02  0.39587111169E+02  0.00000000000E+00 0. -1.
         25    2    1    2    0    0 -0.23471763204E+02  0.76160389556E+02  0.30034893159E+03  0.33494191658E+03  0.12500111266E+03 0.  0.
          2    1    1    2  501    0 -0.31198371514E+02 -0.26833684156E+02 -0.15317004312E-01  0.41150762145E+02  0.00000000000E+00 0. -1.
          1    1    1    2  502    0  0.54670134718E+02 -0.49326705400E+02  0.79209861844E+03  0.79551377664E+03  0.00000000000E+00 0. -1.
         22    1    3    3    0    0  0.20717083656E+02  0.67060233783E+02  0.66185113503E+02  0.96471455673E+02  0.00000000000E+00 0. -1.
         22    1    3    3    0    0 -0.44188846859E+02  0.91001557727E+01  0.23416381809E+03  0.23847046090E+03  0.00000000000E+00 0. -1.
</event>
<event>
 7    1  0.6146596E-006  0.9150110E+02  0.7818608E-02  0.1299311E+00
          2   -1    0    0  502    0  0.00000000000E+00  0.00000000000E+00  0.83269769687E+02  0.83269769687E+02  0.00000000000E+00 0. -1.
          1   -1    0    0  501    0 -0.00000000000E+00 -0.00000000000E+00 -0.25706128778E+04  0.25706128778E+04  0.00000000000E+00 0. -1.
         25    2    1    2    0    0  0.85302977725E+02  0.21329326318E+02 -0.14798636113E+04  0.14877338020E+04  0.12499607816E+03 0.  0.
          2    1    1    2  501    0 -0.86624574839E+02  0.70116042101E+02 -0.10565156508E+04  0.10623772384E+04  0.00000000000E+00 0. -1.
          1    1    1    2  502    0  0.13215971139E+01 -0.91445368418E+02  0.49036153987E+02  0.10377160701E+03  0.00000000000E+00 0. -1.
         22    1    3    3    0    0  0.15173664818E+02  0.66558479897E+02 -0.75599081981E+03  0.75906678954E+03  0.00000000000E+00 0.  1.
         22    1    3    3    0    0  0.70129312907E+02 -0.45229153580E+02 -0.72387279145E+03  0.72866701247E+03  0.00000000000E+00 0.  1.
</event>
<event>
 7    1  0.6146596E-006  0.1539539E+03  0.7818608E-02  0.1302359E+00
          2   -1    0    0  502    0  0.00000000000E+00  0.00000000000E+00  0.21558909251E+04  0.21558909251E+04  0.00000000000E+00 0. -1.
          1   -1    0    0  501    0 -0.00000000000E+00 -0.00000000000E+00 -0.12506100464E+03  0.12506100464E+03  0.00000000000E+00 0. -1.
         25    2    1    2    0    0  0.41969004248E+02 -0.19807100575E+03  0.22122813053E+03  0.32490142271E+03  0.12500211239E+03 0.  0.
          2    1    1    2  501    0 -0.21323739176E+02  0.48358877167E+02 -0.60224526428E+02  0.80126627514E+02  0.00000000000E+00 0. -1.
          1    1    1    2  502    0 -0.20645265071E+02  0.14971212858E+03  0.18698263163E+04  0.18759238795E+04  0.00000000000E+00 0. -1.
         22    1    3    3    0    0  0.11305979441E+01  0.49702452824E+01 -0.11971258400E+02  0.13011249654E+02  0.00000000000E+00 0. -1.
         22    1    3    3    0    0  0.40838406304E+02 -0.20304125103E+03  0.23319938893E+03  0.31189017305E+03  0.00000000000E+00 0. -1.
</event>
<event>
 7    1  0.6146596E-006  0.5575589E+02  0.7818608E-02  0.1514196E+00
          2   -1    0    0  502    0  0.00000000000E+00  0.00000000000E+00  0.14241373144E+04  0.14241373144E+04  0.00000000000E+00 0. -1.
          1   -1    0    0  501    0 -0.00000000000E+00 -0.00000000000E+00 -0.14761850732E+03  0.14761850732E+03  0.00000000000E+00 0. -1.
         25    2    1    2    0    0  0.46259112808E+02  0.24591385384E+02  0.25115925663E+03  0.28539213717E+03  0.12499223180E+03 0.  0.
          2    1    1    2  501    0 -0.15802980532E+02  0.22576315787E+02 -0.12835691805E+03  0.13128184429E+03  0.00000000000E+00 0. -1.
          1    1    1    2  502    0 -0.30456132276E+02 -0.47167701171E+02  0.11537164685E+04  0.11550818403E+04  0.00000000000E+00 0. -1.
         22    1    3    3    0    0  0.62428540203E+02  0.25822628093E+02  0.51177947495E+02  0.84754427986E+02  0.00000000000E+00 0.  1.
         22    1    3    3    0    0 -0.16169427394E+02 -0.12312427083E+01  0.19998130914E+03  0.20063770918E+03  0.00000000000E+00 0.  1.
</event>
<event>
 7    1  0.6146596E-006  0.9385395E+02  0.7818608E-02  0.1313809E+00
          2   -1    0    0  502    0  0.00000000000E+00  0.00000000000E+00  0.16566320148E+04  0.16566320148E+04  0.00000000000E+00 0. -1.
          1   -1    0    0  501    0 -0.00000000000E+00 -0.00000000000E+00 -0.38184395395E+03  0.38184395395E+03  0.00000000000E+00 0. -1.
         25    2    1    2    0    0 -0.90520132552E+02  0.81840424304E+02  0.11794181635E+02  0.17507336338E+03  0.12497931988E+03 0.  0.
          2    1    1    2  501    0  0.77326352224E+02  0.11073607879E+02 -0.29368567962E+03  0.30389680478E+03  0.00000000000E+00 0. -1.
          1    1    1    2  502    0  0.13193780328E+02 -0.92914032183E+02  0.15566795588E+04  0.15595058006E+04  0.00000000000E+00 0. -1.
         22    1    3    3    0    0 -0.75204500955E+02  0.59220101010E+02 -0.49648329677E+02  0.10783178551E+03  0.00000000000E+00 0. -1.
         22    1    3    3    0    0 -0.15315631596E+02  0.22620323295E+02  0.61442511312E+02  0.67241577863E+02  0.00000000000E+00 0. -1.
</event>
<event>
 7    1  0.6146596E-006  0.1762606E+03  0.7818608E-02  0.1182820E+00
          2   -1    0    0  502    0  0.00000000000E+00  0.00000000000E+00  0.85178162874E+03  0.85178162874E+03  0.00000000000E+00 0. -1.
          1   -1    0    0  501    0 -0.00000000000E+00 -0.00000000000E+00 -0.28659815489E+03  0.28659815489E+03  0.00000000000E+00 0. -1.
         25    2    1    2    0    0  0.23405499411E+01  0.71808682358E+02  0.78203638056E+02  0.16401973620E+03  0.12499879929E+03 0.  0.
          2    1    1    2  501    0  0.53889376496E+02 -0.21630950021E+03 -0.18191595092E+03  0.28772778451E+03  0.00000000000E+00 0. -1.
          1    1    1    2  502    0 -0.56229926437E+02  0.14450081785E+03  0.66889578672E+03  0.68663226291E+03  0.00000000000E+00 0. -1.
         22    1    3    3    0    0  0.18480817768E+02  0.91808594626E+02  0.94935100276E+02  0.13335303498E+03  0.00000000000E+00 0.  1.
         22    1    3    3    0    0 -0.16140267827E+02 -0.19999912268E+02 -0.16731462220E+02  0.30666701229E+02  0.00000000000E+00 0.  1.
</event>
<event>
 7    1  0.6146596E-006  0.1417947E+03  0.7818608E-02  0.1263845E+00
          2   -1    0    0  502    0  0.00000000000E+00  0.00000000000E+00  0.85218247992E+02  0.85218247992E+02  0.00000000000E+00 0. -1.
          1   -1    0    0  501    0 -0.00000000000E+00 -0.00000000000E+00 -0.14347021553E+04  0.14347021553E+04  0.00000000000E+00 0. -1.
         25    2    1    2    0    0  0.62858960581E+02  0.76205011451E+02 -0.75944265724E+03  0.77597419393E+03  0.12499738924E+03 0.  0.
          2    1    1    2  501    0 -0.44142605772E+02  0.69864586559E+02 -0.59092898383E+03  0.59667972484E+03  0.00000000000E+00 0. -1.
          1    1    1    2  502    0 -0.18716354810E+02 -0.14606959801E+03  0.88773373661E+00  0.14726648455E+03  0.00000000000E+00 0. -1.
         22    1    3    3    0    0  0.17460934229E+02  0.56705350740E+02 -0.11285485533E+03  0.12750137018E+03  0.00000000000E+00 0.  1.
         22    1    3    3    0    0  0.45398026353E+02  0.19499660711E+02 -0.64658780191E+03  0.64847282375E+03  0.00000000000E+00 0.  1.
</event>
<event>
 7    1  0.6146596E-006  0.6775299E+02  0.7818608E-02  0.1482397E+00
          2   -1    0    0  502    0  0.00000000000E+00  0.00000000000E+00  0.19430227760E+04  0.19430227760E+04  0.00000000000E+00 0. -1.
          1   -1    0    0  501    0 -0.00000000000E+00 -0.00000000000E+00 -0.47169984653E+03  0.47169984653E+03  0.00000000000E+00 0. -1.
         25    2    1    2    0    0 -0.28896095179E+02  0.38941482688E+02  0.66407531970E+03  0.67747547921E+03  0.12500228517E+03 0.  0.
          2    1    1    2  501    0  0.57039519083E+02 -0.36717183806E+02 -0.46236800269E+03  0.46731769519E+03  0.00000000000E+00 0. -1.
          1    1    1    2  502    0 -0.28143423904E+02 -0.22242988814E+01  0.12696156125E+04  0.12699294481E+04  0.00000000000E+00 0. -1.
         22    1    3    3    0    0 -0.19583080746E+02  0.84309512427E+02  0.47410792561E+03  0.48194389307E+03  0.00000000000E+00 0.  1.
         22    1    3    3    0    0 -0.93130144329E+01 -0.45368029739E+02  0.18996739409E+03  0.19553158614E+03  0.00000000000E+00 0.  1.
</event>
<event>
 7    1  0.6146596E-006  0.4723614E+02  0.7818608E-02  0.1576732E+00
          2   -1    0    0  502    0  0.00000000000E+00  0.00000000000E+00  0.18682496407E+03  0.18682496407E+03  0.00000000000E+00 0. -1.
          1   -1    0    0  501    0 -0.00000000000E+00 -0.00000000000E+00 -0.33227778700E+03  0.33227778700E+03  0.00000000000E+00 0. -1.
         25    2    1    2    0    0  0.11072656203E+02 -0.47554375925E+02  0.93414164671E+02  0.16350892307E+03  0.12499975751E+03 0.  0.
          2    1    1    2  501    0  0.10588899006E+02  0.46083888881E+02 -0.29324964104E+03  0.29703737403E+03  0.00000000000E+00 0. -1.
          1    1    1    2  502    0 -0.21661555208E+02  0.14704870437E+01  0.54382653440E+02  0.58556453969E+02  0.00000000000E+00 0. -1.
         22    1    3    3    0    0 -0.41286886681E+02 -0.59197611962E+02  0.24580666444E+02  0.76244169854E+02  0.00000000000E+00 0.  1.
         22    1    3    3    0    0  0.52359542884E+02  0.11643236037E+02  0.68833498227E+02  0.87264753220E+02  0.00000000000E+00 0.  1.
</event>
<event>
 7    1  0.6146596E-006  0.9106835E+02  0.7818608E-02  0.1332399E+00
          2   -1    0    0  502    0  0.00000000000E+00  0.00000000000E+00  0.13485813367E+04  0.13485813367E+04  0.00000000000E+00 0. -1.
          1   -1    0    0  501    0 -0.00000000000E+00 -0.00000000000E+00 -0.42449618503E+03  0.42449618503E+03  0.00000000000E+00 0. -1.
         25    2    1    2    0    0 -0.88405213622E+02  0.64113506980E+02 -0.95779821362E+02  0.19163578335E+03  0.12499790281E+03 0.  0.
          2    1    1    2  501    0  0.24505379050E+02 -0.88060765140E+02 -0.27242516384E+03  0.28735114730E+03  0.00000000000E+00 0. -1.
          1    1    1    2  502    0  0.63899834572E+02  0.23947258159E+02  0.12922901369E+04  0.12940905911E+04  0.00000000000E+00 0. -1.
         22    1    3    3    0    0 -0.41103500616E+02 -0.33965864456E+02 -0.13082334759E+02  0.54902870543E+02  0.00000000000E+00 0.  1.
         22    1    3    3    0    0 -0.47301713006E+02  0.98079371437E+02 -0.82697486603E+02  0.13673291281E+03  0.00000000000E+00 0.  1.
</event>
<event>
 7    1  0.6146596E-006  0.5743159E+02  0.7818608E-02  0.1552123E+00
          2   -1    0    0  502    0  0.00000000000E+00  0.00000000000E+00  0.51145568479E+02  0.51145568479E+02  0.00000000000E+00 0. -1.
          1   -1    0    0  501    0 -0.00000000000E+00 -0.00000000000E+00 -0.18093895198E+04  0.18093895198E+04  0.00000000000E+00 0. -1.
         25    2    1    2    0    0  0.63605659422E+02 -0.20182578382E+02 -0.10832647841E+04  0.10924922979E+04  0.12499524910E+03 0.  0.
          2    1    1    2  501    0 -0.62779678723E+01  0.19885327756E+02 -0.70364014930E+03  0.70394907404E+03  0.00000000000E+00 0. -1.
          1    1    1    2  502    0 -0.57327691550E+02  0.29725062537E+00  0.28660982041E+02  0.64093716290E+02  0.00000000000E+00 0. -1.
         22    1    3    3    0    0  0.10188712619E+03 -0.14741070584E+02 -0.77101900166E+03  0.77786154717E+03  0.00000000000E+00 0.  1.
         22    1    3    3    0    0 -0.38281466766E+02 -0.54415077981E+01 -0.31224578239E+03  0.31463075076E+03  0.00000000000E+00 0.  1.
</event>
<event>
 7    1  0.6146596E-006  0.3191332E+02  0.7818608E-02  0.1588978E+00
          2   -1    0    0  502    0  0.00000000000E+00  0.00000000000E+00  0.10689473086E+04  0.10689473086E+04  0.00000000000E+00 0. -1.
          1   -1    0    0  501    0 -0.00000000000E+00 -0.00000000000E+00 -0.27014851338E+02  0.27014851338E+02  0.00000000000E+00 0. -1.
         25    2    1    2    0    0  0.45942144826E+02 -0.36439616950E+02  0.54781273694E+03  0.56494430516E+03  0.12499898728E+03 0.  0.
          2    1    1    2  501    0 -0.28936880495E+02  0.11963072044E+02 -0.43895447047E+01  0.31618447910E+02  0.00000000000E+00 0. -1.
          1    1    1    2  502    0 -0.17005264331E+02  0.24476544906E+02  0.49850926504E+03  0.49939940689E+03  0.00000000000E+00 0. -1.
         22    1    3    3    0    0  0.72722208968E+02 -0.52658687125E+02  0.49857850132E+03  0.50659843958E+03  0.00000000000E+00 0. -1.
         22    1    3    3    0    0 -0.26780064142E+02  0.16219070174E+02  0.49234235622E+02  0.58345865578E+02  0.00000000000E+00 0. -1.
</event>
<event>
 7    1  0.6146596E-006  0.2440237E+03  0.7818608E-02  0.1320288E+00
          2   -1    0    0  502    0  0.00000000000E+00  0.00000000000E+00  0.82870385422E+03  0.82870385422E+03  0.00000000000E+00 0. -1.
          1   -1    0    0  501    0 -0.00000000000E+00 -0.00000000000E+00 -0.10638412566E+03  0.10638412566E+03  0.00000000000E+00 0. -1.
         25    2    1    2    0    0 -0.16443685379E+03  0.17668488073E+03  0.31887720952E+03  0.41900503593E+03  0.12500207767E+03 0.  0.
          2    1    1    2  501    0  0.14639720283E+03 -0.19855080723E+03  0.22022831000E+03  0.33068878507E+03  0.00000000000E+00 0. -1.
          1    1    1    2  502    0  0.18039650961E+02  0.21865926504E+02  0.18321420904E+03  0.18539415887E+03  0.00000000000E+00 0. -1.
         22    1    3    3    0    0 -0.41161798042E+02  0.62692668854E+02  0.19910527996E+03  0.21276178429E+03  0.00000000000E+00 0.  1.
         22    1    3    3    0    0 -0.12327505575E+03  0.11399221187E+03  0.11977192956E+03  0.20624325165E+03  0.00000000000E+00 0.  1.
</event>
<event>
 7    1  0.6146596E-006  0.9314422E+02  0.7818608E-02  0.1301569E+00
          2   -1    0    0  502    0  0.00000000000E+00  0.00000000000E+00  0.13813072972E+03  0.13813072972E+03  0.00000000000E+00 0. -1.
          1   -1    0    0  501    0 -0.00000000000E+00 -0.00000000000E+00 -0.13389221254E+04  0.13389221254E+04  0.00000000000E+00 0. -1.
         25    2    1    2    0    0  0.11006794951E+02  0.39101290488E+02  0.75591375089E-02  0.13143504769E+03  0.12500044500E+03 0.  0.
          2    1    1    2  501    0  0.33700703772E+02  0.86833802191E+02 -0.12081929519E+04  0.12117780555E+04  0.00000000000E+00 0. -1.
          1    1    1    2  502    0 -0.44707498723E+02 -0.12593509268E+03  0.73939971068E+01  0.13383975195E+03  0.00000000000E+00 0. -1.
         22    1    3    3    0    0  0.32197074847E+02 -0.27503236451E+02  0.33439956111E+02  0.53956559459E+02  0.00000000000E+00 0.  1.
         22    1    3    3    0    0 -0.21190279895E+02  0.66604526939E+02 -0.33432396973E+02  0.77478488228E+02  0.00000000000E+00 0.  1.
</event>
<event>
 7    1  0.6146596E-006  0.9309798E+02  0.7818608E-02  0.1338277E+00
          2   -1    0    0  502    0  0.00000000000E+00  0.00000000000E+00  0.45435924027E+03  0.45435924027E+03  0.00000000000E+00 0. -1.
          1   -1    0    0  501    0 -0.00000000000E+00 -0.00000000000E+00 -0.13908093581E+04  0.13908093581E+04  0.00000000000E+00 0. -1.
         25    2    1    2    0    0 -0.54875050758E+02 -0.17599119441E+02 -0.41601440415E+03  0.43819343290E+03  0.12499799990E+03 0.  0.
          2    1    1    2  501    0 -0.30829788691E+02  0.55416958499E+02 -0.95769575704E+03  0.95979303926E+03  0.00000000000E+00 0. -1.
          1    1    1    2  502    0  0.85704839449E+02 -0.37817839058E+02  0.43726004338E+03  0.44718212620E+03  0.00000000000E+00 0. -1.
         22    1    3    3    0    0 -0.34335899344E+02 -0.56248952959E+02 -0.10398168102E+03  0.12310600586E+03  0.00000000000E+00 0. -1.
         22    1    3    3    0    0 -0.20539151414E+02  0.38649833518E+02 -0.31203272313E+03  0.31508742704E+03  0.00000000000E+00 0. -1.
</event>
<event>
 7    1  0.6146596E-006  0.8164427E+02  0.7818608E-02  0.1384466E+00
          2   -1    0    0  502    0  0.00000000000E+00  0.00000000000E+00  0.36939767522E+03  0.36939767522E+03  0.00000000000E+00 0. -1.
          1   -1    0    0  501    0 -0.00000000000E+00 -0.00000000000E+00 -0.29806935790E+03  0.29806935790E+03  0.00000000000E+00 0. -1.
         25    2    1    2    0    0 -0.87956063857E+02  0.69957973932E+02  0.21286179741E+03  0.27122977561E+03  0.12500023639E+03 0.  0.
          2    1    1    2  501    0  0.48040222917E+02 -0.10069307118E+02 -0.25619756037E+03  0.26085713313E+03  0.00000000000E+00 0. -1.
          1    1    1    2  502    0  0.39915840940E+02 -0.59888666814E+02  0.11466408028E+03  0.13538012438E+03  0.00000000000E+00 0. -1.
         22    1    3    3    0    0 -0.37342543050E+02  0.19083637569E+02  0.19195628994E+03  0.19648376013E+03  0.00000000000E+00 0. -1.
         22    1    3    3    0    0 -0.50613520807E+02  0.50874336363E+02  0.20905507464E+02  0.74746015487E+02  0.00000000000E+00 0. -1.
</event>
<event>
 7    1  0.6146596E-006  0.1189366E+03  0.7818608E-02  0.1414183E+00
          2   -1    0    0  502    0  0.00000000000E+00  0.00000000000E+00  0.49301223493E+03  0.49301223493E+03  0.00000000000E+00 0. -1.
          1   -1    0    0  501    0 -0.00000000000E+00 -0.00000000000E+00 -0.13652881297E+04  0.13652881297E+04  0.00000000000E+00 0. -1.
         25    2    1    2    0    0  0.90688068927E+02  0.29430657815E+02  0.12234828711E+02  0.15768948077E+03  0.12500316735E+03 0.  0.
          2    1    1    2  501    0  0.25925696083E+02  0.60516038105E+01 -0.12833167621E+04  0.12835928777E+04  0.00000000000E+00 0. -1.
          1    1    1    2  502    0 -0.11661376501E+03 -0.35482261625E+02  0.39880603861E+03  0.41701800622E+03  0.00000000000E+00 0. -1.
         22    1    3    3    0    0  0.14121856046E+02  0.55404417349E+02 -0.32006623528E+02  0.65524806216E+02  0.00000000000E+00 0.  1.
         22    1    3    3    0    0  0.76566212881E+02 -0.25973759534E+02  0.44241452239E+02  0.92164674554E+02  0.00000000000E+00 0.  1.
</event>
<event>
 7    1  0.6146596E-006  0.1558413E+03  0.7818608E-02  0.1298632E+00
          2   -1    0    0  502    0  0.00000000000E+00  0.00000000000E+00  0.48452398998E+03  0.48452398998E+03  0.00000000000E+00 0. -1.
          1   -1    0    0  501    0 -0.00000000000E+00 -0.00000000000E+00 -0.43216461856E+03  0.43216461856E+03  0.00000000000E+00 0. -1.
         25    2    1    2    0    0  0.11911436198E+03  0.16638384053E+03  0.21270753043E+03  0.32053351735E+03  0.12500171449E+03 0.  0.
          2    1    1    2  501    0 -0.77442927169E+02 -0.13198516410E+03 -0.35901644901E+03  0.39026952375E+03  0.00000000000E+00 0. -1.
          1    1    1    2  502    0 -0.41671434816E+02 -0.34398676433E+02  0.19866829001E+03  0.20588556743E+03  0.00000000000E+00 0. -1.
         22    1    3    3    0    0  0.12342814540E+02 -0.18503580271E+02  0.40622411211E+02  0.46313149819E+02  0.00000000000E+00 0. -1.
         22    1    3    3    0    0  0.10677154744E+03  0.18488742080E+03  0.17208511922E+03  0.27422036753E+03  0.00000000000E+00 0. -1.
</event>
<event>
 7    1  0.6146596E-006  0.8375525E+02  0.7818608E-02  0.1372941E+00
          2   -1    0    0  502    0  0.00000000000E+00  0.00000000000E+00  0.16908375514E+04  0.16908375514E+04  0.00000000000E+00 0. -1.
          1   -1    0    0  501    0 -0.00000000000E+00 -0.00000000000E+00 -0.73138413321E+02  0.73138413321E+02  0.00000000000E+00 0. -1.
         25    2    1    2    0    0 -0.89574779378E+02  0.32518119367E+02  0.80181671798E+03  0.81707856898E+03  0.12500507773E+03 0.  0.
          2    1    1    2  501    0  0.39414502769E+02  0.34789210656E+02 -0.52600018974E+02  0.74367695962E+02  0.00000000000E+00 0. -1.
          1    1    1    2  502    0  0.50160276609E+02 -0.67307330023E+02  0.86848243911E+03  0.87252969982E+03  0.00000000000E+00 0. -1.
         22    1    3    3    0    0 -0.10077983440E+03  0.33240932140E+02  0.36490571569E+03  0.38002330973E+03  0.00000000000E+00 0.  1.
         22    1    3    3    0    0  0.11205055023E+02 -0.72281277314E+00  0.43691100229E+03  0.43705525925E+03  0.00000000000E+00 0.  1.
</event>
<event>
 7    1  0.6146596E-006  0.8416542E+02  0.7818608E-02  0.1421806E+00
          2   -1    0    0  502    0  0.00000000000E+00  0.00000000000E+00  0.14484215665E+03  0.14484215665E+03  0.00000000000E+00 0. -1.
          1   -1    0    0  501    0 -0.00000000000E+00 -0.00000000000E+00 -0.24586725058E+03  0.24586725058E+03  0.00000000000E+00 0. -1.
         25    2    1    2    0    0  0.42076059993E+02 -0.55618518955E+02 -0.38421731812E+02  0.14820523424E+03  0.12499899002E+03 0.  0.
          2    1    1    2  501    0  0.34008816388E+02  0.10086119332E+02 -0.12768088773E+03  0.13251693660E+03  0.00000000000E+00 0. -1.
          1    1    1    2  502    0 -0.76084876380E+02  0.45532399622E+02  0.65077525615E+02  0.10998723639E+03  0.00000000000E+00 0. -1.
         22    1    3    3    0    0  0.43231236596E+02 -0.65501250307E+02  0.26263323603E+02  0.82759384821E+02  0.00000000000E+00 0. -1.
         22    1    3    3    0    0 -0.11551766031E+01  0.98827313522E+01 -0.64685055415E+02  0.65445849418E+02  0.00000000000E+00 0. -1.
</event>
<event>
 7    1  0.6146596E-006  0.1213408E+03  0.7818608E-02  0.1442083E+00
          2   -1    0    0  502    0  0.00000000000E+00  0.00000000000E+00  0.72552568542E+03  0.72552568542E+03  0.00000000000E+00 0. -1.
          1   -1    0    0  501    0 -0.00000000000E+00 -0.00000000000E+00 -0.17118378154E+04  0.17118378154E+04  0.00000000000E+00 0. -1.
         25    2    1    2    0    0 -0.71940017718E+02 -0.70317509652E+02  0.91897778864E+02  0.18490404066E+03  0.12499753669E+03 0.  0.
          2    1    1    2  501    0  0.86112944446E+02  0.85960019182E+02 -0.16629215275E+04  0.16673669574E+04  0.00000000000E+00 0. -1.
          1    1    1    2  502    0 -0.14172926727E+02 -0.15642509530E+02  0.58471161857E+03  0.58509250281E+03  0.00000000000E+00 0. -1.
         22    1    3    3    0    0  0.13022575678E+02 -0.70526634824E+02  0.62097118552E+02  0.94866463144E+02  0.00000000000E+00 0. -1.
         22    1    3    3    0    0 -0.84962593396E+02  0.20912517246E+00  0.29800660313E+02  0.90037577516E+02  0.00000000000E+00 0. -1.
</event>
<event>
 7    1  0.6146596E-006  0.7156712E+03  0.7818608E-02  0.1201129E+00
          2   -1    0    0  502    0  0.00000000000E+00  0.00000000000E+00  0.24757896914E+04  0.24757896914E+04  0.00000000000E+00 0. -1.
          1   -1    0    0  501    0 -0.00000000000E+00 -0.00000000000E+00 -0.11196925044E+04  0.11196925044E+04  0.00000000000E+00 0. -1.
         25    2    1    2    0    0  0.62865871516E+03  0.27794013364E+03 -0.50709491205E+03  0.86326832687E+03  0.12499782529E+03 0.  0.
          2    1    1    2  501    0  0.25508926113E+02  0.17992919514E+02 -0.37776148248E+03  0.37904905766E+03  0.00000000000E+00 0. -1.
          1    1    1    2  502    0 -0.65416764127E+03 -0.29593305315E+03  0.22409535815E+04  0.23531648113E+04  0.00000000000E+00 0. -1.
         22    1    3    3    0    0  0.34843359728E+03  0.99304282347E+02 -0.31046813003E+03  0.47713496201E+03  0.00000000000E+00 0.  1.
         22    1    3    3    0    0  0.28022511788E+03  0.17863585129E+03 -0.19662678202E+03  0.38613336487E+03  0.00000000000E+00 0.  1.
</event>
<event>
 7    1  0.6146596E-006  0.6458662E+02  0.7818608E-02  0.1460430E+00
          2   -1    0    0  502    0  0.00000000000E+00  0.00000000000E+00  0.43860945568E+03  0.43860945568E+03  0.00000000000E+00 0. -1.
          1   -1    0    0  501    0 -0.00000000000E+00 -0.00000000000E+00 -0.38862102867E+03  0.38862102867E+03  0.00000000000E+00 0. -1.
         25    2    1    2    0    0 -0.30082485252E+02 -0.98837022520E+01 -0.24734032557E+03  0.27894659206E+03  0.12502528174E+03 0.  0.
          2    1    1    2  501    0 -0.34491820324E+02  0.33196080632E+01 -0.12053104083E+03  0.12541306659E+03  0.00000000000E+00 0. -1.
          1    1    1    2  502    0  0.64574305577E+02  0.65640941888E+01  0.41785979342E+03  0.42287082570E+03  0.00000000000E+00 0. -1.
         22    1    3    3    0    0 -0.41084922014E+02  0.40234866716E+02 -0.20346088450E+03  0.21143118701E+03  0.00000000000E+00 0.  1.
         22    1    3    3    0    0  0.11002436762E+02 -0.50118568968E+02 -0.43879441072E+02  0.67515405049E+02  0.00000000000E+00 0.  1.
</event>
<event>
 7    1  0.6146596E-006  0.5400555E+02  0.7818608E-02  0.1427886E+00
          2   -1    0    0  502    0  0.00000000000E+00  0.00000000000E+00  0.21407464142E+04  0.21407464142E+04  0.00000000000E+00 0. -1.
          1   -1    0    0  501    0 -0.00000000000E+00 -0.00000000000E+00 -0.50401391107E+02  0.50401391107E+02  0.00000000000E+00 0. -1.
         25    2    1    2    0    0 -0.25461443605E+02 -0.50220623927E+02  0.14222947650E+04  0.14288866815E+04  0.12499741509E+03 0.  0.
          2    1    1    2  501    0 -0.27211879520E+02  0.46948027368E+02 -0.30144318892E+02  0.62074822772E+02  0.00000000000E+00 0. -1.
          1    1    1    2  502    0  0.52673323124E+02  0.32725965597E+01  0.69819457695E+03  0.70018630103E+03  0.00000000000E+00 0. -1.
         22    1    3    3    0    0 -0.71110741139E+02 -0.43966500127E+02  0.11181966589E+04  0.11213177777E+04  0.00000000000E+00 0. -1.
         22    1    3    3    0    0  0.45649297534E+02 -0.62541238002E+01  0.30409810612E+03  0.30756890379E+03  0.00000000000E+00 0. -1.
</event>
<event>
 7    1  0.6146596E-006  0.8822764E+02  0.7818608E-02  0.1320269E+00
          2   -1    0    0  502    0  0.00000000000E+00  0.00000000000E+00  0.49302029301E+02  0.49302029301E+02  0.00000000000E+00 0. -1.
          1   -1    0    0  501    0 -0.00000000000E+00 -0.00000000000E+00 -0.16358528905E+04  0.16358528905E+04  0.00000000000E+00 0. -1.
         25    2    1    2    0    0 -0.65407793576E+02 -0.96306462621E+02 -0.55042923261E+03  0.57632496674E+03  0.12500005188E+03 0.  0.
          2    1    1    2  501    0 -0.12455576457E+02  0.87011695556E+02 -0.10260056824E+04  0.10297639714E+04  0.00000000000E+00 0. -1.
          1    1    1    2  502    0  0.77863370033E+02  0.92947670643E+01 -0.10115946219E+02  0.79065981659E+02  0.00000000000E+00 0. -1.
         22    1    3    3    0    0 -0.10116493478E+03 -0.75664531324E+02 -0.45779883311E+03  0.47490971450E+03  0.00000000000E+00 0.  1.
         22    1    3    3    0    0  0.35757141206E+02 -0.20641931297E+02 -0.92630399503E+02  0.10141525224E+03  0.00000000000E+00 0.  1.
</event>
<event>
 7    1  0.6146596E-006  0.5727711E+02  0.7818608E-02  0.1461127E+00
          2   -1    0    0  502    0  0.00000000000E+00  0.00000000000E+00  0.75131525573E+03  0.75131525573E+03  0.00000000000E+00 0. -1.
          1   -1    0    0  501    0 -0.00000000000E+00 -0.00000000000E+00 -0.29076608295E+03  0.29076608295E+03  0.00000000000E+00 0. -1.
         25    2    1    2    0    0  0.49080892762E+02  0.39622570953E+02  0.21136290918E+03  0.25353292272E+03  0.12500312543E+03 0.  0.
          2    1    1    2  501    0 -0.35229835859E+02  0.16437636844E+02 -0.26666056658E+03  0.26947948903E+03  0.00000000000E+00 0. -1.
          1    1    1    2  502    0 -0.13851056903E+02 -0.56060207797E+02  0.51584683019E+03  0.51906892692E+03  0.00000000000E+00 0. -1.
         22    1    3    3    0    0 -0.24582118073E+02  0.58242242153E+02  0.10974278643E+03  0.12664879973E+03  0.00000000000E+00 0. -1.
         22    1    3    3    0    0  0.73663010835E+02 -0.18619671200E+02  0.10162012274E+03  0.12688412299E+03  0.00000000000E+00 0. -1.
</event>
<event>
 7    1  0.6146596E-006  0.7866628E+02  0.7818608E-02  0.1399625E+00
          2   -1    0    0  502    0  0.00000000000E+00  0.00000000000E+00  0.13818145323E+04  0.13818145323E+04  0.00000000000E+00 0. -1.
          1   -1    0    0  501    0 -0.00000000000E+00 -0.00000000000E+00 -0.71070729089E+02  0.71070729089E+02  0.00000000000E+00 0. -1.
         25    2    1    2    0    0  0.11549608885E+03 -0.24542467113E+01  0.14720804030E+03  0.22503621749E+03  0.12500288871E+03 0.  0.
          2    1    1    2  501    0 -0.70567607368E+02  0.65711744855E+01  0.78762649037E+01  0.71309207628E+02  0.00000000000E+00 0. -1.
          1    1    1    2  502    0 -0.44928481484E+02 -0.41169277741E+01  0.11556594980E+04  0.11565398363E+04  0.00000000000E+00 0. -1.
         22    1    3    3    0    0  0.14090466848E+03  0.38529195866E+01  0.10662773382E+03  0.17674400756E+03  0.00000000000E+00 0. -1.
         22    1    3    3    0    0 -0.25408579633E+02 -0.63071662979E+01  0.40580306478E+02  0.48292209926E+02  0.00000000000E+00 0. -1.
</event>
<event>
 7    1  0.6146596E-006  0.1549905E+03  0.7818608E-02  0.1202044E+00
          2   -1    0    0  502    0  0.00000000000E+00  0.00000000000E+00  0.87271543071E+03  0.87271543071E+03  0.00000000000E+00 0. -1.
          1   -1    0    0  501    0 -0.00000000000E+00 -0.00000000000E+00 -0.24078333834E+03  0.24078333834E+03  0.00000000000E+00 0. -1.
         25    2    1    2    0    0  0.48762122223E+02 -0.14227715669E+03  0.40342082373E+01  0.19560604159E+03  0.12499965916E+03 0.  0.
          2    1    1    2  501    0 -0.16817356045E+03  0.64111057211E+02 -0.79128148407E+02  0.19660579331E+03  0.00000000000E+00 0. -1.
          1    1    1    2  502    0  0.11941143823E+03  0.78166099479E+02  0.70702603254E+03  0.72128693415E+03  0.00000000000E+00 0. -1.
         22    1    3    3    0    0 -0.21520817844E+02 -0.15850608539E+02  0.38537217029E+02  0.46898875126E+02  0.00000000000E+00 0.  1.
         22    1    3    3    0    0  0.70282940068E+02 -0.12642654815E+03 -0.34503008791E+02  0.14870716646E+03  0.00000000000E+00 0.  1.
</event>
<event>
 7    1  0.6146596E-006  0.8586795E+02  0.7818608E-02  0.1441685E+00
          2   -1    0    0  502    0  0.00000000000E+00  0.00000000000E+00  0.68645534563E+02  0.68645534563E+02  0.00000000000E+00 0. -1.
          1   -1    0    0  501    0 -0.00000000000E+00 -0.00000000000E+00 -0.48715003535E+03  0.48715003535E+03  0.00000000000E+00 0. -1.
         25    2    1    2    0    0 -0.93911184878E+02 -0.31752913796E+02 -0.28683743941E+03  0.32821730834E+03  0.12499330650E+03 0.  0.
          2    1    1    2  501    0  0.93309523814E+01  0.28424465781E+02 -0.13940557598E+03  0.14257956214E+03  0.00000000000E+00 0. -1.
          1    1    1    2  502    0  0.84580232497E+02  0.33284480154E+01  0.77385146034E+01  0.84998699423E+02  0.00000000000E+00 0. -1.
         22    1    3    3    0    0 -0.45612648240E+02 -0.43477719133E+02 -0.26760591038E+03  0.27492498797E+03  0.00000000000E+00 0. -1.
         22    1    3    3    0    0 -0.48298536638E+02  0.11724805337E+02 -0.19231529026E+02  0.53292320369E+02  0.00000000000E+00 0. -1.
</event>
<event>
 7    1  0.6146596E-006  0.5474222E+02  0.7818608E-02  0.1427909E+00
          2   -1    0    0  502    0  0.00000000000E+00  0.00000000000E+00  0.14737436772E+04  0.14737436772E+04  0.00000000000E+00 0. -1.
          1   -1    0    0  501    0 -0.00000000000E+00 -0.00000000000E+00 -0.36418716972E+02  0.36418716972E+02  0.00000000000E+00 0. -1.
         25    2    1    2    0    0  0.74508911015E+01  0.25118152188E+02  0.58779775548E+03  0.60151350701E+03  0.12500344162E+03 0.  0.
          2    1    1    2  501    0 -0.53831502507E+02  0.99438179768E+01 -0.23473140570E+01  0.54792518297E+02  0.00000000000E+00 0. -1.
          1    1    1    2  502    0  0.46380611405E+02 -0.35061970165E+02  0.85187451881E+03  0.85385636887E+03  0.00000000000E+00 0. -1.
         22    1    3    3    0    0 -0.21392160288E+02 -0.14947727272E+02  0.50083855448E+03  0.50151801236E+03  0.00000000000E+00 0.  1.
         22    1    3    3    0    0  0.28843051390E+02  0.40065879460E+02  0.86959201002E+02  0.99995494645E+02  0.00000000000E+00 0.  1.
</event>
<event>
 7    1  0.6146596E-006  0.1523788E+03  0.7818608E-02  0.1383132E+00
          2   -1    0    0  502    0  0.00000000000E+00  0.00000000000E+00  0.19555443513E+03  0.19555443513E+03  0.00000000000E+00 0. -1.
          1   -1    0    0  501    0 -0.00000000000E+00 -0.00000000000E+00 -0.23971042973E+04  0.23971042973E+04  0.00000000000E+00 0. -1.
         25    2    1    2    0    0 -0.61512937257E+02  0.11296659858E+03 -0.40560499095E+03  0.44349288232E+03  0.12500093657E+03 0.  0.
          2    1    1    2  501    0 -0.18901703408E+02  0.18694724593E+02 -0.19387551512E+04  0.19389374160E+04  0.00000000000E+00 0. -1.
          1    1    1    2  502    0  0.80414640664E+02 -0.13166132317E+03  0.14281027993E+03  0.21022843410E+03  0.00000000000E+00 0. -1.
         22    1    3    3    0    0  0.13691795834E+02 -0.32925603240E+01 -0.16722901352E+03  0.16782088425E+03  0.00000000000E+00 0. -1.
         22    1    3    3    0    0 -0.75204733091E+02  0.11625915890E+03 -0.23837597743E+03  0.27567199807E+03  0.00000000000E+00 0. -1.
</event>
<event>
 7    1  0.6146596E-006  0.1635685E+03  0.7818608E-02  0.1355972E+00
          2   -1    0    0  502    0  0.00000000000E+00  0.00000000000E+00  0.18828121495E+04  0.18828121495E+04  0.00000000000E+00 0. -1.
          1   -1    0    0  501    0 -0.00000000000E+00 -0.00000000000E+00 -0.10349950572E+04  0.10349950572E+04  0.00000000000E+00 0. -1.
         25    2    1    2    0    0 -0.96509551194E+02  0.15587166176E+03  0.16069117636E+04  0.16221592904E+04  0.12500111617E+03 0.  0.
          2    1    1    2  501    0  0.66152377637E+02 -0.14951502160E+03 -0.10199420681E+04  0.10329630686E+04  0.00000000000E+00 0. -1.
          1    1    1    2  502    0  0.30357173556E+02 -0.63566401566E+01  0.26084739672E+03  0.26268484774E+03  0.00000000000E+00 0. -1.
         22    1    3    3    0    0 -0.88970723967E+02  0.28020587237E+02  0.62200387968E+03  0.62895927481E+03  0.00000000000E+00 0. -1.
         22    1    3    3    0    0 -0.75388272270E+01  0.12785107452E+03  0.98490788394E+03  0.99320001561E+03  0.00000000000E+00 0. -1.
</event>
<event>
 7    1  0.6146596E-006  0.2075405E+03  0.7818608E-02  0.1315883E+00
          2   -1    0    0  502    0  0.00000000000E+00  0.00000000000E+00  0.35391771546E+03  0.35391771546E+03  0.00000000000E+00 0. -1.
          1   -1    0    0  501    0 -0.00000000000E+00 -0.00000000000E+00 -0.16437120159E+04  0.16437120159E+04  0.00000000000E+00 0. -1.
         25    2    1    2    0    0 -0.60127293949E+02  0.18406462638E+03 -0.38198427843E+03  0.44613246429E+03  0.12500843396E+03 0.  0.
          2    1    1    2  501    0  0.35931684730E+02 -0.20889811440E+03 -0.12195508306E+04  0.12378342928E+04  0.00000000000E+00 0. -1.
          1    1    1    2  502    0  0.24195609219E+02  0.24833488024E+02  0.31174080860E+03  0.31366297420E+03  0.00000000000E+00 0. -1.
         22    1    3    3    0    0  0.23100147572E+01  0.15774124073E+03 -0.22156943872E+03  0.27199384437E+03  0.00000000000E+00 0.  1.
         22    1    3    3    0    0 -0.62437308706E+02  0.26323385645E+02 -0.16041483971E+03  0.17413861992E+03  0.00000000000E+00 0.  1.
</event>
<event>
 7    1  0.6146596E-006  0.2043845E+03  0.7818608E-02  0.1318289E+00
          2   -1    0    0  502    0  0.00000000000E+00  0.00000000000E+00  0.49017070165E+03  0.49017070165E+03  0.00000000000E+00 0. -1.
          1   -1    0    0  501    0 -0.00000000000E+00 -0.00000000000E+00 -0.14609850166E+04  0.14609850166E+04  0.00000000000E+00 0. -1.
         25    2    1    2    0    0 -0.71284850972E+02 -0.22267853653E+03 -0.22743416213E+03  0.34931204677E+03  0.12500138923E+03 0.  0.
          2    1    1    2  501    0  0.67975457878E+02  0.18838282332E+03 -0.11633501068E+04  0.11804627152E+04  0.00000000000E+00 0. -1.
          1    1    1    2  502    0  0.33093930940E+01  0.34295713212E+02  0.41996995400E+03  0.42138095625E+03  0.00000000000E+00 0. -1.
         22    1    3    3    0    0 -0.42320998572E+02 -0.30920413619E+02 -0.11191519001E+03  0.12358053509E+03  0.00000000000E+00 0.  1.
         22    1    3    3    0    0 -0.28963852400E+02 -0.19175812291E+03 -0.11551897212E+03  0.22573151169E+03  0.00000000000E+00 0.  1.
</event>
<event>
 7    1  0.6146596E-006  0.1623772E+03  0.7818608E-02  0.1199131E+00
          2   -1    0    0  502    0  0.00000000000E+00  0.00000000000E+00  0.17833171501E+04  0.17833171501E+04  0.00000000000E+00 0. -1.
          1   -1    0    0  501    0 -0.00000000000E+00 -0.00000000000E+00 -0.42439118884E+02  0.42439118884E+02  0.00000000000E+00 0. -1.
         25    2    1    2    0    0  0.12272734183E+03 -0.77955667718E+01  0.39305256642E+03  0.43039277946E+03  0.12499941337E+03 0.  0.
          2    1    1    2  501    0  0.63957505261E+01 -0.14045532448E+03  0.32966527430E+03  0.35839614518E+03  0.00000000000E+00 0. -1.
          1    1    1    2  502    0 -0.12912309236E+03  0.14825089125E+03  0.10181601905E+04  0.10369673444E+04  0.00000000000E+00 0. -1.
         22    1    3    3    0    0  0.11332650515E+03  0.40839077999E+02  0.22532541151E+03  0.25550394935E+03  0.00000000000E+00 0.  1.
         22    1    3    3    0    0  0.94008366890E+01 -0.48634644770E+02  0.16772715491E+03  0.17488883011E+03  0.00000000000E+00 0.  1.
</event>
<event>
 7    1  0.6146596E-006  0.1518166E+03  0.7818608E-02  0.1250700E+00
          2   -1    0    0  502    0  0.00000000000E+00  0.00000000000E+00  0.18635116516E+04  0.18635116516E+04  0.00000000000E+00 0. -1.
          1   -1    0    0  501    0 -0.00000000000E+00 -0.00000000000E+00 -0.99975560469E+02  0.99975560469E+02  0.00000000000E+00 0. -1.
         25    2    1    2    0    0  0.78238766348E+02 -0.69921372023E+02  0.15698679318E+03  0.22645164748E+03  0.12500077036E+03 0.  0.
          2    1    1    2  501    0 -0.16410445157E+03  0.88631747196E+02  0.71925869016E+02  0.19989794463E+03  0.00000000000E+00 0. -1.
          1    1    1    2  502    0  0.85865685218E+02 -0.18710375173E+02  0.15346234289E+04  0.15371376199E+04  0.00000000000E+00 0. -1.
         22    1    3    3    0    0  0.27016327635E+00 -0.94606721021E+01 -0.20951477828E+02  0.22990035406E+02  0.00000000000E+00 0. -1.
         22    1    3    3    0    0  0.77968603071E+02 -0.60460699921E+02  0.17793827101E+03  0.20346161208E+03  0.00000000000E+00 0. -1.
</event>
<event>
 7    1  0.6146596E-006  0.3632696E+02  0.7818608E-02  0.1618142E+00
          2   -1    0    0  502    0  0.00000000000E+00  0.00000000000E+00  0.14873927799E+04  0.14873927799E+04  0.00000000000E+00 0. -1.
          1   -1    0    0  501    0 -0.00000000000E+00 -0.00000000000E+00 -0.89408621985E+03  0.89408621985E+03  0.00000000000E+00 0. -1.
         25    2    1    2    0    0  0.37236273808E+02 -0.17210184660E+02  0.22279416634E+03  0.25873871003E+03  0.12500299584E+03 0.  0.
          2    1    1    2  501    0 -0.36018645297E+02 -0.47426202030E+01 -0.87564031740E+03  0.87639363343E+03  0.00000000000E+00 0. -1.
          1    1    1    2  502    0 -0.12176285115E+01  0.21952804863E+02  0.12461527111E+04  0.12463466563E+04  0.00000000000E+00 0. -1.
         22    1    3    3    0    0 -0.42784559900E+02 -0.21496877231E+02  0.55904728339E+02  0.73606881113E+02  0.00000000000E+00 0.  1.
         22    1    3    3    0    0  0.80020833708E+02  0.42866925712E+01  0.16688943800E+03  0.18513182892E+03  0.00000000000E+00 0.  1.
</event>
<event>
 7    1  0.6146596E-006  0.1294124E+03  0.7818608E-02  0.1258914E+00
          2   -1    0    0  502    0  0.00000000000E+00  0.00000000000E+00  0.17494405401E+04  0.17494405401E+04  0.00000000000E+00 0. -1.
          1   -1    0    0  501    0 -0.00000000000E+00 -0.00000000000E+00 -0.30209036932E+02  0.30209036932E+02  0.00000000000E+00 0. -1.
         25    2    1    2    0    0 -0.59454405655E+01  0.58088407810E+02  0.70021104519E+03  0.71367440667E+03  0.12500415809E+03 0.  0.
          2    1    1    2  501    0  0.11799944392E+03  0.53138405900E+02  0.25669271766E+03  0.28746949446E+03  0.00000000000E+00 0. -1.
          1    1    1    2  502    0 -0.11205400335E+03 -0.11122681371E+03  0.76232774030E+03  0.77850567589E+03  0.00000000000E+00 0. -1.
         22    1    3    3    0    0 -0.25555767311E+02 -0.14081301543E+02  0.48429640326E+03  0.48517459384E+03  0.00000000000E+00 0.  1.
         22    1    3    3    0    0  0.19610326745E+02  0.72169709353E+02  0.21591464193E+03  0.22849981283E+03  0.00000000000E+00 0.  1.
</event>
<event>
 7    1  0.6146596E-006  0.1558600E+03  0.7818608E-02  0.1213445E+00
          2   -1    0    0  502    0  0.00000000000E+00  0.00000000000E+00  0.77151447638E+03  0.77151447638E+03  0.00000000000E+00 0. -1.
          1   -1    0    0  501    0 -0.00000000000E+00 -0.00000000000E+00 -0.78018669737E+03  0.78018669737E+03  0.00000000000E+00 0. -1.
         25    2    1    2    0    0 -0.73674921349E+02 -0.23319931936E+03 -0.90325302175E+02  0.28912468274E+03  0.12499802146E+03 0.  0.
          2    1    1    2  501    0  0.95201029729E+02  0.81925270884E+02 -0.57490915686E+03  0.58846879672E+03  0.00000000000E+00 0. -1.
          1    1    1    2  502    0 -0.21526108381E+02  0.15127404848E+03  0.65656223805E+03  0.67410769430E+03  0.00000000000E+00 0. -1.
         22    1    3    3    0    0 -0.10799239147E+02  0.50481011893E+01  0.16669035756E+02  0.20493014537E+02  0.00000000000E+00 0.  1.
         22    1    3    3    0    0 -0.62875682202E+02 -0.23824742055E+03 -0.10699433793E+03  0.26863166820E+03  0.00000000000E+00 0.  1.
</event>
<event>
 7    1  0.6146596E-006  0.1140622E+03  0.7818608E-02  0.1396063E+00
          2   -1    0    0  502    0  0.00000000000E+00  0.00000000000E+00  0.14775924020E+03  0.14775924020E+03  0.00000000000E+00 0. -1.
          1   -1    0    0  501    0 -0.00000000000E+00 -0.00000000000E+00 -0.15056181707E+04  0.15056181707E+04  0.00000000000E+00 0. -1.
         25    2    1    2    0    0  0.71520083628E+02  0.60923483015E+02 -0.33298321320E+03  0.36787117876E+03  0.12499836297E+03 0.  0.
          2    1    1    2  501    0  0.31115890913E+02 -0.75076875606E+01 -0.11292367217E+04  0.11296902839E+04  0.00000000000E+00 0. -1.
          1    1    1    2  502    0 -0.10263597454E+03 -0.53415795455E+02  0.10436100439E+03  0.15581594819E+03  0.00000000000E+00 0. -1.
         22    1    3    3    0    0 -0.17924064060E+02 -0.20294348868E+02 -0.24280498632E+02  0.36368602973E+02  0.00000000000E+00 0.  1.
         22    1    3    3    0    0  0.89444147688E+02  0.81217831883E+02 -0.30870271457E+03  0.33150257579E+03  0.00000000000E+00 0.  1.
</event>
<event>
 7    1  0.6146596E-006  0.2817076E+03  0.7818608E-02  0.1261978E+00
          2   -1    0    0  502    0  0.00000000000E+00  0.00000000000E+00  0.63589455344E+03  0.63589455344E+03  0.00000000000E+00 0. -1.
          1   -1    0    0  501    0 -0.00000000000E+00 -0.00000000000E+00 -0.55483516881E+03  0.55483516881E+03  0.00000000000E+00 0. -1.
         25    2    1    2    0    0 -0.21565217574E+03 -0.23593857388E+03  0.27029128081E+03  0.43687114618E+03  0.12500460124E+03 0.  0.
          2    1    1    2  501    0  0.18827064570E+03  0.20361345212E+03 -0.42875264681E+03  0.51062031497E+03  0.00000000000E+00 0. -1.
          1    1    1    2  502    0  0.27381530044E+02  0.32325121761E+02  0.23952075062E+03  0.24323826110E+03  0.00000000000E+00 0. -1.
         22    1    3    3    0    0 -0.11929370484E+03 -0.20042567746E+03  0.22685527720E+03  0.32536864783E+03  0.00000000000E+00 0.  1.
         22    1    3    3    0    0 -0.96358470903E+02 -0.35512896427E+02  0.43436003611E+02  0.11150249834E+03  0.00000000000E+00 0.  1.
</event>
<event>
 7    1  0.6146596E-006  0.3385487E+02  0.7818608E-02  0.1574058E+00
          2   -1    0    0  502    0  0.00000000000E+00  0.00000000000E+00  0.13662177536E+04  0.13662177536E+04  0.00000000000E+00 0. -1.
          1   -1    0    0  501    0 -0.00000000000E+00 -0.00000000000E+00 -0.86729627606E+03  0.86729627606E+03  0.00000000000E+00 0. -1.
         25    2    1    2    0    0  0.15030539916E+02  0.59150193909E+02  0.24103111518E+02  0.14117310067E+03  0.12499688715E+03 0.  0.
          2    1    1    2  501    0  0.22801986087E+01 -0.33674754052E+02 -0.80822424203E+03  0.80892868275E+03  0.00000000000E+00 0. -1.
          1    1    1    2  502    0 -0.17310738525E+02 -0.25475439856E+02  0.12830426081E+04  0.12834122463E+04  0.00000000000E+00 0. -1.
         22    1    3    3    0    0  0.41238091938E+02  0.34654898438E+01 -0.36220516646E+02  0.54995596848E+02  0.00000000000E+00 0. -1.
         22    1    3    3    0    0 -0.26207552022E+02  0.55684704065E+02  0.60323628164E+02  0.86177503820E+02  0.00000000000E+00 0. -1.
</event>
<event>
 7    1  0.6146596E-006  0.5061258E+02  0.7818608E-02  0.1445390E+00
          2   -1    0    0  502    0  0.00000000000E+00  0.00000000000E+00  0.25098428186E+04  0.25098428186E+04  0.00000000000E+00 0. -1.
          1   -1    0    0  501    0 -0.00000000000E+00 -0.00000000000E+00 -0.14169982237E+03  0.14169982237E+03  0.00000000000E+00 0. -1.
         25    2    1    2    0    0  0.19428836825E+02  0.76097581097E+02  0.69121698285E+03  0.70680598255E+03  0.12500183215E+03 0.  0.
          2    1    1    2  501    0 -0.39810349895E+02 -0.31123389959E+02 -0.12878837281E+03  0.13834729607E+03  0.00000000000E+00 0. -1.
          1    1    1    2  502    0  0.20381513070E+02 -0.44974191138E+02  0.18057143862E+04  0.18063893623E+04  0.00000000000E+00 0. -1.
         22    1    3    3    0    0 -0.47574490489E+01  0.71734719037E+02  0.16459382878E+03  0.17960966485E+03  0.00000000000E+00 0. -1.
         22    1    3    3    0    0  0.24186285874E+02  0.43628620608E+01  0.52662315407E+03  0.52719631770E+03  0.00000000000E+00 0. -1.
</event>
<event>
 7    1  0.6146596E-006  0.6546211E+02  0.7818608E-02  0.1405440E+00
          2   -1    0    0  502    0  0.00000000000E+00  0.00000000000E+00  0.69432431516E+03  0.69432431516E+03  0.00000000000E+00 0. -1.
          1   -1    0    0  501    0 -0.00000000000E+00 -0.00000000000E+00 -0.40117247260E+03  0.40117247260E+03  0.00000000000E+00 0. -1.
         25    2    1    2    0    0  0.10220026203E+03  0.47807573582E+01 -0.28522297226E+03  0.32778790236E+03  0.12500006330E+03 0.  0.
          2    1    1    2  501    0 -0.52238196489E+02  0.88425940251E+01 -0.86167062800E+02  0.10115227804E+03  0.00000000000E+00 0. -1.
          1    1    1    2  502    0 -0.49962065545E+02 -0.13623351383E+02  0.66454187762E+03  0.66655660735E+03  0.00000000000E+00 0. -1.
         22    1    3    3    0    0 -0.25628405473E+02  0.95883351069E+01 -0.21934931905E+02  0.35069824277E+02  0.00000000000E+00 0.  1.
         22    1    3    3    0    0  0.12782866751E+03 -0.48075777487E+01 -0.26328804035E+03  0.29271807808E+03  0.00000000000E+00 0.  1.
</event>
<event>
 7    1  0.6146596E-006  0.9316013E+02  0.7818608E-02  0.1312203E+00
          2   -1    0    0  502    0  0.00000000000E+00  0.00000000000E+00  0.16815538120E+04  0.16815538120E+04  0.00000000000E+00 0. -1.
          1   -1    0    0  501    0 -0.00000000000E+00 -0.00000000000E+00 -0.15507807321E+04  0.15507807321E+04  0.00000000000E+00 0. -1.
         25    2    1    2    0    0 -0.44991134375E+02  0.12368829836E+03 -0.49958760833E+02  0.18826445082E+03  0.12499851333E+03 0.  0.
          2    1    1    2  501    0  0.71933667341E+02 -0.34657182695E+02 -0.14292122965E+04  0.14314410087E+04  0.00000000000E+00 0. -1.
          1    1    1    2  502    0 -0.26942532966E+02 -0.89031115662E+02  0.16099441372E+04  0.16126290846E+04  0.00000000000E+00 0. -1.
         22    1    3    3    0    0 -0.79986567039E+02  0.39220861085E+02 -0.34524720025E+02  0.95541002421E+02  0.00000000000E+00 0.  1.
         22    1    3    3    0    0  0.34995432663E+02  0.84467437272E+02 -0.15434040808E+02  0.92723448395E+02  0.00000000000E+00 0.  1.
</event>
<event>
 7    1  0.6146596E-006  0.1247329E+03  0.7818608E-02  0.1314198E+00
          2   -1    0    0  502    0  0.00000000000E+00  0.00000000000E+00  0.12064788750E+04  0.12064788750E+04  0.00000000000E+00 0. -1.
          1   -1    0    0  501    0 -0.00000000000E+00 -0.00000000000E+00 -0.26890018308E+03  0.26890018308E+03  0.00000000000E+00 0. -1.
         25    2    1    2    0    0  0.16449036458E+03 -0.66789961361E+02  0.10182339514E+04  0.10411269726E+04  0.12500805753E+03 0.  0.
          2    1    1    2  501    0 -0.12084299037E+03  0.27732205907E+02 -0.23690368834E+03  0.26738635178E+03  0.00000000000E+00 0. -1.
          1    1    1    2  502    0 -0.43647374209E+02  0.39057755454E+02  0.15624842887E+03  0.16686573364E+03  0.00000000000E+00 0. -1.
         22    1    3    3    0    0  0.18838709759E+02  0.32818206203E+02  0.25286342147E+03  0.25567917702E+03  0.00000000000E+00 0.  1.
         22    1    3    3    0    0  0.14565165482E+03 -0.99608167564E+02  0.76537052990E+03  0.78544779562E+03  0.00000000000E+00 0.  1.
</event>
<event>
 7    1  0.6146596E-006  0.2753831E+03  0.7818608E-02  0.1230239E+00
          2   -1    0    0  502    0  0.00000000000E+00  0.00000000000E+00  0.13065148481E+04  0.13065148481E+04  0.00000000000E+00 0. -1.
          1   -1    0    0  501    0 -0.00000000000E+00 -0.00000000000E+00 -0.31718286105E+03  0.31718286105E+03  0.00000000000E+00 0. -1.
         25    2    1    2    0    0  0.18438024030E+03 -0.18451688414E+03  0.10181044351E+03  0.30664803551E+03  0.12500039092E+03 0.  0.
          2    1    1    2  501    0 -0.23690388360E+03  0.15629180354E+03 -0.11972950079E+03  0.30803527603E+03  0.00000000000E+00 0. -1.
          1    1    1    2  502    0  0.52523643301E+02  0.28225080598E+02  0.10072510443E+04  0.10090143976E+04  0.00000000000E+00 0. -1.
         22    1    3    3    0    0  0.51506290272E+01 -0.74185875449E+01  0.48203446134E+02  0.49042192444E+02  0.00000000000E+00 0. -1.
         22    1    3    3    0    0  0.17922961128E+03 -0.17709829660E+03  0.53606997372E+02  0.25760584307E+03  0.00000000000E+00 0. -1.
</event>
<event>
 7    1  0.6146596E-006  0.1126087E+03  0.7818608E-02  0.1427873E+00
          2   -1    0    0  502    0  0.00000000000E+00  0.00000000000E+00  0.18849331336E+04  0.18849331336E+04  0.00000000000E+00 0. -1.
          1   -1    0    0  501    0 -0.00000000000E+00 -0.00000000000E+00 -0.87841470973E+03  0.87841470973E+03  0.00000000000E+00 0. -1.
         25    2    1    2    0    0 -0.72238959504E+02 -0.10659330095E+03 -0.19927460281E+03  0.26817158776E+03  0.12500013631E+03 0.  0.
          2    1    1    2  501    0  0.47901683282E+02  0.99634578899E+02 -0.63986486386E+03  0.64934479637E+03  0.00000000000E+00 0. -1.
          1    1    1    2  502    0  0.24337276222E+02  0.69587220547E+01  0.18456578905E+04  0.18458314592E+04  0.00000000000E+00 0. -1.
         22    1    3    3    0    0 -0.49499075357E+02 -0.13445211451E+03 -0.16450799138E+03  0.21815226055E+03  0.00000000000E+00 0.  1.
         22    1    3    3    0    0 -0.22739884148E+02  0.27858813556E+02 -0.34766611431E+02  0.50019327207E+02  0.00000000000E+00 0.  1.
</event>
<event>
 7    1  0.6146596E-006  0.8990900E+02  0.7818608E-02  0.1384213E+00
          2   -1    0    0  502    0  0.00000000000E+00  0.00000000000E+00  0.32037317792E+03  0.32037317792E+03  0.00000000000E+00 0. -1.
          1   -1    0    0  501    0 -0.00000000000E+00 -0.00000000000E+00 -0.69070953891E+03  0.69070953891E+03  0.00000000000E+00 0. -1.
         25    2    1    2    0    0  0.13006437320E+03  0.26855245021E+02 -0.21189272672E+03  0.27957333247E+03  0.12499910092E+03 0.  0.
          2    1    1    2  501    0 -0.42196484162E+02 -0.14638254492E+02 -0.43694414245E+03  0.43922090728E+03  0.00000000000E+00 0. -1.
          1    1    1    2  502    0 -0.87867889033E+02 -0.12216990529E+02  0.27850050817E+03  0.29228847708E+03  0.00000000000E+00 0. -1.
         22    1    3    3    0    0  0.21784729048E+02 -0.44268033788E+02 -0.35789214803E+02  0.60951629440E+02  0.00000000000E+00 0. -1.
         22    1    3    3    0    0  0.10827964415E+03  0.71123278809E+02 -0.17610351192E+03  0.21862170303E+03  0.00000000000E+00 0. -1.
</event>
<event>
 7    1  0.6146596E-006  0.1309725E+03  0.7818608E-02  0.1311936E+00
          2   -1    0    0  502    0  0.00000000000E+00  0.00000000000E+00  0.23634286057E+04  0.23634286057E+04  0.00000000000E+00 0. -1.
          1   -1    0    0  501    0 -0.00000000000E+00 -0.00000000000E+00 -0.34748821379E+02  0.34748821379E+02  0.00000000000E+00 0. -1.
         25    2    1    2    0    0  0.16994834730E+03 -0.32985768638E+02  0.83485237282E+03  0.86172715579E+03  0.12499881974E+03 0.  0.
          2    1    1    2  501    0 -0.55456113344E+02 -0.12879250438E+02  0.24540731367E+02  0.61995992573E+02  0.00000000000E+00 0. -1.
          1    1    1    2  502    0 -0.11449223396E+03  0.45865019075E+02  0.14692866802E+04  0.14744542787E+04  0.00000000000E+00 0. -1.
         22    1    3    3    0    0  0.16621291463E+03  0.28815977040E+00  0.54057840925E+03  0.56555444705E+03  0.00000000000E+00 0.  1.
         22    1    3    3    0    0  0.37354326737E+01 -0.33273928408E+02  0.29427396357E+03  0.29617270874E+03  0.00000000000E+00 0.  1.
</event>
<event>
 7    1  0.6146596E-006  0.6747312E+02  0.7818608E-02  0.1438312E+00
          2   -1    0    0  502    0  0.00000000000E+00  0.00000000000E+00  0.63159340996E+03  0.63159340996E+03  0.00000000000E+00 0. -1.
          1   -1    0    0  501    0 -0.00000000000E+00 -0.00000000000E+00 -0.24775588325E+03  0.24775588325E+03  0.00000000000E+00 0. -1.
         25    2    1    2    0    0 -0.43343538305E+02 -0.94750878259E+02  0.10866173188E+03  0.19566449337E+03  0.12498332187E+03 0.  0.
          2    1    1    2  501    0  0.11935945734E+02  0.37175653990E+02 -0.20011596841E+03  0.20388942312E+03  0.00000000000E+00 0. -1.
          1    1    1    2  502    0  0.31407592570E+02  0.57575224269E+02  0.47529176324E+03  0.47979537672E+03  0.00000000000E+00 0. -1.
         22    1    3    3    0    0 -0.44277301012E+01  0.20937999064E+02  0.60974018270E+02  0.64620704906E+02  0.00000000000E+00 0. -1.
         22    1    3    3    0    0 -0.38915808204E+02 -0.11568887732E+03  0.47687713610E+02  0.13104378846E+03  0.00000000000E+00 0. -1.
</event>
<event>
 7    1  0.6146596E-006  0.1023514E+03  0.7818608E-02  0.1292402E+00
          2   -1    0    0  502    0  0.00000000000E+00  0.00000000000E+00  0.38424653444E+03  0.38424653444E+03  0.00000000000E+00 0. -1.
          1   -1    0    0  501    0 -0.00000000000E+00 -0.00000000000E+00 -0.15447218419E+03  0.15447218419E+03  0.00000000000E+00 0. -1.
         25    2    1    2    0    0  0.39602289915E+02  0.88143338244E+02  0.21114857682E+02  0.15940003630E+03  0.12499977965E+03 0.  0.
          2    1    1    2  501    0  0.45541271877E+02 -0.10684245925E+03 -0.34374657037E+02  0.12112363762E+03  0.00000000000E+00 0. -1.
          1    1    1    2  502    0 -0.85143561792E+02  0.18699121007E+02  0.24303414961E+03  0.25819504472E+03  0.00000000000E+00 0. -1.
         22    1    3    3    0    0 -0.94152804678E+01  0.88172313620E+02  0.50701683113E+02  0.10214531348E+03  0.00000000000E+00 0.  1.
         22    1    3    3    0    0  0.49017570383E+02 -0.28975376472E-01 -0.29586825431E+02  0.57254722817E+02  0.00000000000E+00 0.  1.
</event>
<event>
 7    1  0.6146596E-006  0.4918153E+02  0.7818608E-02  0.1486910E+00
          2   -1    0    0  502    0  0.00000000000E+00  0.00000000000E+00  0.70154044614E+03  0.70154044614E+03  0.00000000000E+00 0. -1.
          1   -1    0    0  501    0 -0.00000000000E+00 -0.00000000000E+00 -0.62011277358E+03  0.62011277358E+03  0.00000000000E+00 0. -1.
         25    2    1    2    0    0  0.15474320470E+02  0.17181002841E+02 -0.17731716816E+03  0.21817724589E+03  0.12500116418E+03 0.  0.
          2    1    1    2  501    0 -0.22797401002E+00 -0.51637608182E+02 -0.42026299008E+03  0.42342351775E+03  0.00000000000E+00 0. -1.
          1    1    1    2  502    0 -0.15246346460E+02  0.34456605342E+02  0.67900783080E+03  0.68005245608E+03  0.00000000000E+00 0. -1.
         22    1    3    3    0    0 -0.43044116709E+02 -0.29373762815E+02 -0.66395108311E+02  0.84403343137E+02  0.00000000000E+00 0.  1.
         22    1    3    3    0    0  0.58518437179E+02  0.46554765656E+02 -0.11092205985E+03  0.13377390275E+03  0.00000000000E+00 0.  1.
</event>
<event>
 7    1  0.6146596E-006  0.3956259E+02  0.7818608E-02  0.1542874E+00
          2   -1    0    0  502    0  0.00000000000E+00  0.00000000000E+00  0.10981527499E+02  0.10981527499E+02  0.00000000000E+00 0. -1.
          1   -1    0    0  501    0 -0.00000000000E+00 -0.00000000000E+00 -0.26831637776E+04  0.26831637776E+04  0.00000000000E+00 0. -1.
         25    2    1    2    0    0  0.10007567951E+02 -0.49096083535E+02 -0.13923714839E+04  0.13988706859E+04  0.12502107759E+03 0.  0.
          2    1    1    2  501    0 -0.30906364799E+02  0.24691202393E+02 -0.12524457908E+04  0.12530703563E+04  0.00000000000E+00 0. -1.
          1    1    1    2  502    0  0.20898796849E+02  0.24404881142E+02 -0.27364975464E+02  0.42204263000E+02  0.00000000000E+00 0. -1.
         22    1    3    3    0    0  0.21780524967E+01 -0.67656802227E+02 -0.13525596632E+04  0.13542524984E+04  0.00000000000E+00 0. -1.
         22    1    3    3    0    0  0.78295154540E+01  0.18560718693E+02 -0.39811820625E+02  0.44618187458E+02  0.00000000000E+00 0. -1.
</event>
<event>
 7    1  0.6146596E-006  0.7155536E+02  0.7818608E-02  0.1402394E+00
          2   -1    0    0  502    0  0.00000000000E+00  0.00000000000E+00  0.14258827987E+04  0.14258827987E+04  0.00000000000E+00 0. -1.
          1   -1    0    0  501    0 -0.00000000000E+00 -0.00000000000E+00 -0.64433037732E+03  0.64433037732E+03  0.00000000000E+00 0. -1.
         25    2    1    2    0    0 -0.42969447749E+02 -0.21528954224E+02  0.28750760746E+03  0.31716828742E+03  0.12500091554E+03 0.  0.
          2    1    1    2  501    0  0.25914376556E+02  0.66959032682E+02 -0.62692612589E+03  0.63102411546E+03  0.00000000000E+00 0. -1.
          1    1    1    2  502    0  0.17055071193E+02 -0.45430078458E+02  0.11209709398E+04  0.11220207731E+04  0.00000000000E+00 0. -1.
         22    1    3    3    0    0  0.15921659973E+02  0.41299290088E+02  0.65582104131E+02  0.79121065465E+02  0.00000000000E+00 0. -1.
         22    1    3    3    0    0 -0.58891107722E+02 -0.62828244312E+02  0.22192550333E+03  0.23804722195E+03  0.00000000000E+00 0. -1.
</event>
<event>
 7    1  0.6146596E-006  0.1710235E+03  0.7818608E-02  0.1220826E+00
          2   -1    0    0  502    0  0.00000000000E+00  0.00000000000E+00  0.13627700720E+04  0.13627700720E+04  0.00000000000E+00 0. -1.
          1   -1    0    0  501    0 -0.00000000000E+00 -0.00000000000E+00 -0.29582482853E+04  0.29582482853E+04  0.00000000000E+00 0. -1.
         25    2    1    2    0    0  0.76300559980E+02  0.15202750015E+03 -0.15851774398E+03  0.26398344633E+03  0.12500099411E+03 0.  0.
          2    1    1    2  501    0  0.76477406616E+02 -0.73236189289E+02 -0.27403317718E+04  0.27423768072E+04  0.00000000000E+00 0. -1.
          1    1    1    2  502    0 -0.15277796660E+03 -0.78791310857E+02  0.13033713024E+04  0.13146581037E+04  0.00000000000E+00 0. -1.
         22    1    3    3    0    0 -0.22380929388E+02  0.32209795474E+02 -0.82059141334E+02  0.90950973613E+02  0.00000000000E+00 0.  1.
         22    1    3    3    0    0  0.98681489368E+02  0.11981770467E+03 -0.76458602644E+02  0.17303247272E+03  0.00000000000E+00 0.  1.
</event>
<event>
 7    1  0.6146596E-006  0.7604663E+02  0.7818608E-02  0.1441917E+00
          2   -1    0    0  502    0  0.00000000000E+00  0.00000000000E+00  0.18254500566E+04  0.18254500566E+04  0.00000000000E+00 0. -1.
          1   -1    0    0  501    0 -0.00000000000E+00 -0.00000000000E+00 -0.16428788613E+04  0.16428788613E+04  0.00000000000E+00 0. -1.
         25    2    1    2    0    0  0.92616484499E+02 -0.16507319113E+02 -0.34541928232E+02  0.16021314410E+03  0.12499920781E+03 0.  0.
          2    1    1    2  501    0 -0.17666232112E+02  0.28724397987E+02 -0.15444992589E+04  0.15448673560E+04  0.00000000000E+00 0. -1.
          1    1    1    2  502    0 -0.74950252387E+02 -0.12217078874E+02  0.17616123824E+04  0.17632484179E+04  0.00000000000E+00 0. -1.
         22    1    3    3    0    0  0.65360249788E+02 -0.54183916751E+02  0.21313938739E+02  0.87533668217E+02  0.00000000000E+00 0.  1.
         22    1    3    3    0    0  0.27256234712E+02  0.37676597638E+02 -0.55855866971E+02  0.72679475888E+02  0.00000000000E+00 0.  1.
</event>
<event>
 7    1  0.6146596E-006  0.1513541E+03  0.7818608E-02  0.1271965E+00
          2   -1    0    0  502    0  0.00000000000E+00  0.00000000000E+00  0.90238535748E+03  0.90238535748E+03  0.00000000000E+00 0. -1.
          1   -1    0    0  501    0 -0.00000000000E+00 -0.00000000000E+00 -0.27593506227E+03  0.27593506227E+03  0.00000000000E+00 0. -1.
         25    2    1    2    0    0 -0.51907087885E+02 -0.81679594689E+02  0.13111532152E+03  0.20538320184E+03  0.12500052039E+03 0.  0.
          2    1    1    2  501    0 -0.13486894450E+02 -0.70273501083E+02 -0.22383079266E+03  0.23499039346E+03  0.00000000000E+00 0. -1.
          1    1    1    2  502    0  0.65393982335E+02  0.15195309577E+03  0.71916576635E+03  0.73794682446E+03  0.00000000000E+00 0. -1.
         22    1    3    3    0    0  0.30873466576E+02 -0.55580596330E+02  0.25066392566E+02  0.68342502611E+02  0.00000000000E+00 0. -1.
         22    1    3    3    0    0 -0.82780554461E+02 -0.26098998359E+02  0.10604892895E+03  0.13704069923E+03  0.00000000000E+00 0. -1.
</event>
<event>
 7    1  0.6146596E-006  0.4113621E+02  0.7818608E-02  0.1574351E+00
          2   -1    0    0  502    0  0.00000000000E+00  0.00000000000E+00  0.25734771827E+03  0.25734771827E+03  0.00000000000E+00 0. -1.
          1   -1    0    0  501    0 -0.00000000000E+00 -0.00000000000E+00 -0.86193760395E+03  0.86193760395E+03  0.00000000000E+00 0. -1.
         25    2    1    2    0    0  0.15869423325E+02  0.53415963189E+01 -0.19795893865E+03  0.23471989455E+03  0.12500126502E+03 0.  0.
          2    1    1    2  501    0 -0.39955811966E+02 -0.13090791375E+02 -0.64424121400E+03  0.64561178548E+03  0.00000000000E+00 0. -1.
          1    1    1    2  502    0  0.24086388641E+02  0.77491950562E+01  0.23761026697E+03  0.23895364218E+03  0.00000000000E+00 0. -1.
         22    1    3    3    0    0  0.46490527381E+01  0.38824499122E+02 -0.60236084285E+01  0.39563105059E+02  0.00000000000E+00 0.  1.
         22    1    3    3    0    0  0.11220370587E+02 -0.33482902803E+02 -0.19193533022E+03  0.19515678949E+03  0.00000000000E+00 0.  1.
</event>
<event>
 7    1  0.6146596E-006  0.1286719E+03  0.7818608E-02  0.1375890E+00
          2   -1    0    0  502    0  0.00000000000E+00  0.00000000000E+00  0.84663799940E+03  0.84663799940E+03  0.00000000000E+00 0. -1.
          1   -1    0    0  501    0 -0.00000000000E+00 -0.00000000000E+00 -0.10315598754E+04  0.10315598754E+04  0.00000000000E+00 0. -1.
         25    2    1    2    0    0 -0.10038547939E+03 -0.17597626781E+02  0.16035689071E+03  0.22743291685E+03  0.12499791330E+03 0.  0.
          2    1    1    2  501    0 -0.29803479399E+02 -0.15077071827E+02 -0.99083707773E+03  0.99139985883E+03  0.00000000000E+00 0. -1.
          1    1    1    2  502    0  0.13018895879E+03  0.32674698608E+02  0.64555831106E+03  0.65936509909E+03  0.00000000000E+00 0. -1.
         22    1    3    3    0    0 -0.91457122471E+02 -0.65421147092E+02  0.11684119808E+03  0.16216102277E+03  0.00000000000E+00 0.  1.
         22    1    3    3    0    0 -0.89283569169E+01  0.47823520311E+02  0.43515692630E+02  0.65271894083E+02  0.00000000000E+00 0.  1.
</event>
<event>
 7    1  0.6146596E-006  0.1191412E+03  0.7818608E-02  0.1251432E+00
          2   -1    0    0  502    0  0.00000000000E+00  0.00000000000E+00  0.91364185965E+03  0.91364185965E+03  0.00000000000E+00 0. -1.
          1   -1    0    0  501    0 -0.00000000000E+00 -0.00000000000E+00 -0.10842239114E+04  0.10842239114E+04  0.00000000000E+00 0. -1.
         25    2    1    2    0    0  0.10788193893E+03  0.12796281625E+02  0.24562136094E+03  0.29623900409E+03  0.12500174808E+03 0.  0.
          2    1    1    2  501    0 -0.43185522268E+02  0.10243723781E+03 -0.10491540401E+04  0.10550272873E+04  0.00000000000E+00 0. -1.
          1    1    1    2  502    0 -0.64696416659E+02 -0.11523351943E+03  0.63295062743E+03  0.64659947966E+03  0.00000000000E+00 0. -1.
         22    1    3    3    0    0  0.86526088205E+02  0.16420936166E+02  0.25707043936E+03  0.27173814947E+03  0.00000000000E+00 0.  1.
         22    1    3    3    0    0  0.21355850723E+02 -0.36246545411E+01 -0.11449078417E+02  0.24500854623E+02  0.00000000000E+00 0.  1.
</event>
<event>
 7    1  0.6146596E-006  0.9916963E+02  0.7818608E-02  0.1283277E+00
          2   -1    0    0  502    0  0.00000000000E+00  0.00000000000E+00  0.26859894923E+04  0.26859894923E+04  0.00000000000E+00 0. -1.
          1   -1    0    0  501    0 -0.00000000000E+00 -0.00000000000E+00 -0.87215211352E+03  0.87215211352E+03  0.00000000000E+00 0. -1.
         25    2    1    2    0    0  0.24970344495E+02  0.16099413072E+02 -0.70726982802E+01  0.12867809370E+03  0.12500127812E+03 0.  0.
          2    1    1    2  501    0 -0.65236987016E+02  0.74691041188E+02 -0.80027567576E+03  0.80639678405E+03  0.00000000000E+00 0. -1.
          1    1    1    2  502    0  0.40266642521E+02 -0.90790454260E+02  0.26211857528E+04  0.26230667281E+04  0.00000000000E+00 0. -1.
         22    1    3    3    0    0 -0.14754923234E+02 -0.42199080475E+02  0.24959297649E+02  0.51199967692E+02  0.00000000000E+00 0.  1.
         22    1    3    3    0    0  0.39725267729E+02  0.58298493548E+02 -0.32031995929E+02  0.77478126005E+02  0.00000000000E+00 0.  1.
</event>
<event>
 7    1  0.6146596E-006  0.1674247E+03  0.7818608E-02  0.1301071E+00
          2   -1    0    0  502    0  0.00000000000E+00  0.00000000000E+00  0.79276497793E+03  0.79276497793E+03  0.00000000000E+00 0. -1.
          1   -1    0    0  501    0 -0.00000000000E+00 -0.00000000000E+00 -0.78071830482E+03  0.78071830482E+03  0.00000000000E+00 0. -1.
         25    2    1    2    0    0 -0.15894808835E+03  0.41255205776E+02  0.17058085318E+03  0.26774775572E+03  0.12499818569E+03 0.  0.
          2    1    1    2  501    0  0.14307550602E+03 -0.87801459886E+02 -0.72142620660E+03  0.74069931035E+03  0.00000000000E+00 0. -1.
          1    1    1    2  502    0  0.15872582325E+02  0.46546254110E+02  0.56289202653E+03  0.56503621669E+03  0.00000000000E+00 0. -1.
         22    1    3    3    0    0  0.31053755187E+01  0.44099933703E+02  0.33382784199E+02  0.55397272411E+02  0.00000000000E+00 0.  1.
         22    1    3    3    0    0 -0.16205346387E+03 -0.28447279267E+01  0.13719806898E+03  0.21235048331E+03  0.00000000000E+00 0.  1.
</event>
<event>
 7    1  0.6146596E-006  0.6015808E+02  0.7818608E-02  0.1418263E+00
          2   -1    0    0  502    0  0.00000000000E+00  0.00000000000E+00  0.18698962908E+04  0.18698962908E+04  0.00000000000E+00 0. -1.
          1   -1    0    0  501    0 -0.00000000000E+00 -0.00000000000E+00 -0.79563874057E+03  0.79563874057E+03  0.00000000000E+00 0. -1.
         25    2    1    2    0    0  0.57762562331E+02  0.87262670868E+02  0.14039667363E+03  0.21514224786E+03  0.12499469395E+03 0.  0.
          2    1    1    2  501    0 -0.46725580712E+02 -0.37471393324E+02 -0.75669804717E+03  0.75906476653E+03  0.00000000000E+00 0. -1.
          1    1    1    2  502    0 -0.11036981619E+02 -0.49791277544E+02  0.16905589238E+04  0.16913280170E+04  0.00000000000E+00 0. -1.
         22    1    3    3    0    0  0.81820104414E+02  0.89168936646E+02  0.14672412973E+03  0.19019358295E+03  0.00000000000E+00 0. -1.
         22    1    3    3    0    0 -0.24057542084E+02 -0.19062657771E+01 -0.63274561025E+01  0.24948664915E+02  0.00000000000E+00 0. -1.
</event>
<event>
 7    1  0.6146596E-006  0.5067490E+02  0.7818608E-02  0.1544670E+00
          2   -1    0    0  502    0  0.00000000000E+00  0.00000000000E+00  0.41641060917E+02  0.41641060917E+02  0.00000000000E+00 0. -1.
          1   -1    0    0  501    0 -0.00000000000E+00 -0.00000000000E+00 -0.13844741540E+04  0.13844741540E+04  0.00000000000E+00 0. -1.
         25    2    1    2    0    0 -0.47583847517E+02  0.50111730341E+02 -0.10629474181E+04  0.10725006662E+04  0.12500022884E+03 0.  0.
          2    1    1    2  501    0  0.24187243295E+02 -0.54540593629E+01 -0.29875617404E+03  0.29978329011E+03  0.00000000000E+00 0. -1.
          1    1    1    2  502    0  0.23396604222E+02 -0.44657670978E+02  0.18870499101E+02  0.53831258601E+02  0.00000000000E+00 0. -1.
         22    1    3    3    0    0  0.88406160231E+01  0.60447740684E+02 -0.84250492211E+03  0.84471689318E+03  0.00000000000E+00 0.  1.
         22    1    3    3    0    0 -0.56424463540E+02 -0.10336010343E+02 -0.22044249602E+03  0.22778377301E+03  0.00000000000E+00 0.  1.
</event>
<event>
 7    1  0.6146596E-006  0.4906489E+02  0.7818608E-02  0.1580438E+00
          2   -1    0    0  502    0  0.00000000000E+00  0.00000000000E+00  0.13280760075E+04  0.13280760075E+04  0.00000000000E+00 0. -1.
          1   -1    0    0  501    0 -0.00000000000E+00 -0.00000000000E+00 -0.39860426380E+03  0.39860426380E+03  0.00000000000E+00 0. -1.
         25    2    1    2    0    0 -0.32462439758E+02 -0.12885297891E+02  0.99881331461E+03  0.10072099423E+04  0.12499595773E+03 0.  0.
          2    1    1    2  501    0  0.49079558349E+02  0.10026847220E+01 -0.39255473531E+03  0.39561222003E+03  0.00000000000E+00 0. -1.
          1    1    1    2  502    0 -0.16617118590E+02  0.11882613169E+02  0.32321316440E+03  0.32385810900E+03  0.00000000000E+00 0. -1.
         22    1    3    3    0    0 -0.11661209099E+02 -0.33021935865E+02  0.94861558759E+03  0.94926180006E+03  0.00000000000E+00 0. -1.
         22    1    3    3    0    0 -0.20801230659E+02  0.20136637974E+02  0.50197727023E+02  0.57948142198E+02  0.00000000000E+00 0. -1.
</event>
<event>
 7    1  0.6146596E-006  0.1125176E+03  0.7818608E-02  0.1377338E+00
          2   -1    0    0  502    0  0.00000000000E+00  0.00000000000E+00  0.66933060109E+03  0.66933060109E+03  0.00000000000E+00 0. -1.
          1   -1    0    0  501    0 -0.00000000000E+00 -0.00000000000E+00 -0.11949871368E+04  0.11949871368E+04  0.00000000000E+00 0. -1.
         25    2    1    2    0    0  0.12269460450E+03  0.83666280242E+02  0.79494391782E+02  0.20978177811E+03  0.12504008828E+03 0.  0.
          2    1    1    2  501    0 -0.96543558925E+02 -0.56448873768E+02 -0.11263919120E+04  0.11319301540E+04  0.00000000000E+00 0. -1.
          1    1    1    2  502    0 -0.26151045577E+02 -0.27217406474E+02  0.52124098446E+03  0.52260580582E+03  0.00000000000E+00 0. -1.
         22    1    3    3    0    0 -0.57928790907E+01 -0.24504690490E+02  0.34672777841E+01  0.25417696973E+02  0.00000000000E+00 0. -1.
         22    1    3    3    0    0  0.12848748359E+03  0.10817097073E+03  0.76027113998E+02  0.18436408113E+03  0.00000000000E+00 0. -1.
</event>
<event>
 7    1  0.6146596E-006  0.3381255E+02  0.7818608E-02  0.1618368E+00
          2   -1    0    0  502    0  0.00000000000E+00  0.00000000000E+00  0.37307800702E+03  0.37307800702E+03  0.00000000000E+00 0. -1.
          1   -1    0    0  501    0 -0.00000000000E+00 -0.00000000000E+00 -0.23657058497E+04  0.23657058497E+04  0.00000000000E+00 0. -1.
         25    2    1    2    0    0 -0.34483645634E+01 -0.56786258331E+02  0.14379644820E+03  0.19884420490E+03  0.12500011583E+03 0.  0.
          2    1    1    2  501    0 -0.16593806404E+01  0.33755576682E+02 -0.23373698270E+04  0.23376141471E+04  0.00000000000E+00 0. -1.
          1    1    1    2  502    0  0.51077452038E+01  0.23030681649E+02  0.20094553614E+03  0.20232550470E+03  0.00000000000E+00 0. -1.
         22    1    3    3    0    0  0.50296278402E+02 -0.24905615542E+02  0.11908206764E+03  0.13164552457E+03  0.00000000000E+00 0.  1.
         22    1    3    3    0    0 -0.53744642965E+02 -0.31880642790E+02  0.24714380559E+02  0.67198680333E+02  0.00000000000E+00 0.  1.
</event>
<event>
 7    1  0.6146596E-006  0.1185561E+03  0.7818608E-02  0.1292708E+00
          2   -1    0    0  502    0  0.00000000000E+00  0.00000000000E+00  0.12612597248E+04  0.12612597248E+04  0.00000000000E+00 0. -1.
          1   -1    0    0  501    0 -0.00000000000E+00 -0.00000000000E+00 -0.10650004705E+04  0.10650004705E+04  0.00000000000E+00 0. -1.
         25    2    1    2    0    0  0.88719118982E+02 -0.60881791469E+01  0.70636968717E+02  0.16888629119E+03  0.12499940002E+03 0.  0.
          2    1    1    2  501    0 -0.98670493904E+02 -0.68292318815E+02 -0.10110906199E+04  0.10181865982E+04  0.00000000000E+00 0. -1.
          1    1    1    2  502    0  0.99513749217E+01  0.74380497962E+02  0.11367129055E+04  0.11391873058E+04  0.00000000000E+00 0. -1.
         22    1    3    3    0    0  0.11046101715E+03 -0.36090761724E+02  0.50380903095E+02  0.12665865461E+03  0.00000000000E+00 0. -1.
         22    1    3    3    0    0 -0.21741898164E+02  0.30002582577E+02  0.20256065622E+02  0.42227636585E+02  0.00000000000E+00 0. -1.
</event>
<event>
 7    1  0.6146596E-006  0.5402915E+02  0.7818608E-02  0.1440589E+00
          2   -1    0    0  502    0  0.00000000000E+00  0.00000000000E+00  0.21826432457E+04  0.21826432457E+04  0.00000000000E+00 0. -1.
          1   -1    0    0  501    0 -0.00000000000E+00 -0.00000000000E+00 -0.88404484034E+02  0.88404484034E+02  0.00000000000E+00 0. -1.
         25    2    1    2    0    0 -0.59745908118E+02 -0.18800392109E-02  0.66525024386E+03  0.67952440705E+03  0.12500383705E+03 0.  0.
          2    1    1    2  501    0  0.35255743813E+02 -0.41207281297E+02 -0.71794583643E+02  0.89974828392E+02  0.00000000000E+00 0. -1.
          1    1    1    2  502    0  0.24490164305E+02  0.41209161336E+02  0.15007831015E+04  0.15015484943E+04  0.00000000000E+00 0. -1.
         22    1    3    3    0    0  0.26804400295E+02 -0.35252254569E+02  0.24955102734E+03  0.25345001987E+03  0.00000000000E+00 0. -1.
         22    1    3    3    0    0 -0.86550308413E+02  0.35250374530E+02  0.41569921652E+03  0.42607438718E+03  0.00000000000E+00 0. -1.
</event>
<event>
 7    1  0.6146596E-006  0.1257447E+03  0.7818608E-02  0.1396756E+00
          2   -1    0    0  502    0  0.00000000000E+00  0.00000000000E+00  0.34121549773E+04  0.34121549773E+04  0.00000000000E+00 0. -1.
          1   -1    0    0  501    0 -0.00000000000E+00 -0.00000000000E+00 -0.38037824445E+03  0.38037824445E+03  0.00000000000E+00 0. -1.
         25    2    1    2    0    0  0.67556340737E+02  0.95153858197E+02  0.50673336297E+03  0.53481024641E+03  0.12500073047E+03 0.  0.
          2    1    1    2  501    0 -0.18726510783E+02  0.21979666570E+02 -0.36437589079E+03  0.36551823175E+03  0.00000000000E+00 0. -1.
          1    1    1    2  502    0 -0.48829829954E+02 -0.11713352477E+03  0.28894192607E+04  0.28922047436E+04  0.00000000000E+00 0. -1.
         22    1    3    3    0    0  0.84697159548E+02  0.90988687929E+02  0.50110672301E+03  0.51629497190E+03  0.00000000000E+00 0.  1.
         22    1    3    3    0    0 -0.17140818811E+02  0.41651702675E+01  0.56266399562E+01  0.18515274507E+02  0.00000000000E+00 0.  1.
</event>
<event>
 7    1  0.6146596E-006  0.1777229E+03  0.7818608E-02  0.1190781E+00
          2   -1    0    0  502    0  0.00000000000E+00  0.00000000000E+00  0.63465851713E+03  0.63465851713E+03  0.00000000000E+00 0. -1.
          1   -1    0    0  501    0 -0.00000000000E+00 -0.00000000000E+00 -0.24364658970E+04  0.24364658970E+04  0.00000000000E+00 0. -1.
         25    2    1    2    0    0  0.27365547407E+02  0.29969747804E+03 -0.41353584937E+03  0.52650221142E+03  0.12500091357E+03 0.  0.
          2    1    1    2  501    0 -0.58633363066E+02 -0.12797141703E+03 -0.19506786831E+04  0.19557509759E+04  0.00000000000E+00 0. -1.
          1    1    1    2  502    0  0.31267815659E+02 -0.17172606101E+03  0.56240715268E+03  0.58887122677E+03  0.00000000000E+00 0. -1.
         22    1    3    3    0    0 -0.83912522672E+01  0.24573691988E+03 -0.38250465933E+03  0.45471624263E+03  0.00000000000E+00 0.  1.
         22    1    3    3    0    0  0.35756799674E+02  0.53960558156E+02 -0.31031190038E+02  0.71785968786E+02  0.00000000000E+00 0.  1.
</event>
<event>
 7    1  0.6146596E-006  0.5275869E+02  0.7818608E-02  0.1523285E+00
          2   -1    0    0  502    0  0.00000000000E+00  0.00000000000E+00  0.15819845300E+03  0.15819845300E+03  0.00000000000E+00 0. -1.
          1   -1    0    0  501    0 -0.00000000000E+00 -0.00000000000E+00 -0.58035584228E+03  0.58035584228E+03  0.00000000000E+00 0. -1.
         25    2    1    2    0    0  0.88752971989E+01 -0.25706713612E+02 -0.17465207854E+03  0.21648892222E+03  0.12499799550E+03 0.  0.
          2    1    1    2  501    0  0.18523394797E+02 -0.20194330232E+02 -0.37906797379E+03  0.38005717449E+03  0.00000000000E+00 0. -1.
          1    1    1    2  502    0 -0.27398691996E+02  0.45901043844E+02  0.13156266306E+03  0.14200819857E+03  0.00000000000E+00 0. -1.
         22    1    3    3    0    0 -0.24233408756E+02  0.36114331514E+02 -0.11981946320E+03  0.12746845415E+03  0.00000000000E+00 0. -1.
         22    1    3    3    0    0  0.33108705955E+02 -0.61821045126E+02 -0.54832615340E+02  0.89020468070E+02  0.00000000000E+00 0. -1.
</event>
<event>
 7    1  0.6146596E-006  0.4784989E+02  0.7818608E-02  0.1577813E+00
          2   -1    0    0  502    0  0.00000000000E+00  0.00000000000E+00  0.61109558746E+02  0.61109558746E+02  0.00000000000E+00 0. -1.
          1   -1    0    0  501    0 -0.00000000000E+00 -0.00000000000E+00 -0.26737621817E+04  0.26737621817E+04  0.00000000000E+00 0. -1.
         25    2    1    2    0    0 -0.35163440328E+01 -0.47511853175E+02 -0.93589249610E+03  0.94540372027E+03  0.12499475660E+03 0.  0.
          2    1    1    2  501    0 -0.17605596846E+02  0.44843036295E+02 -0.17307561019E+04  0.17314264464E+04  0.00000000000E+00 0. -1.
          1    1    1    2  502    0  0.21121940879E+02  0.26688168799E+01  0.53995975037E+02  0.58041573809E+02  0.00000000000E+00 0. -1.
         22    1    3    3    0    0  0.40405037363E+02  0.12546367509E+02 -0.59418890295E+03  0.59569323546E+03  0.00000000000E+00 0. -1.
         22    1    3    3    0    0 -0.43921381396E+02 -0.60058220684E+02 -0.34170359315E+03  0.34971048481E+03  0.00000000000E+00 0. -1.
</event>
<event>
 7    1  0.6146596E-006  0.7598463E+02  0.7818608E-02  0.1409662E+00
          2   -1    0    0  502    0  0.00000000000E+00  0.00000000000E+00  0.64495522306E+03  0.64495522306E+03  0.00000000000E+00 0. -1.
          1   -1    0    0  501    0 -0.00000000000E+00 -0.00000000000E+00 -0.13013995343E+03  0.13013995343E+03  0.00000000000E+00 0. -1.
         25    2    1    2    0    0 -0.73035132785E+02  0.30277387673E+02  0.17014763469E+03  0.22544232881E+03  0.12499270061E+03 0.  0.
          2    1    1    2  501    0  0.75508065118E+02  0.12815287589E+02 -0.86956695555E+02  0.11587565057E+03  0.00000000000E+00 0. -1.
          1    1    1    2  502    0 -0.24729323324E+01 -0.43092675263E+02  0.43162433050E+03  0.43377719711E+03  0.00000000000E+00 0. -1.
         22    1    3    3    0    0 -0.76130912604E+02  0.59218757551E+02  0.64922215804E+02  0.11626552027E+03  0.00000000000E+00 0. -1.
         22    1    3    3    0    0  0.30957798187E+01 -0.28941369877E+02  0.10522541888E+03  0.10917680854E+03  0.00000000000E+00 0. -1.
</event>
<event>
 7    1  0.6146596E-006  0.7758323E+02  0.7818608E-02  0.1390318E+00
          2   -1    0    0  502    0  0.00000000000E+00  0.00000000000E+00  0.23435996860E+04  0.23435996860E+04  0.00000000000E+00 0. -1.
          1   -1    0    0  501    0 -0.00000000000E+00 -0.00000000000E+00 -0.45292434943E+03  0.45292434943E+03  0.00000000000E+00 0. -1.
         25    2    1    2    0    0 -0.72924484627E+02 -0.23798252818E+02  0.24120461764E+03  0.28229314456E+03  0.12500165837E+03 0.  0.
          2    1    1    2  501    0  0.44339089258E+02  0.63930117043E+02 -0.42858587621E+03  0.43559025240E+03  0.00000000000E+00 0. -1.
          1    1    1    2  502    0  0.28585395370E+02 -0.40131864224E+02  0.20780565951E+04  0.20786406385E+04  0.00000000000E+00 0. -1.
         22    1    3    3    0    0 -0.66751778078E+01  0.46693347681E+02  0.54971011016E+02  0.72433685316E+02  0.00000000000E+00 0. -1.
         22    1    3    3    0    0 -0.66249306819E+02 -0.70491600499E+02  0.18623360663E+03  0.20985945924E+03  0.00000000000E+00 0. -1.
</event>
<event>
 7    1  0.6146596E-006  0.6065358E+02  0.7818608E-02  0.1455995E+00
          2   -1    0    0  502    0  0.00000000000E+00  0.00000000000E+00  0.40660037832E+04  0.40660037832E+04  0.00000000000E+00 0. -1.
          1   -1    0    0  501    0 -0.00000000000E+00 -0.00000000000E+00 -0.23001842205E+04  0.23001842205E+04  0.00000000000E+00 0. -1.
         25    2    1    2    0    0 -0.50346668709E+02 -0.84093283344E+02 -0.30076095523E+03  0.34012715993E+03  0.12499146122E+03 0.  0.
          2    1    1    2  501    0  0.14363902819E+02  0.35298557310E+02 -0.19793296346E+04  0.19796964697E+04  0.00000000000E+00 0. -1.
          1    1    1    2  502    0  0.35982765890E+02  0.48794726033E+02  0.40459101526E+04  0.40463643741E+04  0.00000000000E+00 0. -1.
         22    1    3    3    0    0  0.36806347916E+01 -0.60871959107E+02 -0.26360274454E+03  0.27056487097E+03  0.00000000000E+00 0.  1.
         22    1    3    3    0    0 -0.54027303501E+02 -0.23221324236E+02 -0.37158210691E+02  0.69562288955E+02  0.00000000000E+00 0.  1.
</event>
<event>
 7    1  0.6146596E-006  0.1902135E+03  0.7818608E-02  0.1238533E+00
          2   -1    0    0  502    0  0.00000000000E+00  0.00000000000E+00  0.17505776668E+03  0.17505776668E+03  0.00000000000E+00 0. -1.
          1   -1    0    0  501    0 -0.00000000000E+00 -0.00000000000E+00 -0.10423382085E+04  0.10423382085E+04  0.00000000000E+00 0. -1.
         25    2    1    2    0    0 -0.13845572825E+03 -0.48747995079E+02 -0.25972610590E+03  0.32347104433E+03  0.12501804160E+03 0.  0.
          2    1    1    2  501    0 -0.20987873992E+02 -0.76462560188E+02 -0.67547935925E+03  0.68011718015E+03  0.00000000000E+00 0. -1.
          1    1    1    2  502    0  0.15944360224E+03  0.12521055527E+03  0.67925023358E+02  0.21380775066E+03  0.00000000000E+00 0. -1.
         22    1    3    3    0    0 -0.18024962859E+02  0.92028722789E+01 -0.14770389995E+03  0.14908398373E+03  0.00000000000E+00 0. -1.
         22    1    3    3    0    0 -0.12043076539E+03 -0.57950867358E+02 -0.11202220595E+03  0.17438706060E+03  0.00000000000E+00 0. -1.
</event>
<event>
 7    1  0.6146596E-006  0.2451513E+03  0.7818608E-02  0.1283005E+00
          2   -1    0    0  502    0  0.00000000000E+00  0.00000000000E+00  0.28723947067E+04  0.28723947067E+04  0.00000000000E+00 0. -1.
          1   -1    0    0  501    0 -0.00000000000E+00 -0.00000000000E+00 -0.13030816283E+04  0.13030816283E+04  0.00000000000E+00 0. -1.
         25    2    1    2    0    0  0.18307102550E+03  0.19522413356E+03  0.31638747931E+03  0.43284994488E+03  0.12502229809E+03 0.  0.
          2    1    1    2  501    0 -0.39741511254E+02  0.10685830566E+01 -0.12386180339E+04  0.12392558911E+04  0.00000000000E+00 0. -1.
          1    1    1    2  502    0 -0.14332951425E+03 -0.19629271662E+03  0.24915436330E+04  0.25033704990E+04  0.00000000000E+00 0. -1.
         22    1    3    3    0    0  0.16704418212E+03  0.15753729977E+03  0.18390338600E+03  0.29418058227E+03  0.00000000000E+00 0.  1.
         22    1    3    3    0    0  0.16026843384E+02  0.37686833793E+02  0.13248409330E+03  0.13866936262E+03  0.00000000000E+00 0.  1.
</event>
<event>
 7    1  0.6146596E-006  0.5541085E+02  0.7818608E-02  0.1436668E+00
          2   -1    0    0  502    0  0.00000000000E+00  0.00000000000E+00  0.33827833629E+03  0.33827833629E+03  0.00000000000E+00 0. -1.
          1   -1    0    0  501    0 -0.00000000000E+00 -0.00000000000E+00 -0.31905703367E+04  0.31905703367E+04  0.00000000000E+00 0. -1.
         25    2    1    2    0    0 -0.14325919535E+02 -0.99812216299E+02 -0.77490288871E+02  0.17831815202E+03  0.12499963191E+03 0.  0.
          2    1    1    2  501    0 -0.34688008562E+01  0.55087889436E+02 -0.30604033538E+04  0.30609010758E+04  0.00000000000E+00 0. -1.
          1    1    1    2  502    0  0.17794720391E+02  0.44724326863E+02  0.28560164221E+03  0.28962944519E+03  0.00000000000E+00 0. -1.
         22    1    3    3    0    0 -0.51223687047E+02 -0.38979771286E+02  0.10439028459E+02  0.65209370487E+02  0.00000000000E+00 0.  1.
         22    1    3    3    0    0  0.36897767512E+02 -0.60832445014E+02 -0.87929317331E+02  0.11310878153E+03  0.00000000000E+00 0.  1.
</event>
<event>
 7    1  0.6146596E-006  0.4401016E+02  0.7818608E-02  0.1493159E+00
          2   -1    0    0  502    0  0.00000000000E+00  0.00000000000E+00  0.12144647336E+04  0.12144647336E+04  0.00000000000E+00 0. -1.
          1   -1    0    0  501    0 -0.00000000000E+00 -0.00000000000E+00 -0.16100055018E+03  0.16100055018E+03  0.00000000000E+00 0. -1.
         25    2    1    2    0    0 -0.55548255897E+02  0.12675584285E+02  0.11859718711E+03  0.18148535866E+03  0.12500145378E+03 0.  0.
          2    1    1    2  501    0  0.18163431727E+02 -0.35989137833E+02 -0.12595214393E+03  0.13224625081E+03  0.00000000000E+00 0. -1.
          1    1    1    2  502    0  0.37384824171E+02  0.23313553548E+02  0.10608191402E+04  0.10617336743E+04  0.00000000000E+00 0. -1.
         22    1    3    3    0    0  0.38534433073E+02  0.13692680549E+02  0.21195409487E+02  0.46061235504E+02  0.00000000000E+00 0. -1.
         22    1    3    3    0    0 -0.94082688970E+02 -0.10170962642E+01  0.97401777620E+02  0.13542412315E+03  0.00000000000E+00 0. -1.
</event>
<event>
 7    1  0.6146596E-006  0.3209996E+03  0.7818608E-02  0.1171255E+00
          2   -1    0    0  502    0  0.00000000000E+00  0.00000000000E+00  0.17954890833E+04  0.17954890833E+04  0.00000000000E+00 0. -1.
          1   -1    0    0  501    0 -0.00000000000E+00 -0.00000000000E+00 -0.18014997440E+03  0.18014997440E+03  0.00000000000E+00 0. -1.
         25    2    1    2    0    0  0.34456436816E+03 -0.26049182390E+02  0.22373886095E+03  0.43021894277E+03  0.12500438837E+03 0.  0.
          2    1    1    2  501    0 -0.28560630031E+03  0.10310616009E+03  0.23294027843E+03  0.38270486323E+03  0.00000000000E+00 0. -1.
          1    1    1    2  502    0 -0.58958067853E+02 -0.77056977700E+02  0.11586599695E+04  0.11627152517E+04  0.00000000000E+00 0. -1.
         22    1    3    3    0    0  0.45576399750E+02 -0.31109595580E+02  0.83133990882E+02  0.99781138454E+02  0.00000000000E+00 0.  1.
         22    1    3    3    0    0  0.29898796841E+03  0.50604131895E+01  0.14060487007E+03  0.33043780432E+03  0.00000000000E+00 0.  1.
</event>
<event>
 7    1  0.6146596E-006  0.9653625E+02  0.7818608E-02  0.1461874E+00
          2   -1    0    0  502    0  0.00000000000E+00  0.00000000000E+00  0.24383930806E+03  0.24383930806E+03  0.00000000000E+00 0. -1.
          1   -1    0    0  501    0 -0.00000000000E+00 -0.00000000000E+00 -0.21778703578E+03  0.21778703578E+03  0.00000000000E+00 0. -1.
         25    2    1    2    0    0  0.98182820652E+02 -0.64785707661E+02 -0.13217958530E+03  0.21663858029E+03  0.12499510995E+03 0.  0.
          2    1    1    2  501    0 -0.21114998457E+02  0.89705115075E+01 -0.27792735354E+02  0.36038165533E+02  0.00000000000E+00 0. -1.
          1    1    1    2  502    0 -0.77067822195E+02  0.55815196153E+02  0.18602459293E+03  0.20894959802E+03  0.00000000000E+00 0. -1.
         22    1    3    3    0    0  0.70265028149E+02 -0.64148769079E+02 -0.15412220589E+03  0.18112397164E+03  0.00000000000E+00 0.  1.
         22    1    3    3    0    0  0.27917792503E+02 -0.63693858176E+00  0.21942620591E+02  0.35514608648E+02  0.00000000000E+00 0.  1.
</event>
<event>
 7    1  0.6146596E-006  0.6521163E+02  0.7818608E-02  0.1453488E+00
          2   -1    0    0  502    0  0.00000000000E+00  0.00000000000E+00  0.25810735289E+02  0.25810735289E+02  0.00000000000E+00 0. -1.
          1   -1    0    0  501    0 -0.00000000000E+00 -0.00000000000E+00 -0.13222829941E+04  0.13222829941E+04  0.00000000000E+00 0. -1.
         25    2    1    2    0    0 -0.16264156089E+02 -0.94623413614E+02 -0.62581777402E+03  0.64535833770E+03  0.12498553751E+03 0.  0.
          2    1    1    2  501    0 -0.43548331285E+01  0.35838236271E+02 -0.62365304736E+03  0.62469710038E+03  0.00000000000E+00 0. -1.
          1    1    1    2  502    0  0.20618989218E+02  0.58785177342E+02 -0.47001437487E+02  0.78038291353E+02  0.00000000000E+00 0. -1.
         22    1    3    3    0    0  0.21438029216E+02 -0.86891258334E+02 -0.57332448875E+03  0.58026773930E+03  0.00000000000E+00 0.  1.
         22    1    3    3    0    0 -0.37702185305E+02 -0.77321552792E+01 -0.52493285269E+02  0.65090598402E+02  0.00000000000E+00 0.  1.
</event>
<event>
 7    1  0.6146596E-006  0.8208399E+02  0.7818608E-02  0.1412405E+00
          2   -1    0    0  502    0  0.00000000000E+00  0.00000000000E+00  0.14852675950E+03  0.14852675950E+03  0.00000000000E+00 0. -1.
          1   -1    0    0  501    0 -0.00000000000E+00 -0.00000000000E+00 -0.20556310577E+04  0.20556310577E+04  0.00000000000E+00 0. -1.
         25    2    1    2    0    0  0.60284293292E+02 -0.24388059085E+02 -0.81243895252E+03  0.82456686133E+03  0.12499793514E+03 0.  0.
          2    1    1    2  501    0 -0.87651042168E+02 -0.35541744498E+01 -0.12328555616E+04  0.12359725616E+04  0.00000000000E+00 0. -1.
          1    1    1    2  502    0  0.27366748876E+02  0.27942233534E+02  0.13819021597E+03  0.14361839418E+03  0.00000000000E+00 0. -1.
         22    1    3    3    0    0  0.19507627705E+02 -0.73540503278E+02 -0.39350053227E+03  0.40078850041E+03  0.00000000000E+00 0.  1.
         22    1    3    3    0    0  0.40776665586E+02  0.49152444193E+02 -0.41893842025E+03  0.42377836092E+03  0.00000000000E+00 0.  1.
</event>
<event>
 7    1  0.6146596E-006  0.2482908E+02  0.7818608E-02  0.1664581E+00
          2   -1    0    0  502    0  0.00000000000E+00  0.00000000000E+00  0.30052735820E+03  0.30052735820E+03  0.00000000000E+00 0. -1.
          1   -1    0    0  501    0 -0.00000000000E+00 -0.00000000000E+00 -0.17103682472E+03  0.17103682472E+03  0.00000000000E+00 0. -1.
         25    2    1    2    0    0 -0.29470070159E+02  0.39045797302E+02 -0.51343424324E+02  0.14372105113E+03  0.12500613582E+03 0.  0.
          2    1    1    2  501    0  0.12108669393E+02 -0.21501196038E+02 -0.70812605912E+02  0.74988975600E+02  0.00000000000E+00 0. -1.
          1    1    1    2  502    0  0.17361400766E+02 -0.17544601264E+02  0.25164656372E+03  0.25285415619E+03  0.00000000000E+00 0. -1.
         22    1    3    3    0    0 -0.10971880899E+02  0.64077317771E+02  0.18217542542E+02  0.67514173915E+02  0.00000000000E+00 0.  1.
         22    1    3    3    0    0 -0.18498189260E+02 -0.25031520469E+02 -0.69560966866E+02  0.76206877211E+02  0.00000000000E+00 0.  1.
</event>
<event>
 7    1  0.6146596E-006  0.9857884E+02  0.7818608E-02  0.1324509E+00
          2   -1    0    0  502    0  0.00000000000E+00  0.00000000000E+00  0.16430380393E+03  0.16430380393E+03  0.00000000000E+00 0. -1.
          1   -1    0    0  501    0 -0.00000000000E+00 -0.00000000000E+00 -0.35184897676E+03  0.35184897676E+03  0.00000000000E+00 0. -1.
         25    2    1    2    0    0 -0.12895245234E+02 -0.38006360954E+02 -0.19396090745E+03  0.23421683249E+03  0.12500368067E+03 0.  0.
          2    1    1    2  501    0 -0.48612186686E+02  0.11504286378E+03 -0.82090529089E+02  0.14945521124E+03  0.00000000000E+00 0. -1.
          1    1    1    2  502    0  0.61507431920E+02 -0.77036502824E+02  0.88506263715E+02  0.13248073696E+03  0.00000000000E+00 0. -1.
         22    1    3    3    0    0  0.24266655807E+02  0.21247218303E+02 -0.48884998524E+01  0.32622266943E+02  0.00000000000E+00 0.  1.
         22    1    3    3    0    0 -0.37161901041E+02 -0.59253579258E+02 -0.18907240760E+03  0.20159456555E+03  0.00000000000E+00 0.  1.
</event>
<event>
 7    1  0.6146596E-006  0.7519756E+02  0.7818608E-02  0.1451318E+00
          2   -1    0    0  502    0  0.00000000000E+00  0.00000000000E+00  0.15301371517E+04  0.15301371517E+04  0.00000000000E+00 0. -1.
          1   -1    0    0  501    0 -0.00000000000E+00 -0.00000000000E+00 -0.10053847689E+04  0.10053847689E+04  0.00000000000E+00 0. -1.
         25    2    1    2    0    0  0.68544423437E+02 -0.73372575212E+02  0.19943857461E+03  0.25589606364E+03  0.12500071026E+03 0.  0.
          2    1    1    2  501    0 -0.30319441660E+02  0.96244958494E+01 -0.97583616425E+03  0.97635450474E+03  0.00000000000E+00 0. -1.
          1    1    1    2  502    0 -0.38224981777E+02  0.63748079363E+02  0.13011499725E+04  0.13032713523E+04  0.00000000000E+00 0. -1.
         22    1    3    3    0    0 -0.19904630538E+02  0.22395964979E+02  0.38211341156E+02  0.48558008167E+02  0.00000000000E+00 0. -1.
         22    1    3    3    0    0  0.88449053974E+02 -0.95768540192E+02  0.16122723345E+03  0.20733805547E+03  0.00000000000E+00 0. -1.
</event>
<event>
 7    1  0.6146596E-006  0.1964299E+03  0.7818608E-02  0.1213082E+00
          2   -1    0    0  502    0  0.00000000000E+00  0.00000000000E+00  0.30352198283E+04  0.30352198283E+04  0.00000000000E+00 0. -1.
          1   -1    0    0  501    0 -0.00000000000E+00 -0.00000000000E+00 -0.27531581114E+04  0.27531581114E+04  0.00000000000E+00 0. -1.
         25    2    1    2    0    0  0.12068226680E+03 -0.76494842216E+02  0.37331678842E+02  0.19348012009E+03  0.12500092887E+03 0.  0.
          2    1    1    2  501    0  0.78300810050E+02  0.62270617890E+02 -0.26707387862E+04  0.26726118893E+04  0.00000000000E+00 0. -1.
          1    1    1    2  502    0 -0.19898307685E+03  0.14224224327E+02  0.29154688242E+04  0.29222859303E+04  0.00000000000E+00 0. -1.
         22    1    3    3    0    0  0.94004081390E+02  0.14571648532E+01  0.55410240037E+02  0.10912921400E+03  0.00000000000E+00 0.  1.
         22    1    3    3    0    0  0.26678185410E+02 -0.77952007070E+02 -0.18078561195E+02  0.84350906088E+02  0.00000000000E+00 0.  1.
</event>
<event>
 7    1  0.6146596E-006  0.2306440E+03  0.7818608E-02  0.1310428E+00
          2   -1    0    0  502    0  0.00000000000E+00  0.00000000000E+00  0.91023211265E+03  0.91023211265E+03  0.00000000000E+00 0. -1.
          1   -1    0    0  501    0 -0.00000000000E+00 -0.00000000000E+00 -0.49183807484E+03  0.49183807484E+03  0.00000000000E+00 0. -1.
         25    2    1    2    0    0 -0.23777140614E+03  0.96487163465E+02  0.15388051172E+03  0.32426442248E+03  0.12499275783E+03 0.  0.
          2    1    1    2  501    0  0.20503235552E+03 -0.97995027019E+02 -0.37444501010E+03  0.43800725761E+03  0.00000000000E+00 0. -1.
          1    1    1    2  502    0  0.32739050614E+02  0.15078635532E+01  0.63895853620E+03  0.63979850740E+03  0.00000000000E+00 0. -1.
         22    1    3    3    0    0 -0.15959054919E+03  0.10222240632E+03  0.15656503706E+03  0.24582753014E+03  0.00000000000E+00 0. -1.
         22    1    3    3    0    0 -0.78180856949E+02 -0.57352428547E+01 -0.26845253422E+01  0.78436892341E+02  0.00000000000E+00 0. -1.
</event>
<event>
 7    1  0.6146596E-006  0.2846601E+02  0.7818608E-02  0.1638276E+00
          2   -1    0    0  502    0  0.00000000000E+00  0.00000000000E+00  0.48848285591E+03  0.48848285591E+03  0.00000000000E+00 0. -1.
          1   -1    0    0  501    0 -0.00000000000E+00 -0.00000000000E+00 -0.13451538213E+04  0.13451538213E+04  0.00000000000E+00 0. -1.
         25    2    1    2    0    0  0.27984248452E+01  0.71231467835E+01  0.29139614206E+03  0.31717121191E+03  0.12500918229E+03 0.  0.
          2    1    1    2  501    0  0.15979956886E+02 -0.23572067544E+02 -0.13312674890E+04  0.13315720516E+04  0.00000000000E+00 0. -1.
          1    1    1    2  502    0 -0.18778381731E+02  0.16448920761E+02  0.18320038156E+03  0.18489341367E+03  0.00000000000E+00 0. -1.
         22    1    3    3    0    0  0.38877982049E+02 -0.14101645845E+02  0.26791817384E+02  0.49276316649E+02  0.00000000000E+00 0.  1.
         22    1    3    3    0    0 -0.36079557204E+02  0.21224792629E+02  0.26460432468E+03  0.26789489526E+03  0.00000000000E+00 0.  1.
</event>
<event>
 7    1  0.6146596E-006  0.1444515E+03  0.7818608E-02  0.1227779E+00
          2   -1    0    0  502    0  0.00000000000E+00  0.00000000000E+00  0.18007960517E+04  0.18007960517E+04  0.00000000000E+00 0. -1.
          1   -1    0    0  501    0 -0.00000000000E+00 -0.00000000000E+00 -0.23030636478E+04  0.23030636478E+04  0.00000000000E+00 0. -1.
         25    2    1    2    0    0 -0.15326771879E+03 -0.20186977026E+03  0.10012615733E+03  0.29982087473E+03  0.12499964709E+03 0.  0.
          2    1    1    2  501    0  0.62226330462E+02  0.12901645862E+03 -0.21987595244E+04  0.22034202525E+04  0.00000000000E+00 0. -1.
          1    1    1    2  502    0  0.91041388332E+02  0.72853311640E+02  0.15963657709E+04  0.16006185723E+04  0.00000000000E+00 0. -1.
         22    1    3    3    0    0 -0.14124389158E+03 -0.18776938868E+03  0.12706855025E+03  0.26712094020E+03  0.00000000000E+00 0. -1.
         22    1    3    3    0    0 -0.12023827211E+02 -0.14100381588E+02 -0.26942392921E+02  0.32699934527E+02  0.00000000000E+00 0. -1.
</event>
<event>
 7    1  0.6146596E-006  0.6987234E+02  0.7818608E-02  0.1413949E+00
          2   -1    0    0  502    0  0.00000000000E+00  0.00000000000E+00  0.37913121555E+03  0.37913121555E+03  0.00000000000E+00 0. -1.
          1   -1    0    0  501    0 -0.00000000000E+00 -0.00000000000E+00 -0.11038937621E+03  0.11038937621E+03  0.00000000000E+00 0. -1.
         25    2    1    2    0    0 -0.19074603018E+02  0.69241754148E+02  0.10253371912E+03  0.17690898961E+03  0.12500146419E+03 0.  0.
          2    1    1    2  501    0  0.45314908199E+02 -0.27692310182E+01 -0.60081636812E+02  0.75305462136E+02  0.00000000000E+00 0. -1.
          1    1    1    2  502    0 -0.26240305181E+02 -0.66472523130E+02  0.22628975704E+03  0.23730614001E+03  0.00000000000E+00 0. -1.
         22    1    3    3    0    0 -0.60757767483E+02 -0.20831675606E+01  0.52514312165E+02  0.80334294537E+02  0.00000000000E+00 0.  1.
         22    1    3    3    0    0  0.41683164465E+02  0.71324921708E+02  0.50019406958E+02  0.96574695075E+02  0.00000000000E+00 0.  1.
</event>
<event>
 7    1  0.6146596E-006  0.2140804E+02  0.7818608E-02  0.1725026E+00
          2   -1    0    0  502    0  0.00000000000E+00  0.00000000000E+00  0.63503838324E+03  0.63503838324E+03  0.00000000000E+00 0. -1.
          1   -1    0    0  501    0 -0.00000000000E+00 -0.00000000000E+00 -0.11458360329E+04  0.11458360329E+04  0.00000000000E+00 0. -1.
         25    2    1    2    0    0  0.14971726878E+02  0.14963835167E+01  0.16885602749E+03  0.21062784366E+03  0.12500135493E+03 0.  0.
          2    1    1    2  501    0 -0.82168506965E+01  0.19019518542E+02 -0.11245927300E+04  0.11247835646E+04  0.00000000000E+00 0. -1.
          1    1    1    2  502    0 -0.67548761817E+01 -0.20515902059E+02  0.44493905290E+03  0.44546300788E+03  0.00000000000E+00 0. -1.
         22    1    3    3    0    0 -0.13142563794E+02  0.33107571789E+02 -0.94793635277E+00  0.35633367455E+02  0.00000000000E+00 0.  1.
         22    1    3    3    0    0  0.28114290672E+02 -0.31611188272E+02  0.16980396385E+03  0.17499447620E+03  0.00000000000E+00 0.  1.
</event>
<event>
 7    1  0.6146596E-006  0.7996887E+02  0.7818608E-02  0.1399219E+00
          2   -1    0    0  502    0  0.00000000000E+00  0.00000000000E+00  0.66586907404E+03  0.66586907404E+03  0.00000000000E+00 0. -1.
          1   -1    0    0  501    0 -0.00000000000E+00 -0.00000000000E+00 -0.42463346894E+03  0.42463346894E+03  0.00000000000E+00 0. -1.
         25    2    1    2    0    0  0.65861909287E+02 -0.24893192103E+02  0.39012457428E+03  0.41566747080E+03  0.12499920287E+03 0.  0.
          2    1    1    2  501    0 -0.46773021413E+02  0.65118313034E+02 -0.40602878572E+03  0.41386892256E+03  0.00000000000E+00 0. -1.
          1    1    1    2  502    0 -0.19088887874E+02 -0.40225120931E+02  0.25713981655E+03  0.26096614962E+03  0.00000000000E+00 0. -1.
         22    1    3    3    0    0  0.21009843033E+02 -0.13664074373E+02  0.23790755332E+01  0.25174996189E+02  0.00000000000E+00 0. -1.
         22    1    3    3    0    0  0.44852066254E+02 -0.11229117730E+02  0.38774549874E+03  0.39049247461E+03  0.00000000000E+00 0. -1.
</event>
<event>
 7    1  0.6146596E-006  0.1066188E+03  0.7818608E-02  0.1389588E+00
          2   -1    0    0  502    0  0.00000000000E+00  0.00000000000E+00  0.38774391985E+03  0.38774391985E+03  0.00000000000E+00 0. -1.
          1   -1    0    0  501    0 -0.00000000000E+00 -0.00000000000E+00 -0.65197685196E+03  0.65197685196E+03  0.00000000000E+00 0. -1.
         25    2    1    2    0    0 -0.76949965204E+02  0.65909956320E+02 -0.19783898185E+03  0.25502045631E+03  0.12501900219E+03 0.  0.
          2    1    1    2  501    0  0.10161394235E+03 -0.39597858424E+02 -0.41762147324E+03  0.43162608654E+03  0.00000000000E+00 0. -1.
          1    1    1    2  502    0 -0.24663977141E+02 -0.26312097896E+02  0.35122752297E+03  0.35307422896E+03  0.00000000000E+00 0. -1.
         22    1    3    3    0    0 -0.85078818664E+02  0.93364616232E+02 -0.12938699385E+03  0.18082132376E+03  0.00000000000E+00 0.  1.
         22    1    3    3    0    0  0.81288534600E+01 -0.27454659912E+02 -0.68451987994E+02  0.74199132541E+02  0.00000000000E+00 0.  1.
</event>
<event>
 7    1  0.6146596E-006  0.1534313E+03  0.7818608E-02  0.1372810E+00
          2   -1    0    0  502    0  0.00000000000E+00  0.00000000000E+00  0.55637179870E+03  0.55637179870E+03  0.00000000000E+00 0. -1.
          1   -1    0    0  501    0 -0.00000000000E+00 -0.00000000000E+00 -0.55917170428E+03  0.55917170428E+03  0.00000000000E+00 0. -1.
         25    2    1    2    0    0  0.42121912226E+02  0.14052473974E+03 -0.16410143740E+03  0.25313081363E+03  0.12499787633E+03 0.  0.
          2    1    1    2  501    0  0.28485131185E+02 -0.37349874565E+01 -0.33835914439E+03  0.33957659433E+03  0.00000000000E+00 0. -1.
          1    1    1    2  502    0 -0.70607043410E+02 -0.13678975228E+03  0.49966067621E+03  0.52283609502E+03  0.00000000000E+00 0. -1.
         22    1    3    3    0    0 -0.43818539007E+02  0.32304803726E+02 -0.50088673379E+02  0.73976617288E+02  0.00000000000E+00 0.  1.
         22    1    3    3    0    0  0.85940451233E+02  0.10821993601E+03 -0.11401276402E+03  0.17915419634E+03  0.00000000000E+00 0.  1.
</event>
<event>
 7    1  0.6146596E-006  0.5666838E+02  0.7818608E-02  0.1437712E+00
          2   -1    0    0  502    0  0.00000000000E+00  0.00000000000E+00  0.89994487132E+02  0.89994487132E+02  0.00000000000E+00 0. -1.
          1   -1    0    0  501    0 -0.00000000000E+00 -0.00000000000E+00 -0.72736475818E+03  0.72736475818E+03  0.00000000000E+00 0. -1.
         25    2    1    2    0    0  0.26217427428E+02 -0.31483481397E+02 -0.24336864878E+02  0.13377519434E+03  0.12499982611E+03 0.  0.
          2    1    1    2  501    0 -0.30575723816E+02 -0.35297427909E+02 -0.61486517825E+03  0.61663601154E+03  0.00000000000E+00 0. -1.
          1    1    1    2  502    0  0.43582963883E+01  0.66780909306E+02  0.18317720774E+01  0.66948039434E+02  0.00000000000E+00 0. -1.
         22    1    3    3    0    0  0.24907938168E+02 -0.68243170954E+02 -0.50640415089E+02  0.88554996505E+02  0.00000000000E+00 0.  1.
         22    1    3    3    0    0  0.13094892597E+01  0.36759689557E+02  0.26303550211E+02  0.45220197834E+02  0.00000000000E+00 0.  1.
</event>
<event>
 7    1  0.6146596E-006  0.1041405E+03  0.7818608E-02  0.1413092E+00
          2   -1    0    0  502    0  0.00000000000E+00  0.00000000000E+00  0.34794075852E+03  0.34794075852E+03  0.00000000000E+00 0. -1.
          1   -1    0    0  501    0 -0.00000000000E+00 -0.00000000000E+00 -0.15657427262E+04  0.15657427262E+04  0.00000000000E+00 0. -1.
         25    2    1    2    0    0  0.12413424441E+03  0.35710354557E+02 -0.35882389390E+03  0.40132801933E+03  0.12500020884E+03 0.  0.
          2    1    1    2  501    0 -0.93696795350E+02 -0.39428277330E+02 -0.11827621893E+04  0.11871226032E+04  0.00000000000E+00 0. -1.
          1    1    1    2  502    0 -0.30437449056E+02  0.37179227729E+01  0.32378411549E+03  0.32523286226E+03  0.00000000000E+00 0. -1.
         22    1    3    3    0    0  0.13376367479E+03 -0.77611976076E+01 -0.28845931084E+03  0.31805931977E+03  0.00000000000E+00 0. -1.
         22    1    3    3    0    0 -0.96294303883E+01  0.43471552164E+02 -0.70364583062E+02  0.83268699561E+02  0.00000000000E+00 0. -1.
</event>
<event>
 7    1  0.6146596E-006  0.7884688E+02  0.7818608E-02  0.1424189E+00
          2   -1    0    0  502    0  0.00000000000E+00  0.00000000000E+00  0.27372897830E+04  0.27372897830E+04  0.00000000000E+00 0. -1.
          1   -1    0    0  501    0 -0.00000000000E+00 -0.00000000000E+00 -0.32761540798E+02  0.32761540798E+02  0.00000000000E+00 0. -1.
         25    2    1    2    0    0 -0.49802307014E+02 -0.13600679433E+02  0.36524522656E+03  0.38947974519E+03  0.12500059248E+03 0.  0.
          2    1    1    2  501    0 -0.15315798927E+02 -0.33879985776E+02 -0.26285303508E+01  0.37273801855E+02  0.00000000000E+00 0. -1.
          1    1    1    2  502    0  0.65118105941E+02  0.47480665209E+02  0.23419115460E+04  0.23432977768E+04  0.00000000000E+00 0. -1.
         22    1    3    3    0    0 -0.79985534585E+01 -0.59224550220E+02  0.94950875729E+02  0.11219266022E+03  0.00000000000E+00 0.  1.
         22    1    3    3    0    0 -0.41803753555E+02  0.45623870787E+02  0.27029435083E+03  0.27728708497E+03  0.00000000000E+00 0.  1.
</event>
<event>
 7    1  0.6146596E-006  0.3051848E+02  0.7818608E-02  0.1619869E+00
          2   -1    0    0  502    0  0.00000000000E+00  0.00000000000E+00  0.19423445086E+04  0.19423445086E+04  0.00000000000E+00 0. -1.
          1   -1    0    0  501    0 -0.00000000000E+00 -0.00000000000E+00 -0.46047152081E+02  0.46047152081E+02  0.00000000000E+00 0. -1.
         25    2    1    2    0    0  0.51851322694E+01  0.13611422175E+02  0.24467749755E+03  0.27514071817E+03  0.12499272209E+03 0.  0.
          2    1    1    2  501    0  0.17755586249E+02 -0.25649250368E+02 -0.22794659770E+02  0.38636011718E+02  0.00000000000E+00 0. -1.
          1    1    1    2  502    0 -0.22940718518E+02  0.12037828193E+02  0.16744145188E+04  0.16746149308E+04  0.00000000000E+00 0. -1.
         22    1    3    3    0    0  0.58202545889E+02  0.12885577486E+02  0.18933485956E+03  0.19849751510E+03  0.00000000000E+00 0. -1.
         22    1    3    3    0    0 -0.53017413620E+02  0.72584468919E+00  0.55342637994E+02  0.76643203075E+02  0.00000000000E+00 0. -1.
</event>
<event>
 7    1  0.6146596E-006  0.1705383E+03  0.7818608E-02  0.1204316E+00
          2   -1    0    0  502    0  0.00000000000E+00  0.00000000000E+00  0.14585317339E+04  0.14585317339E+04  0.00000000000E+00 0. -1.
          1   -1    0    0  501    0 -0.00000000000E+00 -0.00000000000E+00 -0.13700448838E+03  0.13700448838E+03  0.00000000000E+00 0. -1.
         25    2    1    2    0    0 -0.10682792533E+03  0.11298346405E+03  0.52031834167E+03  0.55724513583E+03  0.12495397532E+03 0.  0.
          2    1    1    2  501    0 -0.20097329301E+01 -0.17758016139E+03 -0.44566778802E+02  0.18309819912E+03  0.00000000000E+00 0. -1.
          1    1    1    2  502    0  0.10883765826E+03  0.64596697340E+02  0.84577568266E+03  0.85519288733E+03  0.00000000000E+00 0. -1.
         22    1    3    3    0    0  0.21066584655E+02  0.51269865797E+02  0.11257763731E+03  0.12548356287E+03  0.00000000000E+00 0.  1.
         22    1    3    3    0    0 -0.12789450999E+03  0.61713598258E+02  0.40774070436E+03  0.43176157296E+03  0.00000000000E+00 0.  1.
</event>
<event>
 7    1  0.6146596E-006  0.1882823E+03  0.7818608E-02  0.1231524E+00
          2   -1    0    0  502    0  0.00000000000E+00  0.00000000000E+00  0.41800521667E+03  0.41800521667E+03  0.00000000000E+00 0. -1.
          1   -1    0    0  501    0 -0.00000000000E+00 -0.00000000000E+00 -0.90720812469E+03  0.90720812469E+03  0.00000000000E+00 0. -1.
         25    2    1    2    0    0  0.18079809115E+03  0.17729246720E+03  0.86500110760E+02  0.29533848639E+03  0.12498793419E+03 0.  0.
          2    1    1    2  501    0 -0.51295382311E+02 -0.69106443143E+02 -0.76870404228E+03  0.77350683342E+03  0.00000000000E+00 0. -1.
          1    1    1    2  502    0 -0.12950270884E+03 -0.10818602406E+03  0.19300102351E+03  0.25636802155E+03  0.00000000000E+00 0. -1.
         22    1    3    3    0    0  0.73953128363E+02  0.58936676500E+01  0.51609262667E+02  0.90373206793E+02  0.00000000000E+00 0. -1.
         22    1    3    3    0    0  0.10684496279E+03  0.17139879955E+03  0.34890848094E+02  0.20496527960E+03  0.00000000000E+00 0. -1.
</event>
<event>
 7    1  0.6146596E-006  0.1190808E+03  0.7818608E-02  0.1370039E+00
          2   -1    0    0  502    0  0.00000000000E+00  0.00000000000E+00  0.30829693920E+04  0.30829693920E+04  0.00000000000E+00 0. -1.
          1   -1    0    0  501    0 -0.00000000000E+00 -0.00000000000E+00 -0.15872449095E+04  0.15872449095E+04  0.00000000000E+00 0. -1.
         25    2    1    2    0    0 -0.73138022301E+02 -0.62058628020E+02  0.10801071537E+04  0.10915389922E+04  0.12500185746E+03 0.  0.
          2    1    1    2  501    0 -0.37848468122E+02 -0.13650026534E+01 -0.15792562378E+04  0.15797103008E+04  0.00000000000E+00 0. -1.
          1    1    1    2  502    0  0.11098649042E+03  0.63423630674E+02  0.19948735666E+04  0.19989650084E+04  0.00000000000E+00 0. -1.
         22    1    3    3    0    0  0.13385399854E+02  0.27477284426E+02  0.30067177871E+03  0.30222125769E+03  0.00000000000E+00 0. -1.
         22    1    3    3    0    0 -0.86523422154E+02 -0.89535912446E+02  0.77943537504E+03  0.78931773454E+03  0.00000000000E+00 0. -1.
</event>
<event>
 7    1  0.6146596E-006  0.1053568E+03  0.7818608E-02  0.1351719E+00
          2   -1    0    0  502    0  0.00000000000E+00  0.00000000000E+00  0.42551501572E+03  0.42551501572E+03  0.00000000000E+00 0. -1.
          1   -1    0    0  501    0 -0.00000000000E+00 -0.00000000000E+00 -0.32518670042E+03  0.32518670042E+03  0.00000000000E+00 0. -1.
         25    2    1    2    0    0  0.43568724511E+01 -0.64074146033E+02  0.18163484747E+03  0.22965296737E+03  0.12499915631E+03 0.  0.
          2    1    1    2  501    0 -0.38864240138E+02  0.10014866546E+03 -0.28853916740E+03  0.30788802425E+03  0.00000000000E+00 0. -1.
          1    1    1    2  502    0  0.34507367687E+02 -0.36074519426E+02  0.20723263523E+03  0.21316072453E+03  0.00000000000E+00 0. -1.
         22    1    3    3    0    0 -0.31145501701E+02  0.11264662927E+02  0.12405941922E+03  0.12840433951E+03  0.00000000000E+00 0. -1.
         22    1    3    3    0    0  0.35502374152E+02 -0.75338808959E+02  0.57575428249E+02  0.10124862786E+03  0.00000000000E+00 0. -1.
</event>
<event>
 7    1  0.6146596E-006  0.1047991E+03  0.7818608E-02  0.1416807E+00
          2   -1    0    0  502    0  0.00000000000E+00  0.00000000000E+00  0.20040355441E+04  0.20040355441E+04  0.00000000000E+00 0. -1.
          1   -1    0    0  501    0 -0.00000000000E+00 -0.00000000000E+00 -0.12489124186E+03  0.12489124186E+03  0.00000000000E+00 0. -1.
         25    2    1    2    0    0 -0.67606008736E+02  0.10403587291E+03  0.27152900436E+02  0.17822030404E+03  0.12502464357E+03 0.  0.
          2    1    1    2  501    0 -0.52351055621E+01 -0.29140067803E+02 -0.43345795167E+02  0.52491978820E+02  0.00000000000E+00 0. -1.
          1    1    1    2  502    0  0.72841114298E+02 -0.74895805109E+02  0.18953371970E+04  0.18982145031E+04  0.00000000000E+00 0. -1.
         22    1    3    3    0    0  0.85225812390E+01 -0.75700698683E+01 -0.29574844140E+02  0.31695610969E+02  0.00000000000E+00 0.  1.
         22    1    3    3    0    0 -0.76128589975E+02  0.11160594278E+03  0.56727744576E+02  0.14652469307E+03  0.00000000000E+00 0.  1.
</event>
<event>
 7    1  0.6146596E-006  0.2850514E+03  0.7818608E-02  0.1154026E+00
          2   -1    0    0  502    0  0.00000000000E+00  0.00000000000E+00  0.10557711891E+04  0.10557711891E+04  0.00000000000E+00 0. -1.
          1   -1    0    0  501    0 -0.00000000000E+00 -0.00000000000E+00 -0.77457955059E+03  0.77457955059E+03  0.00000000000E+00 0. -1.
         25    2    1    2    0    0  0.18607982826E+03 -0.36331210832E+03 -0.88800932979E+02  0.43604180416E+03  0.12500183494E+03 0.  0.
          2    1    1    2  501    0 -0.64676501900E+02  0.11667096306E+03 -0.48144956655E+03  0.49958867947E+03  0.00000000000E+00 0. -1.
          1    1    1    2  502    0 -0.12140332636E+03  0.24664114526E+03  0.85144213805E+03  0.89472025607E+03  0.00000000000E+00 0. -1.
         22    1    3    3    0    0  0.13590414440E+03 -0.21872154221E+03 -0.11279033725E+03  0.28112401119E+03  0.00000000000E+00 0.  1.
         22    1    3    3    0    0  0.50175683855E+02 -0.14459056612E+03  0.23989404276E+02  0.15491779297E+03  0.00000000000E+00 0.  1.
</event>
<event>
 7    1  0.6146596E-006  0.7378788E+02  0.7818608E-02  0.1455586E+00
          2   -1    0    0  502    0  0.00000000000E+00  0.00000000000E+00  0.12546661105E+03  0.12546661105E+03  0.00000000000E+00 0. -1.
          1   -1    0    0  501    0 -0.00000000000E+00 -0.00000000000E+00 -0.18270632435E+04  0.18270632435E+04  0.00000000000E+00 0. -1.
         25    2    1    2    0    0 -0.54971964619E+01  0.50590312919E+02 -0.68406916159E+02  0.15130886479E+03  0.12500106982E+03 0.  0.
          2    1    1    2  501    0  0.17138329371E+02  0.26333549373E+02 -0.16990179946E+04  0.16993084841E+04  0.00000000000E+00 0. -1.
          1    1    1    2  502    0 -0.11641132909E+02 -0.76923862291E+02  0.65828278370E+02  0.10191250560E+03  0.00000000000E+00 0. -1.
         22    1    3    3    0    0  0.48261219439E+02  0.55443653450E+02 -0.14304322973E+02  0.74884962879E+02  0.00000000000E+00 0.  1.
         22    1    3    3    0    0 -0.53758415901E+02 -0.48533405312E+01 -0.54102593185E+02  0.76423901915E+02  0.00000000000E+00 0.  1.
</event>
<event>
 7    1  0.6146596E-006  0.1131157E+03  0.7818608E-02  0.1275143E+00
          2   -1    0    0  502    0  0.00000000000E+00  0.00000000000E+00  0.67853165553E+03  0.67853165553E+03  0.00000000000E+00 0. -1.
          1   -1    0    0  501    0 -0.00000000000E+00 -0.00000000000E+00 -0.17148255428E+03  0.17148255428E+03  0.00000000000E+00 0. -1.
         25    2    1    2    0    0 -0.13090265238E-01  0.63598923319E+02 -0.41124354335E+02  0.14616441858E+03  0.12501200551E+03 0.  0.
          2    1    1    2  501    0 -0.92408057037E+02  0.91974743183E+01 -0.42103074986E+02  0.10196328488E+03  0.00000000000E+00 0. -1.
          1    1    1    2  502    0  0.92421147303E+02 -0.72796397638E+02  0.59027653057E+03  0.60188650635E+03  0.00000000000E+00 0. -1.
         22    1    3    3    0    0 -0.72014933260E+01  0.85650979425E+02  0.13325832367E+02  0.86980052834E+02  0.00000000000E+00 0.  1.
         22    1    3    3    0    0  0.71884030608E+01 -0.22052056106E+02 -0.54450186703E+02  0.59184365748E+02  0.00000000000E+00 0.  1.
</event>
<event>
 7    1  0.6146596E-006  0.9559194E+02  0.7818608E-02  0.1445334E+00
          2   -1    0    0  502    0  0.00000000000E+00  0.00000000000E+00  0.36545004489E+03  0.36545004489E+03  0.00000000000E+00 0. -1.
          1   -1    0    0  501    0 -0.00000000000E+00 -0.00000000000E+00 -0.74010375704E+03  0.74010375704E+03  0.00000000000E+00 0. -1.
         25    2    1    2    0    0  0.70224533301E+02  0.93410068609E+01  0.23631299679E+01  0.14369964627E+03  0.12500105787E+03 0.  0.
          2    1    1    2  501    0 -0.96374432743E+02 -0.88624850800E+01 -0.66534256134E+03  0.67234462804E+03  0.00000000000E+00 0. -1.
          1    1    1    2  502    0  0.26149899441E+02 -0.47852178093E+00  0.28832571921E+03  0.28950952762E+03  0.00000000000E+00 0. -1.
         22    1    3    3    0    0  0.10633771682E+02 -0.50734062409E+02  0.22831790423E+02  0.56641970681E+02  0.00000000000E+00 0.  1.
         22    1    3    3    0    0  0.59590761620E+02  0.60075069270E+02 -0.20468660455E+02  0.87057675589E+02  0.00000000000E+00 0.  1.
</event>
<event>
 7    1  0.6146596E-006  0.6681112E+02  0.7818608E-02  0.1486296E+00
          2   -1    0    0  502    0  0.00000000000E+00  0.00000000000E+00  0.90705747456E+03  0.90705747456E+03  0.00000000000E+00 0. -1.
          1   -1    0    0  501    0 -0.00000000000E+00 -0.00000000000E+00 -0.10590573989E+03  0.10590573989E+03  0.00000000000E+00 0. -1.
         25    2    1    2    0    0  0.50060218211E+02 -0.44325528870E+01  0.15716736578E+03  0.20700725357E+03  0.12499899676E+03 0.  0.
          2    1    1    2  501    0 -0.65811750715E+02 -0.18542477400E+02 -0.66232364464E+02  0.95193151554E+02  0.00000000000E+00 0. -1.
          1    1    1    2  502    0  0.15751532503E+02  0.22975030287E+02  0.71021673335E+03  0.71076280933E+03  0.00000000000E+00 0. -1.
         22    1    3    3    0    0  0.40482476968E+02 -0.38395194778E+02  0.11293433634E+02  0.56925948097E+02  0.00000000000E+00 0.  1.
         22    1    3    3    0    0  0.95777412435E+01  0.33962641891E+02  0.14587393215E+03  0.15008130547E+03  0.00000000000E+00 0.  1.
</event>
<event>
 7    1  0.6146596E-006  0.6903996E+02  0.7818608E-02  0.1393937E+00
          2   -1    0    0  502    0  0.00000000000E+00  0.00000000000E+00  0.22697709343E+04  0.22697709343E+04  0.00000000000E+00 0. -1.
          1   -1    0    0  501    0 -0.00000000000E+00 -0.00000000000E+00 -0.36934467365E+04  0.36934467365E+04  0.00000000000E+00 0. -1.
         25    2    1    2    0    0 -0.54123845085E+01 -0.26148225814E+02  0.61197082439E+03  0.62517656521E+03  0.12499769661E+03 0.  0.
          2    1    1    2  501    0 -0.38320479071E+02  0.57460329928E+02 -0.36860822671E+04  0.36867292589E+04  0.00000000000E+00 0. -1.
          1    1    1    2  502    0  0.43732863580E+02 -0.31312104114E+02  0.16504356406E+04  0.16513118467E+04  0.00000000000E+00 0. -1.
         22    1    3    3    0    0 -0.11679072374E+02  0.28669889292E+02  0.49369049938E+03  0.49466015855E+03  0.00000000000E+00 0. -1.
         22    1    3    3    0    0  0.62666878654E+01 -0.54818115106E+02  0.11828032502E+03  0.13051640666E+03  0.00000000000E+00 0. -1.
</event>
<event>
 7    1  0.6146596E-006  0.3699231E+02  0.7818608E-02  0.1575138E+00
          2   -1    0    0  502    0  0.00000000000E+00  0.00000000000E+00  0.20841324321E+04  0.20841324321E+04  0.00000000000E+00 0. -1.
          1   -1    0    0  501    0 -0.00000000000E+00 -0.00000000000E+00 -0.93146697029E+01  0.93146697029E+01  0.00000000000E+00 0. -1.
         25    2    1    2    0    0 -0.17619130951E+02  0.12799321029E+02  0.76994509134E+03  0.78032984537E+03  0.12499986998E+03 0.  0.
          2    1    1    2  501    0  0.75425920457E+01 -0.38922647261E+02  0.95266347040E+02  0.10318691798E+03  0.00000000000E+00 0. -1.
          1    1    1    2  502    0  0.10076538905E+02  0.26123326232E+02  0.12096063240E+04  0.12099303384E+04  0.00000000000E+00 0. -1.
         22    1    3    3    0    0 -0.15789358565E+02  0.42586683301E+02  0.72474220497E+03  0.72616402630E+03  0.00000000000E+00 0. -1.
         22    1    3    3    0    0 -0.18297723859E+01 -0.29787362272E+02  0.45202886375E+02  0.54165819062E+02  0.00000000000E+00 0. -1.
</event>
<event>
 7    1  0.6146596E-006  0.6195401E+02  0.7818608E-02  0.1405466E+00
          2   -1    0    0  502    0  0.00000000000E+00  0.00000000000E+00  0.27385180763E+03  0.27385180763E+03  0.00000000000E+00 0. -1.
          1   -1    0    0  501    0 -0.00000000000E+00 -0.00000000000E+00 -0.23539082253E+03  0.23539082253E+03  0.00000000000E+00 0. -1.
         25    2    1    2    0    0 -0.62932509770E+01  0.27877491186E+02  0.11858894276E+03  0.17465573292E+03  0.12499811267E+03 0.  0.
          2    1    1    2  501    0 -0.45448440954E+02  0.30451692570E+02 -0.19120388885E+03  0.19887632709E+03  0.00000000000E+00 0. -1.
          1    1    1    2  502    0  0.51741691931E+02 -0.58329183756E+02  0.11107593119E+03  0.13571057015E+03  0.00000000000E+00 0. -1.
         22    1    3    3    0    0 -0.10060303524E+02  0.33336154129E+02 -0.17107996689E+02  0.38796809532E+02  0.00000000000E+00 0. -1.
         22    1    3    3    0    0  0.37670525472E+01 -0.54586629434E+01  0.13569693945E+03  0.13585892338E+03  0.00000000000E+00 0. -1.
</event>
<event>
 7    1  0.6146596E-006  0.1518127E+03  0.7818608E-02  0.1312629E+00
          2   -1    0    0  502    0  0.00000000000E+00  0.00000000000E+00  0.72396496235E+03  0.72396496235E+03  0.00000000000E+00 0. -1.
          1   -1    0    0  501    0 -0.00000000000E+00 -0.00000000000E+00 -0.10967418993E+04  0.10967418993E+04  0.00000000000E+00 0. -1.
         25    2    1    2    0    0 -0.18723462566E+03 -0.54446606547E+02 -0.43342911007E+03  0.49143436659E+03  0.12500282077E+03 0.  0.
          2    1    1    2  501    0  0.48512813848E+02 -0.53761573785E+01 -0.62513762744E+03  0.62704022950E+03  0.00000000000E+00 0. -1.
          1    1    1    2  502    0  0.13872181181E+03  0.59822763926E+02  0.68578980058E+03  0.70223226552E+03  0.00000000000E+00 0. -1.
         22    1    3    3    0    0 -0.10352257654E+03 -0.56553237731E+02 -0.12513791270E+03  0.17197293317E+03  0.00000000000E+00 0. -1.
         22    1    3    3    0    0 -0.83712049124E+02  0.21066311844E+01 -0.30829119737E+03  0.31946143342E+03  0.00000000000E+00 0. -1.
</event>
<event>
 7    1  0.6146596E-006  0.7795491E+02  0.7818608E-02  0.1450092E+00
          2   -1    0    0  502    0  0.00000000000E+00  0.00000000000E+00  0.35160129688E+03  0.35160129688E+03  0.00000000000E+00 0. -1.
          1   -1    0    0  501    0 -0.00000000000E+00 -0.00000000000E+00 -0.82452364773E+03  0.82452364773E+03  0.00000000000E+00 0. -1.
         25    2    1    2    0    0 -0.52545350983E+02 -0.12159767482E+02  0.15953624048E+02  0.13707386905E+03  0.12500341436E+03 0.  0.
          2    1    1    2  501    0 -0.19127068733E+02 -0.24349318359E+02 -0.75776077733E+03  0.75839312346E+03  0.00000000000E+00 0. -1.
          1    1    1    2  502    0  0.71672419716E+02  0.36509085840E+02  0.26888480243E+03  0.28065795210E+03  0.00000000000E+00 0. -1.
         22    1    3    3    0    0  0.98576225758E+01 -0.56620368412E+02  0.18598819123E+02  0.60406580061E+02  0.00000000000E+00 0.  1.
         22    1    3    3    0    0 -0.62402973559E+02  0.44460600930E+02 -0.26451950753E+01  0.76667288990E+02  0.00000000000E+00 0.  1.
</event>
<event>
 7    1  0.6146596E-006  0.2941640E+03  0.7818608E-02  0.1316903E+00
          2   -1    0    0  502    0  0.00000000000E+00  0.00000000000E+00  0.14276870294E+03  0.14276870294E+03  0.00000000000E+00 0. -1.
          1   -1    0    0  501    0 -0.00000000000E+00 -0.00000000000E+00 -0.19878796274E+04  0.19878796274E+04  0.00000000000E+00 0. -1.
         25    2    1    2    0    0 -0.22189634978E+03  0.18956237738E+03 -0.13301289000E+04  0.13674941859E+04  0.12500229231E+03 0.  0.
          2    1    1    2  501    0  0.14377772312E+02  0.19513926414E+02 -0.46347203443E+03  0.46410541945E+03  0.00000000000E+00 0. -1.
          1    1    1    2  502    0  0.20751857747E+03 -0.20907630379E+03 -0.51509990014E+02  0.29904872491E+03  0.00000000000E+00 0. -1.
         22    1    3    3    0    0 -0.20492353649E+03  0.19747360578E+03 -0.13075442135E+04  0.13381559517E+04  0.00000000000E+00 0.  1.
         22    1    3    3    0    0 -0.16972813286E+02 -0.79112284028E+01 -0.22584686451E+02  0.29338234231E+02  0.00000000000E+00 0.  1.
</event>
<event>
 7    1  0.6146596E-006  0.1083224E+03  0.7818608E-02  0.1281805E+00
          2   -1    0    0  502    0  0.00000000000E+00  0.00000000000E+00  0.13008673324E+03  0.13008673324E+03  0.00000000000E+00 0. -1.
          1   -1    0    0  501    0 -0.00000000000E+00 -0.00000000000E+00 -0.11589496525E+04  0.11589496525E+04  0.00000000000E+00 0. -1.
         25    2    1    2    0    0  0.81167991457E+02  0.30279217747E+02 -0.28628241380E+03  0.32417142846E+03  0.12499768285E+03 0.  0.
          2    1    1    2  501    0 -0.10424932319E+03  0.57747907833E+02 -0.83009723628E+03  0.83860846878E+03  0.00000000000E+00 0. -1.
          1    1    1    2  502    0  0.23081331731E+02 -0.88027125580E+02  0.87516730818E+02  0.12625648849E+03  0.00000000000E+00 0. -1.
         22    1    3    3    0    0 -0.51151098889E+01  0.46897936288E+02 -0.37304853592E+02  0.60143435875E+02  0.00000000000E+00 0. -1.
         22    1    3    3    0    0  0.86283101345E+02 -0.16618718541E+02 -0.24897756021E+03  0.26402799259E+03  0.00000000000E+00 0. -1.
</event>
<event>
 7    1  0.6146596E-006  0.1760058E+03  0.7818608E-02  0.1302753E+00
          2   -1    0    0  502    0  0.00000000000E+00  0.00000000000E+00  0.36104403688E+04  0.36104403688E+04  0.00000000000E+00 0. -1.
          1   -1    0    0  501    0 -0.00000000000E+00 -0.00000000000E+00 -0.35856022103E+02  0.35856022103E+02  0.00000000000E+00 0. -1.
         25    2    1    2    0    0 -0.17211532825E+02  0.15245807077E+03  0.14451246393E+04  0.14586123304E+04  0.12500002817E+03 0.  0.
          2    1    1    2  501    0 -0.33302135458E+02  0.31823935123E+02 -0.34877308128E+01  0.46194797748E+02  0.00000000000E+00 0. -1.
          1    1    1    2  502    0  0.50513668283E+02 -0.18428200589E+03  0.21329474382E+04  0.21414892627E+04  0.00000000000E+00 0. -1.
         22    1    3    3    0    0  0.45247527790E+02  0.18876046260E+02  0.44113721316E+03  0.44385322431E+03  0.00000000000E+00 0.  1.
         22    1    3    3    0    0 -0.62459060616E+02  0.13358202451E+03  0.10039874261E+04  0.10147591061E+04  0.00000000000E+00 0.  1.
</event>
<event>
 7    1  0.6146596E-006  0.8258622E+02  0.7818608E-02  0.1415385E+00
          2   -1    0    0  502    0  0.00000000000E+00  0.00000000000E+00  0.39551941818E+02  0.39551941818E+02  0.00000000000E+00 0. -1.
          1   -1    0    0  501    0 -0.00000000000E+00 -0.00000000000E+00 -0.12842492257E+04  0.12842492257E+04  0.00000000000E+00 0. -1.
         25    2    1    2    0    0  0.11130277975E+03  0.11122007189E+02 -0.40890324137E+03  0.44196966850E+03  0.12499327679E+03 0.  0.
          2    1    1    2  501    0 -0.33426752965E+02 -0.18041993288E+02 -0.79062833646E+03  0.79154028815E+03  0.00000000000E+00 0. -1.
          1    1    1    2  502    0 -0.77876026787E+02  0.69199860995E+01 -0.45165706009E+02  0.90291210840E+02  0.00000000000E+00 0. -1.
         22    1    3    3    0    0  0.74598487572E+02 -0.51158723668E+02 -0.17275189539E+03  0.19500094030E+03  0.00000000000E+00 0.  1.
         22    1    3    3    0    0  0.36704292180E+02  0.62280730857E+02 -0.23615134598E+03  0.24696872820E+03  0.00000000000E+00 0.  1.
</event>
<event>
 7    1  0.6146596E-006  0.1019282E+03  0.7818608E-02  0.1377324E+00
          2   -1    0    0  502    0  0.00000000000E+00  0.00000000000E+00  0.68276581032E+03  0.68276581032E+03  0.00000000000E+00 0. -1.
          1   -1    0    0  501    0 -0.00000000000E+00 -0.00000000000E+00 -0.15085388008E+04  0.15085388008E+04  0.00000000000E+00 0. -1.
         25    2    1    2    0    0  0.12269610614E+03  0.34742739502E+02 -0.29902578073E+03  0.34828544511E+03  0.12499976529E+03 0.  0.
          2    1    1    2  501    0 -0.85103594769E+02 -0.52722593212E+02 -0.11821056450E+04  0.11863372411E+04  0.00000000000E+00 0. -1.
          1    1    1    2  502    0 -0.37592511374E+02  0.17979853710E+02  0.65535843518E+03  0.65668192499E+03  0.00000000000E+00 0. -1.
         22    1    3    3    0    0  0.12010378910E+03 -0.13900770624E+02 -0.25672094956E+03  0.28376715371E+03  0.00000000000E+00 0.  1.
         22    1    3    3    0    0  0.25923170392E+01  0.48643510125E+02 -0.42304831177E+02  0.64518291405E+02  0.00000000000E+00 0.  1.
</event>
<event>
 7    1  0.6146596E-006  0.3847249E+02  0.7818608E-02  0.1562327E+00
          2   -1    0    0  502    0  0.00000000000E+00  0.00000000000E+00  0.16454857077E+04  0.16454857077E+04  0.00000000000E+00 0. -1.
          1   -1    0    0  501    0 -0.00000000000E+00 -0.00000000000E+00 -0.39303395711E+02  0.39303395711E+02  0.00000000000E+00 0. -1.
         25    2    1    2    0    0 -0.49883953755E+02  0.33339228892E+02  0.20428503651E+03  0.24689487621E+03  0.12499916294E+03 0.  0.
          2    1    1    2  501    0  0.36184018473E+02 -0.75838956327E+01  0.12999096160E+01  0.36993086257E+02  0.00000000000E+00 0. -1.
          1    1    1    2  502    0  0.13699935282E+02 -0.25755333259E+02  0.14005973658E+04  0.14009011409E+04  0.00000000000E+00 0. -1.
         22    1    3    3    0    0  0.22229330164E+02  0.30693265409E+01  0.15005590418E+03  0.15172454733E+03  0.00000000000E+00 0. -1.
         22    1    3    3    0    0 -0.72113283919E+02  0.30269902351E+02  0.54229132328E+02  0.95170328879E+02  0.00000000000E+00 0. -1.
</event>
<event>
 7    1  0.6146596E-006  0.6324731E+02  0.7818608E-02  0.1534899E+00
          2   -1    0    0  502    0  0.00000000000E+00  0.00000000000E+00  0.54523119056E+03  0.54523119056E+03  0.00000000000E+00 0. -1.
          1   -1    0    0  501    0 -0.00000000000E+00 -0.00000000000E+00 -0.41409285087E+02  0.41409285087E+02  0.00000000000E+00 0. -1.
         25    2    1    2    0    0 -0.27361374237E+02  0.74553832634E+02  0.39879574177E+03  0.42540510544E+03  0.12499816528E+03 0.  0.
          2    1    1    2  501    0  0.11158772970E+02 -0.60927470495E+02  0.86269121581E+01  0.62538775879E+02  0.00000000000E+00 0. -1.
          1    1    1    2  502    0  0.16202601267E+02 -0.13626362139E+02  0.96399251549E+02  0.98696594329E+02  0.00000000000E+00 0. -1.
         22    1    3    3    0    0 -0.50010661870E+02  0.92932298587E+02  0.36865033788E+03  0.38345866797E+03  0.00000000000E+00 0.  1.
         22    1    3    3    0    0  0.22649287633E+02 -0.18378465953E+02  0.30145403890E+02  0.41946437474E+02  0.00000000000E+00 0.  1.
</event>
<event>
 7    1  0.6146596E-006  0.5192362E+02  0.7818608E-02  0.1468720E+00
          2   -1    0    0  502    0  0.00000000000E+00  0.00000000000E+00  0.17252380275E+04  0.17252380275E+04  0.00000000000E+00 0. -1.
          1   -1    0    0  501    0 -0.00000000000E+00 -0.00000000000E+00 -0.17908883409E+03  0.17908883409E+03  0.00000000000E+00 0. -1.
         25    2    1    2    0    0  0.32628864787E+01  0.26204723079E+02  0.78158615213E+02  0.14977787101E+03  0.12500922995E+03 0.  0.
          2    1    1    2  501    0  0.34695843138E+02 -0.40605397380E+02 -0.13803640346E+03  0.14800894739E+03  0.00000000000E+00 0. -1.
          1    1    1    2  502    0 -0.37958729617E+02  0.14400674301E+02  0.16060269816E+04  0.16065400432E+04  0.00000000000E+00 0. -1.
         22    1    3    3    0    0  0.47281985603E+02 -0.22769555191E+02  0.71967825295E+01  0.52970109354E+02  0.00000000000E+00 0. -1.
         22    1    3    3    0    0 -0.44019099124E+02  0.48974278271E+02  0.70961832684E+02  0.96807761660E+02  0.00000000000E+00 0. -1.
</event>
<event>
 7    1  0.6149362E-006  0.1045606E+03  0.7818608E-02  0.1272395E+00
          2   -1    0    0  502    0  0.00000000000E+00  0.00000000000E+00  0.15494478655E+04  0.15494478655E+04  0.00000000000E+00 0. -1.
          1   -1    0    0  501    0 -0.00000000000E+00 -0.00000000000E+00 -0.12216624552E+04  0.12216624552E+04  0.00000000000E+00 0. -1.
         25    2    1    2    0    0 -0.35935547288E+02  0.45386027212E+02 -0.32994147336E+03  0.35754361486E+03  0.12499922263E+03 0.  0.
          2    1    1    2  501    0  0.12692013662E+03  0.32135787517E+01 -0.87158329268E+03  0.88078174609E+03  0.00000000000E+00 0. -1.
          1    1    1    2  502    0 -0.90984589332E+02 -0.48599605964E+02  0.15293101764E+04  0.15327849597E+04  0.00000000000E+00 0. -1.
         22    1    3    3    0    0 -0.52464692377E+01  0.73044135094E+02 -0.10015343790E+03  0.12407127885E+03  0.00000000000E+00 0. -1.
         22    1    3    3    0    0 -0.30689078051E+02 -0.27658107882E+02 -0.22978803546E+03  0.23347233602E+03  0.00000000000E+00 0. -1.
</event>
<event>
 7    1  0.6146596E-006  0.8000561E+02  0.7818608E-02  0.1495742E+00
          2   -1    0    0  502    0  0.00000000000E+00  0.00000000000E+00  0.16932223056E+04  0.16932223056E+04  0.00000000000E+00 0. -1.
          1   -1    0    0  501    0 -0.00000000000E+00 -0.00000000000E+00 -0.10711340012E+04  0.10711340012E+04  0.00000000000E+00 0. -1.
         25    2    1    2    0    0 -0.80834191450E+01  0.96344419083E+02  0.11882881951E+04  0.11987500873E+04  0.12500139411E+03 0.  0.
          2    1    1    2  501    0 -0.60366900738E+01 -0.79758047056E+02 -0.10641640654E+04  0.10671658474E+04  0.00000000000E+00 0. -1.
          1    1    1    2  502    0  0.14120109219E+02 -0.16586372027E+02  0.49796417477E+03  0.49844037214E+03  0.00000000000E+00 0. -1.
         22    1    3    3    0    0  0.50778802878E+02  0.79699619305E+01  0.43091527625E+03  0.43397002480E+03  0.00000000000E+00 0.  1.
         22    1    3    3    0    0 -0.58862222023E+02  0.88374457152E+02  0.75737291880E+03  0.76478006250E+03  0.00000000000E+00 0.  1.
</event>
<event>
 7    1  0.6146596E-006  0.1592087E+03  0.7818608E-02  0.1215488E+00
          2   -1    0    0  502    0  0.00000000000E+00  0.00000000000E+00  0.98287608873E+03  0.98287608873E+03  0.00000000000E+00 0. -1.
          1   -1    0    0  501    0 -0.00000000000E+00 -0.00000000000E+00 -0.70516530471E+03  0.70516530471E+03  0.00000000000E+00 0. -1.
         25    2    1    2    0    0 -0.17370269374E+03  0.15889517894E+03  0.26603630639E+03  0.37659125895E+03  0.12500142516E+03 0.  0.
          2    1    1    2  501    0  0.29377883374E+02 -0.11668259077E+03 -0.63562531591E+03  0.64691377265E+03  0.00000000000E+00 0. -1.
          1    1    1    2  502    0  0.14432481037E+03 -0.42212588171E+02  0.64729979354E+03  0.66453636184E+03  0.00000000000E+00 0. -1.
         22    1    3    3    0    0 -0.19982757451E+02  0.94924799303E+02  0.71359380467E+02  0.12042503601E+03  0.00000000000E+00 0. -1.
         22    1    3    3    0    0 -0.15371993629E+03  0.63970379642E+02  0.19467692593E+03  0.25616622294E+03  0.00000000000E+00 0. -1.
</event>
<event>
 7    1  0.6146596E-006  0.9859513E+02  0.7818608E-02  0.1445511E+00
          2   -1    0    0  502    0  0.00000000000E+00  0.00000000000E+00  0.11335436836E+04  0.11335436836E+04  0.00000000000E+00 0. -1.
          1   -1    0    0  501    0 -0.00000000000E+00 -0.00000000000E+00 -0.29345250075E+03  0.29345250075E+03  0.00000000000E+00 0. -1.
         25    2    1    2    0    0  0.22477338199E+02  0.11943159206E+03  0.78063926361E+02  0.19102074167E+03  0.12500324490E+03 0.  0.
          2    1    1    2  501    0 -0.12662462629E+02 -0.96086555777E+02 -0.22689593697E+03  0.24672804943E+03  0.00000000000E+00 0. -1.
          1    1    1    2  502    0 -0.98148755700E+01 -0.23345036280E+02  0.98892319346E+03  0.98924739326E+03  0.00000000000E+00 0. -1.
         22    1    3    3    0    0 -0.71025540164E+01  0.13126920521E+03  0.87348627818E+02  0.15783482915E+03  0.00000000000E+00 0. -1.
         22    1    3    3    0    0  0.29579892215E+02 -0.11837613158E+02 -0.92847014568E+01  0.33185912521E+02  0.00000000000E+00 0. -1.
</event>
<event>
 7    1  0.6146596E-006  0.1625856E+03  0.7818608E-02  0.1335639E+00
          2   -1    0    0  502    0  0.00000000000E+00  0.00000000000E+00  0.15802207374E+04  0.15802207374E+04  0.00000000000E+00 0. -1.
          1   -1    0    0  501    0 -0.00000000000E+00 -0.00000000000E+00 -0.57693994762E+03  0.57693994762E+03  0.00000000000E+00 0. -1.
         25    2    1    2    0    0  0.14335401001E+03 -0.15257098945E+02  0.82045985754E+03  0.84235488044E+03  0.12499686205E+03 0.  0.
          2    1    1    2  501    0  0.37138810165E+02  0.11059592463E+01 -0.55441824780E+03  0.55566186468E+03  0.00000000000E+00 0. -1.
          1    1    1    2  502    0 -0.18049282018E+03  0.14151139698E+02  0.73723918007E+03  0.75914393992E+03  0.00000000000E+00 0. -1.
         22    1    3    3    0    0  0.13563306078E+03  0.28699747472E+02  0.50233158583E+03  0.52111133629E+03  0.00000000000E+00 0.  1.
         22    1    3    3    0    0  0.77209492291E+01 -0.43956846416E+02  0.31812827170E+03  0.32124354415E+03  0.00000000000E+00 0.  1.
</event>
<event>
 7    1  0.6146596E-006  0.7267034E+02  0.7818608E-02  0.1378597E+00
          2   -1    0    0  502    0  0.00000000000E+00  0.00000000000E+00  0.61596934325E+03  0.61596934325E+03  0.00000000000E+00 0. -1.
          1   -1    0    0  501    0 -0.00000000000E+00 -0.00000000000E+00 -0.46315694005E+03  0.46315694005E+03  0.00000000000E+00 0. -1.
         25    2    1    2    0    0  0.22828070626E+01 -0.31965178533E+02 -0.51713880637E+02  0.13901987553E+03  0.12500086598E+03 0.  0.
          2    1    1    2  501    0 -0.53890612581E+02 -0.21013377563E+02 -0.36310184854E+03  0.36768017702E+03  0.00000000000E+00 0. -1.
          1    1    1    2  502    0  0.51607805518E+02  0.52978556097E+02  0.56762813237E+03  0.57242623075E+03  0.00000000000E+00 0. -1.
         22    1    3    3    0    0 -0.19612148238E+02  0.40934245598E+02  0.26746106774E+01  0.45468696522E+02  0.00000000000E+00 0.  1.
         22    1    3    3    0    0  0.21894955301E+02 -0.72899424131E+02 -0.54388491314E+02  0.93551179007E+02  0.00000000000E+00 0.  1.
</event>
<event>
 7    1  0.6146596E-006  0.5289884E+02  0.7818608E-02  0.1529791E+00
          2   -1    0    0  502    0  0.00000000000E+00  0.00000000000E+00  0.53880710464E+03  0.53880710464E+03  0.00000000000E+00 0. -1.
          1   -1    0    0  501    0 -0.00000000000E+00 -0.00000000000E+00 -0.55431136947E+02  0.55431136947E+02  0.00000000000E+00 0. -1.
         25    2    1    2    0    0  0.27993865192E+02  0.38905488044E+02  0.31045685192E+03  0.33808829845E+03  0.12499178836E+03 0.  0.
          2    1    1    2  501    0 -0.48474042451E+02 -0.22602116707E+02 -0.23194294288E+02  0.58297201980E+02  0.00000000000E+00 0. -1.
          1    1    1    2  502    0  0.20480177259E+02 -0.16303371337E+02  0.19611341006E+03  0.19785274116E+03  0.00000000000E+00 0. -1.
         22    1    3    3    0    0 -0.30135261032E+02  0.61101502349E+02  0.20034349286E+03  0.21161059208E+03  0.00000000000E+00 0. -1.
         22    1    3    3    0    0  0.58129126224E+02 -0.22196014305E+02  0.11011335906E+03  0.12647770637E+03  0.00000000000E+00 0. -1.
</event>
<event>
 7    1  0.6146596E-006  0.5868042E+02  0.7818608E-02  0.1512172E+00
          2   -1    0    0  502    0  0.00000000000E+00  0.00000000000E+00  0.10082392077E+04  0.10082392077E+04  0.00000000000E+00 0. -1.
          1   -1    0    0  501    0 -0.00000000000E+00 -0.00000000000E+00 -0.10407578432E+03  0.10407578432E+03  0.00000000000E+00 0. -1.
         25    2    1    2    0    0 -0.47715983651E+02  0.12695262517E+02  0.60340237161E+03  0.61818888223E+03  0.12500034909E+03 0.  0.
          2    1    1    2  501    0 -0.14503325505E+02 -0.22231804809E+02 -0.92308064405E+02  0.96048833153E+02  0.00000000000E+00 0. -1.
          1    1    1    2  502    0  0.62219309156E+02  0.95365422912E+01  0.39306911621E+03  0.39807727666E+03  0.00000000000E+00 0. -1.
         22    1    3    3    0    0  0.26608722074E+01 -0.52133010739E+02  0.24609530360E+03  0.25157072466E+03  0.00000000000E+00 0. -1.
         22    1    3    3    0    0 -0.50376855859E+02  0.64828273257E+02  0.35730706801E+03  0.36661815758E+03  0.00000000000E+00 0. -1.
</event>
<event>
 7    1  0.6146596E-006  0.6076503E+02  0.7818608E-02  0.1514210E+00
          2   -1    0    0  502    0  0.00000000000E+00  0.00000000000E+00  0.50952460090E+03  0.50952460090E+03  0.00000000000E+00 0. -1.
          1   -1    0    0  501    0 -0.00000000000E+00 -0.00000000000E+00 -0.62149586381E+03  0.62149586381E+03  0.00000000000E+00 0. -1.
         25    2    1    2    0    0  0.74455508083E+02 -0.91384531726E+01 -0.10455222463E+03  0.17940512733E+03  0.12501159157E+03 0.  0.
          2    1    1    2  501    0 -0.54772210632E+02  0.25007368002E+02 -0.47728585623E+03  0.48106876023E+03  0.00000000000E+00 0. -1.
          1    1    1    2  502    0 -0.19683297451E+02 -0.15868914830E+02  0.46986681795E+03  0.47054657715E+03  0.00000000000E+00 0. -1.
         22    1    3    3    0    0  0.10940651399E+03 -0.37642788782E+01 -0.69833519057E+02  0.12984866377E+03  0.00000000000E+00 0. -1.
         22    1    3    3    0    0 -0.34951005911E+02 -0.53741742944E+01 -0.34718705577E+02  0.49556463559E+02  0.00000000000E+00 0. -1.
</event>
<event>
 7    1  0.6146596E-006  0.1486699E+03  0.7818608E-02  0.1390270E+00
          2   -1    0    0  502    0  0.00000000000E+00  0.00000000000E+00  0.57217340809E+02  0.57217340809E+02  0.00000000000E+00 0. -1.
          1   -1    0    0  501    0 -0.00000000000E+00 -0.00000000000E+00 -0.20521456984E+04  0.20521456984E+04  0.00000000000E+00 0. -1.
         25    2    1    2    0    0  0.14688254407E+03  0.62456370447E+02 -0.37904338317E+03  0.42985498336E+03  0.12500456165E+03 0.  0.
          2    1    1    2  501    0 -0.72716380893E+01 -0.24672977950E+02 -0.14826101896E+04  0.14828333038E+04  0.00000000000E+00 0. -1.
          1    1    1    2  502    0 -0.13961090598E+03 -0.37783392497E+02 -0.13327478478E+03  0.19667475201E+03  0.00000000000E+00 0. -1.
         22    1    3    3    0    0 -0.17819735427E+02 -0.12510574762E+02 -0.40293082286E+02  0.45799453399E+02  0.00000000000E+00 0.  1.
         22    1    3    3    0    0  0.16470227950E+03  0.74966945208E+02 -0.33875030089E+03  0.38405552996E+03  0.00000000000E+00 0.  1.
</event>
<event>
 7    1  0.6146596E-006  0.8211072E+02  0.7818608E-02  0.1333653E+00
          2   -1    0    0  502    0  0.00000000000E+00  0.00000000000E+00  0.67621094098E+03  0.67621094098E+03  0.00000000000E+00 0. -1.
          1   -1    0    0  501    0 -0.00000000000E+00 -0.00000000000E+00 -0.65440365447E+03  0.65440365447E+03  0.00000000000E+00 0. -1.
         25    2    1    2    0    0  0.38893597636E+02 -0.94038958659E+02 -0.31155159931E+02  0.16416628236E+03  0.12499554629E+03 0.  0.
          2    1    1    2  501    0 -0.77091066271E+02  0.29660117392E+02 -0.55135712728E+03  0.55751003297E+03  0.00000000000E+00 0. -1.
          1    1    1    2  502    0  0.38197468636E+02  0.64378841267E+02  0.60431957372E+03  0.60893828012E+03  0.00000000000E+00 0. -1.
         22    1    3    3    0    0 -0.14677714268E+02 -0.34861720560E+02 -0.66784010864E+02  0.76752061625E+02  0.00000000000E+00 0.  1.
         22    1    3    3    0    0  0.53571311904E+02 -0.59177238099E+02  0.35628850933E+02  0.87414220736E+02  0.00000000000E+00 0.  1.
</event>
<event>
 7    1  0.6146596E-006  0.9075387E+02  0.7818608E-02  0.1331481E+00
          2   -1    0    0  502    0  0.00000000000E+00  0.00000000000E+00  0.71484114167E+03  0.71484114167E+03  0.00000000000E+00 0. -1.
          1   -1    0    0  501    0 -0.00000000000E+00 -0.00000000000E+00 -0.31429481975E+04  0.31429481975E+04  0.00000000000E+00 0. -1.
         25    2    1    2    0    0 -0.53773436449E+02 -0.66137055846E+02 -0.87486153706E+03  0.88784670702E+03  0.12499349388E+03 0.  0.
          2    1    1    2  501    0 -0.91449595429E+01  0.94533550555E+02 -0.22589120923E+04  0.22609077963E+04  0.00000000000E+00 0. -1.
          1    1    1    2  502    0  0.62918395992E+02 -0.28396494709E+02  0.70566657354E+03  0.70903483587E+03  0.00000000000E+00 0. -1.
         22    1    3    3    0    0 -0.58977850943E+02 -0.21174735386E+02 -0.78235452722E+03  0.78486009108E+03  0.00000000000E+00 0.  1.
         22    1    3    3    0    0  0.52044144938E+01 -0.44962320460E+02 -0.92507009848E+02  0.10298661594E+03  0.00000000000E+00 0.  1.
</event>
<event>
 7    1  0.6146596E-006  0.1236775E+03  0.7818608E-02  0.1312489E+00
          2   -1    0    0  502    0  0.00000000000E+00  0.00000000000E+00  0.77629595169E+03  0.77629595169E+03  0.00000000000E+00 0. -1.
          1   -1    0    0  501    0 -0.00000000000E+00 -0.00000000000E+00 -0.40472154982E+03  0.40472154982E+03  0.00000000000E+00 0. -1.
         25    2    1    2    0    0  0.15493295749E+03  0.23187291575E+02  0.45952003584E+02  0.20561750078E+03  0.12500039274E+03 0.  0.
          2    1    1    2  501    0 -0.11892181313E+03  0.24791050028E+02 -0.31207624896E+03  0.33488591933E+03  0.00000000000E+00 0. -1.
          1    1    1    2  502    0 -0.36011144361E+02 -0.47978341603E+02  0.63769864725E+03  0.64051408141E+03  0.00000000000E+00 0. -1.
         22    1    3    3    0    0  0.37067680722E+02  0.16501774749E+02  0.73894143401E+02  0.84301043606E+02  0.00000000000E+00 0.  1.
         22    1    3    3    0    0  0.11786527677E+03  0.66855168264E+01 -0.27942139818E+02  0.12131645717E+03  0.00000000000E+00 0.  1.
</event>
<event>
 7    1  0.6146596E-006  0.1712890E+03  0.7818608E-02  0.1322805E+00
          2   -1    0    0  502    0  0.00000000000E+00  0.00000000000E+00  0.17067076506E+04  0.17067076506E+04  0.00000000000E+00 0. -1.
          1   -1    0    0  501    0 -0.00000000000E+00 -0.00000000000E+00 -0.10427926269E+04  0.10427926269E+04  0.00000000000E+00 0. -1.
         25    2    1    2    0    0 -0.15165986537E+03 -0.78045313416E+02  0.94530364335E+03  0.96866709851E+03  0.12500073558E+03 0.  0.
          2    1    1    2  501    0  0.13029235677E+03  0.11125284220E+03 -0.10234654159E+04  0.10377064858E+04  0.00000000000E+00 0. -1.
          1    1    1    2  502    0  0.21367508599E+02 -0.33207528784E+02  0.74207679637E+03  0.74312669317E+03  0.00000000000E+00 0. -1.
         22    1    3    3    0    0 -0.70605178613E+00  0.92607469474E+01  0.21571687271E+01  0.95348476687E+01  0.00000000000E+00 0. -1.
         22    1    3    3    0    0 -0.15095381358E+03 -0.87306060364E+02  0.94314647462E+03  0.95913225084E+03  0.00000000000E+00 0. -1.
</event>
<event>
 7    1  0.6146596E-006  0.7609975E+02  0.7818608E-02  0.1353848E+00
          2   -1    0    0  502    0  0.00000000000E+00  0.00000000000E+00  0.59763619390E+03  0.59763619390E+03  0.00000000000E+00 0. -1.
          1   -1    0    0  501    0 -0.00000000000E+00 -0.00000000000E+00 -0.91501988869E+03  0.91501988869E+03  0.00000000000E+00 0. -1.
         25    2    1    2    0    0 -0.12715171151E+02 -0.12576774014E+03  0.19129859564E+03  0.26114858256E+03  0.12499691772E+03 0.  0.
          2    1    1    2  501    0 -0.23686254785E+02  0.63608046528E+02 -0.87527591780E+03  0.87790372737E+03  0.00000000000E+00 0. -1.
          1    1    1    2  502    0  0.36401425936E+02  0.62159693615E+02  0.36659362737E+03  0.37360377266E+03  0.00000000000E+00 0. -1.
         22    1    3    3    0    0  0.21733538608E+01  0.24503503207E+02  0.14175090459E+02  0.28391518557E+02  0.00000000000E+00 0. -1.
         22    1    3    3    0    0 -0.14888525012E+02 -0.15027124335E+03  0.17712350518E+03  0.23275706400E+03  0.00000000000E+00 0. -1.
</event>
<event>
 7    1  0.6146596E-006  0.1523304E+03  0.7818608E-02  0.1197901E+00
          2   -1    0    0  502    0  0.00000000000E+00  0.00000000000E+00  0.22576414634E+04  0.22576414634E+04  0.00000000000E+00 0. -1.
          1   -1    0    0  501    0 -0.00000000000E+00 -0.00000000000E+00 -0.61179519446E+02  0.61179519446E+02  0.00000000000E+00 0. -1.
         25    2    1    2    0    0  0.53380961729E+02 -0.55774988369E+01  0.41113315987E+03  0.43305425150E+03  0.12499949610E+03 0.  0.
          2    1    1    2  501    0 -0.20105915123E+03  0.41117000084E+02  0.17913115324E+03  0.27240293693E+03  0.00000000000E+00 0. -1.
          1    1    1    2  502    0  0.14767818950E+03 -0.35539501247E+02  0.16061976308E+04  0.16133637944E+04  0.00000000000E+00 0. -1.
         22    1    3    3    0    0  0.70191313169E+00 -0.12163010737E+02 -0.52745000120E+01  0.13275988197E+02  0.00000000000E+00 0.  1.
         22    1    3    3    0    0  0.52679048598E+02  0.65855119004E+01  0.41640765988E+03  0.41977826330E+03  0.00000000000E+00 0.  1.
</event>
<event>
 7    1  0.6146596E-006  0.5515810E+02  0.7818608E-02  0.1460513E+00
          2   -1    0    0  502    0  0.00000000000E+00  0.00000000000E+00  0.82302034523E+03  0.82302034523E+03  0.00000000000E+00 0. -1.
          1   -1    0    0  501    0 -0.00000000000E+00 -0.00000000000E+00 -0.43317400859E+03  0.43317400859E+03  0.00000000000E+00 0. -1.
         25    2    1    2    0    0  0.30257604074E+02 -0.87812854961E+02 -0.20287438436E+02  0.15704582739E+03  0.12500076656E+03 0.  0.
          2    1    1    2  501    0 -0.22732833499E+02  0.33578308534E+02 -0.34231593852E+03  0.34470927792E+03  0.00000000000E+00 0. -1.
          1    1    1    2  502    0 -0.75247705750E+01  0.54234546427E+02  0.75244971360E+03  0.75443924851E+03  0.00000000000E+00 0. -1.
         22    1    3    3    0    0 -0.42032115439E+02 -0.45048331366E+01  0.83488748294E+01  0.43089394992E+02  0.00000000000E+00 0. -1.
         22    1    3    3    0    0  0.72289719513E+02 -0.83308021824E+02 -0.28636313265E+02  0.11395643240E+03  0.00000000000E+00 0. -1.
</event>
<event>
 7    1  0.6146596E-006  0.1023090E+03  0.7818608E-02  0.1365070E+00
          2   -1    0    0  502    0  0.00000000000E+00  0.00000000000E+00  0.36989720967E+03  0.36989720967E+03  0.00000000000E+00 0. -1.
          1   -1    0    0  501    0 -0.00000000000E+00 -0.00000000000E+00 -0.80745724807E+02  0.80745724807E+02  0.00000000000E+00 0. -1.
         25    2    1    2    0    0 -0.27416938935E+02 -0.78970336590E+02  0.86818294054E+02  0.17363908194E+03  0.12500044797E+03 0.  0.
          2    1    1    2  501    0  0.69624396947E+02  0.97108977510E+02  0.73644514897E+02  0.14036105136E+03  0.00000000000E+00 0. -1.
          1    1    1    2  502    0 -0.42207458012E+02 -0.18138640920E+02  0.12868867591E+03  0.13664280118E+03  0.00000000000E+00 0. -1.
         22    1    3    3    0    0 -0.37028191772E+02  0.25694843907E+02  0.21988135055E+02  0.50147682624E+02  0.00000000000E+00 0.  1.
         22    1    3    3    0    0  0.96112528373E+01 -0.10466518050E+03  0.64830158999E+02  0.12349139932E+03  0.00000000000E+00 0.  1.
</event>
<event>
 7    1  0.6146596E-006  0.6139106E+02  0.7818608E-02  0.1420342E+00
          2   -1    0    0  502    0  0.00000000000E+00  0.00000000000E+00  0.27626376259E+02  0.27626376259E+02  0.00000000000E+00 0. -1.
          1   -1    0    0  501    0 -0.00000000000E+00 -0.00000000000E+00 -0.95570570149E+03  0.95570570149E+03  0.00000000000E+00 0. -1.
         25    2    1    2    0    0  0.52919821493E+01  0.24985586731E+02 -0.55780044678E+03  0.57220384465E+03  0.12499446700E+03 0.  0.
          2    1    1    2  501    0 -0.36779700956E+02  0.32652155013E+02 -0.33093063778E+03  0.33456538472E+03  0.00000000000E+00 0. -1.
          1    1    1    2  502    0  0.31487718807E+02 -0.57637741744E+02 -0.39348240670E+02  0.76562848385E+02  0.00000000000E+00 0. -1.
         22    1    3    3    0    0 -0.59850132963E+02  0.10343032577E+02 -0.25610749567E+03  0.26321106755E+03  0.00000000000E+00 0.  1.
         22    1    3    3    0    0  0.65142115112E+02  0.14642554154E+02 -0.30169295111E+03  0.30899277710E+03  0.00000000000E+00 0.  1.
</event>
<event>
 7    1  0.6146596E-006  0.8352328E+02  0.7818608E-02  0.1345786E+00
          2   -1    0    0  502    0  0.00000000000E+00  0.00000000000E+00  0.26608729258E+03  0.26608729258E+03  0.00000000000E+00 0. -1.
          1   -1    0    0  501    0 -0.00000000000E+00 -0.00000000000E+00 -0.10940028554E+04  0.10940028554E+04  0.00000000000E+00 0. -1.
         25    2    1    2    0    0  0.10552476657E+03 -0.11803699382E+02 -0.43510587361E+02  0.16968588258E+03  0.12500129541E+03 0.  0.
          2    1    1    2  501    0 -0.46528367814E+02 -0.47156559389E+02 -0.97766850555E+03  0.97991037184E+03  0.00000000000E+00 0. -1.
          1    1    1    2  502    0 -0.58996398753E+02  0.58960258771E+02  0.19326353007E+03  0.21049389358E+03  0.00000000000E+00 0. -1.
         22    1    3    3    0    0  0.58526605354E+02 -0.53905994708E+02  0.17986078578E+02  0.81576459977E+02  0.00000000000E+00 0. -1.
         22    1    3    3    0    0  0.46998161213E+02  0.42102295326E+02 -0.61496665940E+02  0.88109422600E+02  0.00000000000E+00 0. -1.
</event>
<event>
 7    1  0.6146596E-006  0.1024378E+03  0.7818608E-02  0.1329239E+00
          2   -1    0    0  502    0  0.00000000000E+00  0.00000000000E+00  0.31872717283E+03  0.31872717283E+03  0.00000000000E+00 0. -1.
          1   -1    0    0  501    0 -0.00000000000E+00 -0.00000000000E+00 -0.10239106500E+04  0.10239106500E+04  0.00000000000E+00 0. -1.
         25    2    1    2    0    0  0.16136673116E+02 -0.38913812179E+02  0.38874590230E+02  0.13752279472E+03  0.12500643305E+03 0.  0.
          2    1    1    2  501    0 -0.33793338901E+02  0.98736301593E+02 -0.96750945611E+03  0.97312146964E+03  0.00000000000E+00 0. -1.
          1    1    1    2  502    0  0.17656665786E+02 -0.59822489413E+02  0.22345138868E+03  0.23199355851E+03  0.00000000000E+00 0. -1.
         22    1    3    3    0    0  0.50179006734E+02 -0.67659322166E+02  0.10962349431E+02  0.84946393083E+02  0.00000000000E+00 0.  1.
         22    1    3    3    0    0 -0.34042333619E+02  0.28745509987E+02  0.27912240799E+02  0.52576401636E+02  0.00000000000E+00 0.  1.
</event>
<event>
 7    1  0.6146596E-006  0.1173588E+03  0.7818608E-02  0.1297302E+00
          2   -1    0    0  502    0  0.00000000000E+00  0.00000000000E+00  0.79289662301E+03  0.79289662301E+03  0.00000000000E+00 0. -1.
          1   -1    0    0  501    0 -0.00000000000E+00 -0.00000000000E+00 -0.19198889255E+04  0.19198889255E+04  0.00000000000E+00 0. -1.
         25    2    1    2    0    0  0.12212228511E+03 -0.13583389054E+03  0.19438756950E+03  0.29457434218E+03  0.12499126990E+03 0.  0.
          2    1    1    2  501    0 -0.58157148047E+02  0.10140714481E+03 -0.18655525190E+04  0.18692115621E+04  0.00000000000E+00 0. -1.
          1    1    1    2  502    0 -0.63965137066E+02  0.34426745732E+02  0.54417264700E+03  0.54899964420E+03  0.00000000000E+00 0. -1.
         22    1    3    3    0    0  0.89717798360E+02 -0.88541720582E+01  0.84174798842E+02  0.12334130073E+03  0.00000000000E+00 0. -1.
         22    1    3    3    0    0  0.32404486753E+02 -0.12697971848E+03  0.11021277066E+03  0.17123304145E+03  0.00000000000E+00 0. -1.
</event>
<event>
 7    1  0.6146596E-006  0.5699281E+02  0.7818608E-02  0.1457355E+00
          2   -1    0    0  502    0  0.00000000000E+00  0.00000000000E+00  0.10576638485E+04  0.10576638485E+04  0.00000000000E+00 0. -1.
          1   -1    0    0  501    0 -0.00000000000E+00 -0.00000000000E+00 -0.97327621284E+03  0.97327621284E+03  0.00000000000E+00 0. -1.
         25    2    1    2    0    0 -0.34477756140E+02 -0.18683800378E+02  0.75776800451E+02  0.15134410724E+03  0.12500046098E+03 0.  0.
          2    1    1    2  501    0 -0.21058677094E+02  0.34191619324E+02 -0.93418041006E+03  0.93504308631E+03  0.00000000000E+00 0. -1.
          1    1    1    2  502    0  0.55536433234E+02 -0.15507818946E+02  0.94279124523E+03  0.94455286774E+03  0.00000000000E+00 0. -1.
         22    1    3    3    0    0 -0.40717515857E+02  0.46510346591E+02  0.54705229840E+02  0.82545688013E+02  0.00000000000E+00 0. -1.
         22    1    3    3    0    0  0.62397597178E+01 -0.65194146969E+02  0.21071570611E+02  0.68798419229E+02  0.00000000000E+00 0. -1.
</event>
<event>
 7    1  0.6146596E-006  0.5810226E+02  0.7818608E-02  0.1410712E+00
          2   -1    0    0  502    0  0.00000000000E+00  0.00000000000E+00  0.24290354443E+03  0.24290354443E+03  0.00000000000E+00 0. -1.
          1   -1    0    0  501    0 -0.00000000000E+00 -0.00000000000E+00 -0.11004616826E+04  0.11004616826E+04  0.00000000000E+00 0. -1.
         25    2    1    2    0    0  0.10709018117E+03  0.32527956185E+02 -0.44278066254E+02  0.17352758169E+03  0.12499959848E+03 0.  0.
          2    1    1    2  501    0 -0.56905478425E+02 -0.77058343371E+01 -0.98630732640E+03  0.98797760879E+03  0.00000000000E+00 0. -1.
          1    1    1    2  502    0 -0.50184702750E+02 -0.24822121848E+02  0.17302725445E+03  0.18186003659E+03  0.00000000000E+00 0. -1.
         22    1    3    3    0    0  0.10153633217E+03 -0.17875543499E+02 -0.61412074714E+02  0.12000251966E+03  0.00000000000E+00 0.  1.
         22    1    3    3    0    0  0.55538490085E+01  0.50403499684E+02  0.17134008460E+02  0.53525062028E+02  0.00000000000E+00 0.  1.
</event>
<event>
 7    1  0.6146596E-006  0.4754484E+02  0.7818608E-02  0.1485682E+00
          2   -1    0    0  502    0  0.00000000000E+00  0.00000000000E+00  0.77562865031E+03  0.77562865031E+03  0.00000000000E+00 0. -1.
          1   -1    0    0  501    0 -0.00000000000E+00 -0.00000000000E+00 -0.25024677158E+03  0.25024677158E+03  0.00000000000E+00 0. -1.
         25    2    1    2    0    0  0.11565546065E+02 -0.19354716916E+02 -0.12081837768E+03  0.17529958184E+03  0.12499798433E+03 0.  0.
          2    1    1    2  501    0 -0.30933373100E+02 -0.24261676773E+02 -0.97613553737E+02  0.10523263944E+03  0.00000000000E+00 0. -1.
          1    1    1    2  502    0  0.19367827034E+02  0.43616393689E+02  0.74381381015E+03  0.74534320061E+03  0.00000000000E+00 0. -1.
         22    1    3    3    0    0  0.23855408596E+02 -0.62292396374E+02 -0.11110956331E+03  0.12959459180E+03  0.00000000000E+00 0. -1.
         22    1    3    3    0    0 -0.12289862531E+02  0.42937679458E+02 -0.97088143686E+01  0.45704990041E+02  0.00000000000E+00 0. -1.
</event>
<event>
 7    1  0.6146596E-006  0.5043640E+02  0.7818608E-02  0.1467514E+00
          2   -1    0    0  502    0  0.00000000000E+00  0.00000000000E+00  0.83438204610E+03  0.83438204610E+03  0.00000000000E+00 0. -1.
          1   -1    0    0  501    0 -0.00000000000E+00 -0.00000000000E+00 -0.58393628096E+02  0.58393628096E+02  0.00000000000E+00 0. -1.
         25    2    1    2    0    0 -0.76178951072E+02  0.48087096803E+01  0.67019899924E+02  0.16106884796E+03  0.12500060209E+03 0.  0.
          2    1    1    2  501    0  0.34902709120E+02  0.23647423385E+02  0.32111801764E+02  0.52995920118E+02  0.00000000000E+00 0. -1.
          1    1    1    2  502    0  0.41276241952E+02 -0.28456133066E+02  0.67685671632E+03  0.67871090612E+03  0.00000000000E+00 0. -1.
         22    1    3    3    0    0 -0.36140193091E+02 -0.47688268173E+02  0.73445433106E+02  0.94733922763E+02  0.00000000000E+00 0. -1.
         22    1    3    3    0    0 -0.40038757981E+02  0.52496977853E+02 -0.64255331816E+01  0.66334925198E+02  0.00000000000E+00 0. -1.
</event>
<event>
 7    1  0.9581934E-006  0.9202716E+02  0.7818608E-02  0.1303206E+00
          2   -1    0    0  502    0  0.00000000000E+00  0.00000000000E+00  0.97266536115E+03  0.97266536115E+03  0.00000000000E+00 0. -1.
          1   -1    0    0  501    0 -0.00000000000E+00 -0.00000000000E+00 -0.15777071387E+04  0.15777071387E+04  0.00000000000E+00 0. -1.
         25    2    1    2    0    0 -0.81221270437E+02 -0.24769669775E+00 -0.66711247015E+03  0.68356588664E+03  0.12500526959E+03 0.  0.
          2    1    1    2  501    0  0.51875899072E+02 -0.86975279636E+02 -0.89731782971E+03  0.90301444932E+03  0.00000000000E+00 0. -1.
          1    1    1    2  502    0  0.29345371364E+02  0.87222976334E+02  0.95938852232E+03  0.96379216389E+03  0.00000000000E+00 0. -1.
         22    1    3    3    0    0  0.42813267240E+01 -0.25315938455E+02 -0.26913961549E+02  0.37196610392E+02  0.00000000000E+00 0. -1.
         22    1    3    3    0    0 -0.85502597161E+02  0.25068241757E+02 -0.64019850860E+03  0.64636927625E+03  0.00000000000E+00 0. -1.
</event>
<event>
 7    1  0.6146596E-006  0.1200128E+03  0.7818608E-02  0.1289255E+00
          2   -1    0    0  502    0  0.00000000000E+00  0.00000000000E+00  0.28609475247E+03  0.28609475247E+03  0.00000000000E+00 0. -1.
          1   -1    0    0  501    0 -0.00000000000E+00 -0.00000000000E+00 -0.54244167894E+03  0.54244167894E+03  0.00000000000E+00 0. -1.
         25    2    1    2    0    0 -0.14457423827E+03  0.10687930891E+02  0.20194586827E+03  0.27825061656E+03  0.12500131865E+03 0.  0.
          2    1    1    2  501    0  0.96897589642E+02 -0.70597258294E+02 -0.45829941022E+03  0.47372087263E+03  0.00000000000E+00 0. -1.
          1    1    1    2  502    0  0.47676648624E+02  0.59909327403E+02  0.66154785802E-02  0.76564942223E+02  0.00000000000E+00 0. -1.
         22    1    3    3    0    0 -0.44482457962E+02  0.24428697123E+02 -0.18541678156E+01  0.50782755417E+02  0.00000000000E+00 0.  1.
         22    1    3    3    0    0 -0.10009178030E+03 -0.13740766231E+02  0.20380003609E+03  0.22746786114E+03  0.00000000000E+00 0.  1.
</event>
<event>
 7    1  0.6146596E-006  0.9756005E+02  0.7818608E-02  0.1436260E+00
          2   -1    0    0  502    0  0.00000000000E+00  0.00000000000E+00  0.80721401985E+03  0.80721401985E+03  0.00000000000E+00 0. -1.
          1   -1    0    0  501    0 -0.00000000000E+00 -0.00000000000E+00 -0.45663825106E+04  0.45663825106E+04  0.00000000000E+00 0. -1.
         25    2    1    2    0    0 -0.63204321683E+02 -0.37253507922E+02 -0.14028544675E+03  0.20169728664E+03  0.12497671277E+03 0.  0.
          2    1    1    2  501    0  0.76528652777E+02  0.61221320069E+02 -0.43946025429E+04  0.43956951890E+04  0.00000000000E+00 0. -1.
          1    1    1    2  502    0 -0.13324331094E+02 -0.23967812147E+02  0.77571949886E+03  0.77620405483E+03  0.00000000000E+00 0. -1.
         22    1    3    3    0    0 -0.28205145577E+01 -0.10661803283E+02 -0.13506157059E+03  0.13551109623E+03  0.00000000000E+00 0.  1.
         22    1    3    3    0    0 -0.60383807125E+02 -0.26591704639E+02 -0.52238761620E+01  0.66186190408E+02  0.00000000000E+00 0.  1.
</event>
<event>
 7    1  0.6146596E-006  0.7643578E+02  0.7818608E-02  0.1436366E+00
          2   -1    0    0  502    0  0.00000000000E+00  0.00000000000E+00  0.62195711465E+03  0.62195711465E+03  0.00000000000E+00 0. -1.
          1   -1    0    0  501    0 -0.00000000000E+00 -0.00000000000E+00 -0.29696373477E+03  0.29696373477E+03  0.00000000000E+00 0. -1.
         25    2    1    2    0    0  0.40605604378E+02  0.54008926928E+02 -0.11798405231E+03  0.18469247958E+03  0.12500118447E+03 0.  0.
          2    1    1    2  501    0  0.28369150514E+02 -0.20452864563E+02 -0.14098084609E+03  0.14525400970E+03  0.00000000000E+00 0. -1.
          1    1    1    2  502    0 -0.68974754892E+02 -0.33556062365E+02  0.58395827828E+03  0.58897436015E+03  0.00000000000E+00 0. -1.
         22    1    3    3    0    0  0.27138055785E+02  0.70570138558E+02 -0.13675684662E+03  0.15626597078E+03  0.00000000000E+00 0. -1.
         22    1    3    3    0    0  0.13467548594E+02 -0.16561211630E+02  0.18772794314E+02  0.28426508793E+02  0.00000000000E+00 0. -1.
</event>
<event>
 7    1  0.6146596E-006  0.5573041E+02  0.7818608E-02  0.1435844E+00
          2   -1    0    0  502    0  0.00000000000E+00  0.00000000000E+00  0.34342136020E+03  0.34342136020E+03  0.00000000000E+00 0. -1.
          1   -1    0    0  501    0 -0.00000000000E+00 -0.00000000000E+00 -0.13922933152E+03  0.13922933152E+03  0.00000000000E+00 0. -1.
         25    2    1    2    0    0 -0.89371042739E+02  0.15018575500E+02  0.96769995162E+02  0.18221916915E+03  0.12500661083E+03 0.  0.
          2    1    1    2  501    0  0.45566136531E+02  0.15577821258E+02 -0.86653395971E+02  0.99135020789E+02  0.00000000000E+00 0. -1.
          1    1    1    2  502    0  0.43804906208E+02 -0.30596396758E+02  0.19407542949E+03  0.20129650179E+03  0.00000000000E+00 0. -1.
         22    1    3    3    0    0  0.16407352503E+00  0.54783236768E+02  0.22248533638E+02  0.59128903253E+02  0.00000000000E+00 0.  1.
         22    1    3    3    0    0 -0.89535116264E+02 -0.39764661267E+02  0.74521461524E+02  0.12309026589E+03  0.00000000000E+00 0.  1.
</event>
<event>
 7    1  0.6146596E-006  0.1526996E+03  0.7818608E-02  0.1274412E+00
          2   -1    0    0  502    0  0.00000000000E+00  0.00000000000E+00  0.22424130643E+04  0.22424130643E+04  0.00000000000E+00 0. -1.
          1   -1    0    0  501    0 -0.00000000000E+00 -0.00000000000E+00 -0.58718676377E+02  0.58718676377E+02  0.00000000000E+00 0. -1.
         25    2    1    2    0    0 -0.59328461028E+02 -0.13668725543E+03  0.98759298739E+03  0.10065626622E+04  0.12500084845E+03 0.  0.
          2    1    1    2  501    0 -0.75645546149E+01  0.15469917436E+03  0.76355756618E+02  0.17268253705E+03  0.00000000000E+00 0. -1.
          1    1    1    2  502    0  0.66893015643E+02 -0.18011918931E+02  0.11197456440E+04  0.11218865415E+04  0.00000000000E+00 0. -1.
         22    1    3    3    0    0 -0.30007384868E+02 -0.75580163690E+02  0.84254763675E+03  0.84646283113E+03  0.00000000000E+00 0.  1.
         22    1    3    3    0    0 -0.29321076161E+02 -0.61107091736E+02  0.14504535065E+03  0.16009983108E+03  0.00000000000E+00 0.  1.
</event>
<event>
 7    1  0.6146596E-006  0.1847810E+03  0.7818608E-02  0.1260631E+00
          2   -1    0    0  502    0  0.00000000000E+00  0.00000000000E+00  0.30026513144E+03  0.30026513144E+03  0.00000000000E+00 0. -1.
          1   -1    0    0  501    0 -0.00000000000E+00 -0.00000000000E+00 -0.10493656509E+04  0.10493656509E+04  0.00000000000E+00 0. -1.
         25    2    1    2    0    0 -0.13622387759E+03 -0.16440596342E+03  0.40026672434E+02  0.25062212757E+03  0.12499220252E+03 0.  0.
          2    1    1    2  501    0  0.65178003382E+02  0.58934657376E+01 -0.89380682355E+03  0.89619949950E+03  0.00000000000E+00 0. -1.
          1    1    1    2  502    0  0.71045874203E+02  0.15851249768E+03  0.10467963169E+03  0.20280915525E+03  0.00000000000E+00 0. -1.
         22    1    3    3    0    0 -0.11156070217E+03 -0.37231845901E+02  0.13399944477E+02  0.11837043182E+03  0.00000000000E+00 0. -1.
         22    1    3    3    0    0 -0.24663175419E+02 -0.12717411752E+03  0.26626727957E+02  0.13225169575E+03  0.00000000000E+00 0. -1.
</event>
<event>
 7    1  0.6146596E-006  0.8676484E+02  0.7818608E-02  0.1388469E+00
          2   -1    0    0  502    0  0.00000000000E+00  0.00000000000E+00  0.17673908691E+04  0.17673908691E+04  0.00000000000E+00 0. -1.
          1   -1    0    0  501    0 -0.00000000000E+00 -0.00000000000E+00 -0.96166165874E+03  0.96166165874E+03  0.00000000000E+00 0. -1.
         25    2    1    2    0    0  0.22066764185E+02  0.45391337146E+02  0.30317943674E+03  0.33180913550E+03  0.12502886054E+03 0.  0.
          2    1    1    2  501    0 -0.65019054485E+02 -0.57831914359E+02 -0.94500259570E+03  0.94900048138E+03  0.00000000000E+00 0. -1.
          1    1    1    2  502    0  0.42952290300E+02  0.12440577213E+02  0.14475523693E+04  0.14482429110E+04  0.00000000000E+00 0. -1.
         22    1    3    3    0    0  0.51438689206E+02  0.71049879103E+02  0.15020460101E+03  0.17394092742E+03  0.00000000000E+00 0. -1.
         22    1    3    3    0    0 -0.29371925021E+02 -0.25658541957E+02  0.15297483573E+03  0.15786820808E+03  0.00000000000E+00 0. -1.
</event>
<event>
 7    1  0.6146596E-006  0.6754270E+02  0.7818608E-02  0.1440895E+00
          2   -1    0    0  502    0  0.00000000000E+00  0.00000000000E+00  0.47573063772E+03  0.47573063772E+03  0.00000000000E+00 0. -1.
          1   -1    0    0  501    0 -0.00000000000E+00 -0.00000000000E+00 -0.25391847873E+03  0.25391847873E+03  0.00000000000E+00 0. -1.
         25    2    1    2    0    0 -0.93513732715E+02  0.34116795955E+02 -0.83210036154E+02  0.18016116447E+03  0.12500144437E+03 0.  0.
          2    1    1    2  501    0  0.60607496753E+02 -0.14600487769E+02 -0.11335404697E+03  0.12936608083E+03  0.00000000000E+00 0. -1.
          1    1    1    2  502    0  0.32906235963E+02 -0.19516308186E+02  0.41837624212E+03  0.42012187115E+03  0.00000000000E+00 0. -1.
         22    1    3    3    0    0 -0.15423170483E+02  0.68911980160E+02 -0.56972928854E+02  0.90733950755E+02  0.00000000000E+00 0.  1.
         22    1    3    3    0    0 -0.78090562232E+02 -0.34795184206E+02 -0.26237107300E+02  0.89427213716E+02  0.00000000000E+00 0.  1.
</event>
<event>
 7    1  0.6146596E-006  0.2008461E+03  0.7818608E-02  0.1188911E+00
          2   -1    0    0  502    0  0.00000000000E+00  0.00000000000E+00  0.68723898713E+03  0.68723898713E+03  0.00000000000E+00 0. -1.
          1   -1    0    0  501    0 -0.00000000000E+00 -0.00000000000E+00 -0.39562962008E+03  0.39562962008E+03  0.00000000000E+00 0. -1.
         25    2    1    2    0    0  0.59586720754E+02 -0.11335404917E+03  0.17904732936E+02  0.17984791848E+03  0.12499990628E+03 0.  0.
          2    1    1    2  501    0 -0.62444993042E+02 -0.11076923244E+03 -0.27899219193E+03  0.30660372334E+03  0.00000000000E+00 0. -1.
          1    1    1    2  502    0  0.28582722885E+01  0.22412328160E+03  0.55269682604E+03  0.59641696538E+03  0.00000000000E+00 0. -1.
         22    1    3    3    0    0  0.30109521800E+02 -0.12891936741E+03 -0.14720552313E+02  0.13320465929E+03  0.00000000000E+00 0. -1.
         22    1    3    3    0    0  0.29477198954E+02  0.15565318248E+02  0.32625285249E+02  0.46643259190E+02  0.00000000000E+00 0. -1.
</event>
<event>
 7    1  0.6146596E-006  0.1157911E+03  0.7818608E-02  0.1272100E+00
          2   -1    0    0  502    0  0.00000000000E+00  0.00000000000E+00  0.15764601107E+04  0.15764601107E+04  0.00000000000E+00 0. -1.
          1   -1    0    0  501    0 -0.00000000000E+00 -0.00000000000E+00 -0.14294623591E+04  0.14294623591E+04  0.00000000000E+00 0. -1.
         25    2    1    2    0    0  0.75552152671E+02  0.17224698682E+03 -0.70008804362E+02  0.23643708266E+03  0.12499643645E+03 0.  0.
          2    1    1    2  501    0 -0.73767533572E+02 -0.57307257067E+02 -0.12723122811E+04  0.12757367720E+04  0.00000000000E+00 0. -1.
          1    1    1    2  502    0 -0.17846190991E+01 -0.11493972975E+03  0.14893188371E+04  0.14937486151E+04  0.00000000000E+00 0. -1.
         22    1    3    3    0    0  0.92870163776E+02  0.10356662508E+03 -0.86372877180E+02  0.16374121980E+03  0.00000000000E+00 0. -1.
         22    1    3    3    0    0 -0.17318011105E+02  0.68680361736E+02  0.16364072817E+02  0.72695862853E+02  0.00000000000E+00 0. -1.
</event>
<event>
 7    1  0.6146596E-006  0.3617054E+02  0.7818608E-02  0.1620331E+00
          2   -1    0    0  502    0  0.00000000000E+00  0.00000000000E+00  0.32353579972E+03  0.32353579972E+03  0.00000000000E+00 0. -1.
          1   -1    0    0  501    0 -0.00000000000E+00 -0.00000000000E+00 -0.11916949914E+03  0.11916949914E+03  0.00000000000E+00 0. -1.
         25    2    1    2    0    0 -0.75768622430E+01  0.48214080328E+02  0.21519891648E+03  0.25361010462E+03  0.12500202050E+03 0.  0.
          2    1    1    2  501    0  0.16036282321E+02 -0.14767024633E+02 -0.95348504284E+02  0.97808816762E+02  0.00000000000E+00 0. -1.
          1    1    1    2  502    0 -0.84594200781E+01 -0.33447055695E+02  0.84515888393E+02  0.91286377480E+02  0.00000000000E+00 0. -1.
         22    1    3    3    0    0  0.48564352216E+02  0.97975353277E+01  0.34067406421E+02  0.60125503615E+02  0.00000000000E+00 0. -1.
         22    1    3    3    0    0 -0.56141214459E+02  0.38416545000E+02  0.18113151006E+03  0.19348460101E+03  0.00000000000E+00 0. -1.
</event>
<event>
 7    1  0.6146596E-006  0.8556506E+02  0.7818608E-02  0.1319727E+00
          2   -1    0    0  502    0  0.00000000000E+00  0.00000000000E+00  0.12007865576E+03  0.12007865576E+03  0.00000000000E+00 0. -1.
          1   -1    0    0  501    0 -0.00000000000E+00 -0.00000000000E+00 -0.14261899590E+04  0.14261899590E+04  0.00000000000E+00 0. -1.
         25    2    1    2    0    0 -0.20224315031E+02 -0.80383772787E+01 -0.42417831010E+03  0.44274766577E+03  0.12499847340E+03 0.  0.
          2    1    1    2  501    0  0.90042311056E+02 -0.41427039845E+02 -0.97330591170E+03  0.97833951937E+03  0.00000000000E+00 0. -1.
          1    1    1    2  502    0 -0.69817996025E+02  0.49465417124E+02  0.91372918596E+02  0.12518142959E+03  0.00000000000E+00 0. -1.
         22    1    3    3    0    0  0.53156371009E+02 -0.50140815429E+01 -0.18431408041E+03  0.19189169089E+03  0.00000000000E+00 0. -1.
         22    1    3    3    0    0 -0.73380686040E+02 -0.30242957357E+01 -0.23986422969E+03  0.25085597488E+03  0.00000000000E+00 0. -1.
</event>
<event>
 7    1  0.6146596E-006  0.5257791E+02  0.7818608E-02  0.1439922E+00
          2   -1    0    0  502    0  0.00000000000E+00  0.00000000000E+00  0.14211501795E+04  0.14211501795E+04  0.00000000000E+00 0. -1.
          1   -1    0    0  501    0 -0.00000000000E+00 -0.00000000000E+00 -0.40848937942E+03  0.40848937942E+03  0.00000000000E+00 0. -1.
         25    2    1    2    0    0  0.21934265706E+02 -0.30870796387E+02  0.80658286552E+03  0.81708810546E+03  0.12499173994E+03 0.  0.
          2    1    1    2  501    0 -0.48747592167E+02 -0.19700479031E+02 -0.40016900084E+03  0.40360830746E+03  0.00000000000E+00 0. -1.
          1    1    1    2  502    0  0.26813326460E+02  0.50571275418E+02  0.60624693539E+03  0.60894314599E+03  0.00000000000E+00 0. -1.
         22    1    3    3    0    0  0.47811621852E+02  0.14640575384E+02  0.14389423042E+03  0.15233465522E+03  0.00000000000E+00 0. -1.
         22    1    3    3    0    0 -0.25877356146E+02 -0.45511371770E+02  0.66268863510E+03  0.66475345025E+03  0.00000000000E+00 0. -1.
</event>
<event>
 7    1  0.6146596E-006  0.3788449E+02  0.7818608E-02  0.1559793E+00
          2   -1    0    0  502    0  0.00000000000E+00  0.00000000000E+00  0.50629196937E+03  0.50629196937E+03  0.00000000000E+00 0. -1.
          1   -1    0    0  501    0 -0.00000000000E+00 -0.00000000000E+00 -0.86358928528E+02  0.86358928528E+02  0.00000000000E+00 0. -1.
         25    2    1    2    0    0 -0.97482475958E+01 -0.88425543537E+01  0.10833568316E+03  0.16593475545E+03  0.12499801487E+03 0.  0.
          2    1    1    2  501    0  0.62497957436E+01  0.38742695027E+02 -0.50171765817E+02  0.63696643946E+02  0.00000000000E+00 0. -1.
          1    1    1    2  502    0  0.34984518522E+01 -0.29900140673E+02  0.36176912350E+03  0.36301949851E+03  0.00000000000E+00 0. -1.
         22    1    3    3    0    0 -0.64723962462E+02 -0.16506145564E+02  0.39850380966E+02  0.77779798286E+02  0.00000000000E+00 0.  1.
         22    1    3    3    0    0  0.54975714866E+02  0.76635912107E+01  0.68485302195E+02  0.88154957161E+02  0.00000000000E+00 0.  1.
</event>
<event>
 7    1  0.6146596E-006  0.1401453E+03  0.7818608E-02  0.1422657E+00
          2   -1    0    0  502    0  0.00000000000E+00  0.00000000000E+00  0.10185247576E+03  0.10185247576E+03  0.00000000000E+00 0. -1.
          1   -1    0    0  501    0 -0.00000000000E+00 -0.00000000000E+00 -0.16951410201E+04  0.16951410201E+04  0.00000000000E+00 0. -1.
         25    2    1    2    0    0 -0.12461677037E+03 -0.96521873340E+02 -0.41314140791E+03  0.45951661428E+03  0.12499553744E+03 0.  0.
          2    1    1    2  501    0  0.11684177058E+02  0.17647604681E+02 -0.11983438127E+04  0.11985307052E+04  0.00000000000E+00 0. -1.
          1    1    1    2  502    0  0.11293259331E+03  0.78874268659E+02  0.18196676284E+02  0.13894617633E+03  0.00000000000E+00 0. -1.
         22    1    3    3    0    0 -0.86592316349E+02 -0.12299016676E+03 -0.27008436797E+03  0.30914458784E+03  0.00000000000E+00 0.  1.
         22    1    3    3    0    0 -0.38024454024E+02  0.26468293415E+02 -0.14305703994E+03  0.15037202644E+03  0.00000000000E+00 0.  1.
</event>
<event>
 7    1  0.6146596E-006  0.1529106E+03  0.7818608E-02  0.1289440E+00
          2   -1    0    0  502    0  0.00000000000E+00  0.00000000000E+00  0.49467636778E+03  0.49467636778E+03  0.00000000000E+00 0. -1.
          1   -1    0    0  501    0 -0.00000000000E+00 -0.00000000000E+00 -0.62689006172E+03  0.62689006172E+03  0.00000000000E+00 0. -1.
         25    2    1    2    0    0  0.42386798218E+02 -0.10484656571E+03  0.26496719200E+02  0.17063793736E+03  0.12500314610E+03 0.  0.
          2    1    1    2  501    0  0.53737890471E+02 -0.26661085323E+02 -0.53632947167E+03  0.53967386126E+03  0.00000000000E+00 0. -1.
          1    1    1    2  502    0 -0.96124688689E+02  0.13150765103E+03  0.37761905854E+03  0.41125463088E+03  0.00000000000E+00 0. -1.
         22    1    3    3    0    0  0.68011595407E+02 -0.78455874377E+02 -0.25527196234E+02  0.10692305215E+03  0.00000000000E+00 0. -1.
         22    1    3    3    0    0 -0.25624797189E+02 -0.26390691330E+02  0.52023915434E+02  0.63714885206E+02  0.00000000000E+00 0. -1.
</event>
<event>
 7    1  0.6146596E-006  0.9091584E+02  0.7818608E-02  0.1443588E+00
          2   -1    0    0  502    0  0.00000000000E+00  0.00000000000E+00  0.18597519074E+04  0.18597519074E+04  0.00000000000E+00 0. -1.
          1   -1    0    0  501    0 -0.00000000000E+00 -0.00000000000E+00 -0.32039775472E+03  0.32039775472E+03  0.00000000000E+00 0. -1.
         25    2    1    2    0    0 -0.25973277131E+02  0.95683785745E+02  0.57798449067E+02  0.16969090483E+03  0.12499737793E+03 0.  0.
          2    1    1    2  501    0  0.27428888012E+02 -0.48730761320E+01 -0.26253297469E+03  0.26400691954E+03  0.00000000000E+00 0. -1.
          1    1    1    2  502    0 -0.14556108818E+01 -0.90810709613E+02  0.17440886783E+04  0.17464518377E+04  0.00000000000E+00 0. -1.
         22    1    3    3    0    0  0.17670755590E+01 -0.15350980638E+02 -0.24331590807E+02  0.28823627006E+02  0.00000000000E+00 0.  1.
         22    1    3    3    0    0 -0.27740352690E+02  0.11103476638E+03  0.82130039873E+02  0.14086727783E+03  0.00000000000E+00 0.  1.
</event>
<event>
 7    1  0.6146596E-006  0.1140587E+03  0.7818608E-02  0.1361480E+00
          2   -1    0    0  502    0  0.00000000000E+00  0.00000000000E+00  0.81337538279E+03  0.81337538279E+03  0.00000000000E+00 0. -1.
          1   -1    0    0  501    0 -0.00000000000E+00 -0.00000000000E+00 -0.83898022020E+03  0.83898022020E+03  0.00000000000E+00 0. -1.
         25    2    1    2    0    0 -0.11593165204E+03 -0.46861369168E+02  0.60833679068E+02  0.18698311257E+03  0.12500324800E+03 0.  0.
          2    1    1    2  501    0  0.11384099662E+03  0.44495948180E+01 -0.77106207645E+03  0.77943331796E+03  0.00000000000E+00 0. -1.
          1    1    1    2  502    0  0.20906554183E+01  0.42411774350E+02  0.68462355998E+03  0.68593917246E+03  0.00000000000E+00 0. -1.
         22    1    3    3    0    0 -0.79094595524E+01  0.14771854127E+02 -0.29048794661E+02  0.33535051752E+02  0.00000000000E+00 0. -1.
         22    1    3    3    0    0 -0.10802219249E+03 -0.61633223295E+02  0.89882473729E+02  0.15344806081E+03  0.00000000000E+00 0. -1.
</event>
<event>
 7    1  0.6146596E-006  0.1353717E+03  0.7818608E-02  0.1377114E+00
          2   -1    0    0  502    0  0.00000000000E+00  0.00000000000E+00  0.11738872071E+04  0.11738872071E+04  0.00000000000E+00 0. -1.
          1   -1    0    0  501    0 -0.00000000000E+00 -0.00000000000E+00 -0.80297918774E+03  0.80297918774E+03  0.00000000000E+00 0. -1.
         25    2    1    2    0    0 -0.33847681056E+01  0.12515926837E+03  0.53942083104E+03  0.56769401139E+03  0.12500143398E+03 0.  0.
          2    1    1    2  501    0  0.27657588583E+02  0.14930149709E+02 -0.78037554276E+03  0.78100821975E+03  0.00000000000E+00 0. -1.
          1    1    1    2  502    0 -0.24272820477E+02 -0.14008941808E+03  0.61186273110E+03  0.62816416372E+03  0.00000000000E+00 0. -1.
         22    1    3    3    0    0  0.65192842918E+01 -0.25158693975E+02  0.68478589719E+02  0.73244646221E+02  0.00000000000E+00 0. -1.
         22    1    3    3    0    0 -0.99040523973E+01  0.15031796234E+03  0.47094224132E+03  0.49444936517E+03  0.00000000000E+00 0. -1.
</event>
<event>
 7    1  0.6146596E-006  0.1309896E+03  0.7818608E-02  0.1318242E+00
          2   -1    0    0  502    0  0.00000000000E+00  0.00000000000E+00  0.24514518804E+04  0.24514518804E+04  0.00000000000E+00 0. -1.
          1   -1    0    0  501    0 -0.00000000000E+00 -0.00000000000E+00 -0.12177280202E+03  0.12177280202E+03  0.00000000000E+00 0. -1.
         25    2    1    2    0    0  0.12787144600E+03  0.34285665913E+02  0.46828412079E+02  0.18800222349E+03  0.12500128907E+03 0.  0.
          2    1    1    2  501    0  0.19125051311E+01 -0.53749183925E+02 -0.34669754401E+02  0.63989251588E+02  0.00000000000E+00 0. -1.
          1    1    1    2  502    0 -0.12978395113E+03  0.19463518013E+02  0.23175204207E+04  0.23212332074E+04  0.00000000000E+00 0. -1.
         22    1    3    3    0    0  0.60372058910E+02  0.77005702515E+02  0.53578187697E+01  0.97996785350E+02  0.00000000000E+00 0.  1.
         22    1    3    3    0    0  0.67499387088E+02 -0.42720036602E+02  0.41470593309E+02  0.90005438136E+02  0.00000000000E+00 0.  1.
</event>
<event>
 7    1  0.6146596E-006  0.6836904E+02  0.7818608E-02  0.1447186E+00
          2   -1    0    0  502    0  0.00000000000E+00  0.00000000000E+00  0.83137722328E+03  0.83137722328E+03  0.00000000000E+00 0. -1.
          1   -1    0    0  501    0 -0.00000000000E+00 -0.00000000000E+00 -0.38412045401E+03  0.38412045401E+03  0.00000000000E+00 0. -1.
         25    2    1    2    0    0  0.68894715878E+01  0.66499342022E+02 -0.18874411593E+01  0.14176642304E+03  0.12499811583E+03 0.  0.
          2    1    1    2  501    0 -0.35813746114E+02 -0.42935690613E+01 -0.30969951355E+03  0.31179295669E+03  0.00000000000E+00 0. -1.
          1    1    1    2  502    0  0.28924274527E+02 -0.62205772961E+02  0.75884372399E+03  0.76193829756E+03  0.00000000000E+00 0. -1.
         22    1    3    3    0    0  0.14146401946E+02  0.99619289800E+02  0.18353030640E+02  0.10227882147E+03  0.00000000000E+00 0.  1.
         22    1    3    3    0    0 -0.72569303579E+01 -0.33119947778E+02 -0.20240471800E+02  0.39487601569E+02  0.00000000000E+00 0.  1.
</event>
<event>
 7    1  0.6146596E-006  0.1800528E+03  0.7818608E-02  0.1187093E+00
          2   -1    0    0  502    0  0.00000000000E+00  0.00000000000E+00  0.19817475125E+03  0.19817475125E+03  0.00000000000E+00 0. -1.
          1   -1    0    0  501    0 -0.00000000000E+00 -0.00000000000E+00 -0.62507763429E+03  0.62507763429E+03  0.00000000000E+00 0. -1.
         25    2    1    2    0    0 -0.16053836156E+03 -0.17257119499E+03 -0.26128804835E+03  0.37342934675E+03  0.12499859972E+03 0.  0.
          2    1    1    2  501    0 -0.13915744508E+02  0.14406089031E+03 -0.22135765423E+03  0.26447381562E+03  0.00000000000E+00 0. -1.
          1    1    1    2  502    0  0.17445410607E+03  0.28510304680E+02  0.55742819537E+02  0.18534922316E+03  0.00000000000E+00 0. -1.
         22    1    3    3    0    0 -0.63824551354E+02 -0.50450657811E+02 -0.18041224086E+03  0.19790760188E+03  0.00000000000E+00 0.  1.
         22    1    3    3    0    0 -0.96713810208E+02 -0.12212053718E+03 -0.80875807489E+02  0.17552174487E+03  0.00000000000E+00 0.  1.
</event>
<event>
 7    1  0.6146596E-006  0.6026793E+02  0.7818608E-02  0.1445608E+00
          2   -1    0    0  502    0  0.00000000000E+00  0.00000000000E+00  0.20250497580E+03  0.20250497580E+03  0.00000000000E+00 0. -1.
          1   -1    0    0  501    0 -0.00000000000E+00 -0.00000000000E+00 -0.21420049707E+03  0.21420049707E+03  0.00000000000E+00 0. -1.
         25    2    1    2    0    0  0.68722197695E+01  0.37556936724E+02  0.66524691999E+02  0.14665776714E+03  0.12500086047E+03 0.  0.
          2    1    1    2  501    0 -0.48252943396E+02 -0.38803579765E+02 -0.16372777537E+03  0.17504527637E+03  0.00000000000E+00 0. -1.
          1    1    1    2  502    0  0.41380723627E+02  0.12466430407E+01  0.85507562107E+02  0.95002429360E+02  0.00000000000E+00 0. -1.
         22    1    3    3    0    0 -0.68483356866E+01  0.78540340538E+02  0.66959795259E+02  0.10343644897E+03  0.00000000000E+00 0. -1.
         22    1    3    3    0    0  0.13720555456E+02 -0.40983403813E+02 -0.43510325982E+00  0.43221318178E+02  0.00000000000E+00 0. -1.
</event>
<event>
 7    1  0.6146596E-006  0.2364926E+03  0.7818608E-02  0.1292790E+00
          2   -1    0    0  502    0  0.00000000000E+00  0.00000000000E+00  0.25958745498E+04  0.25958745498E+04  0.00000000000E+00 0. -1.
          1   -1    0    0  501    0 -0.00000000000E+00 -0.00000000000E+00 -0.11332101053E+04  0.11332101053E+04  0.00000000000E+00 0. -1.
         25    2    1    2    0    0 -0.21631070598E+03 -0.14049323768E+03 -0.45608724689E+03  0.53867376613E+03  0.12500071274E+03 0.  0.
          2    1    1    2  501    0  0.19949884703E+03  0.10687082243E+03 -0.61554629150E+03  0.65583412509E+03  0.00000000000E+00 0. -1.
          1    1    1    2  502    0  0.16811858950E+02  0.33622415255E+02  0.25342979829E+04  0.25345767638E+04  0.00000000000E+00 0. -1.
         22    1    3    3    0    0 -0.15221179860E+03 -0.59701548857E+02 -0.17611390774E+03  0.24030983140E+03  0.00000000000E+00 0.  1.
         22    1    3    3    0    0 -0.64098907380E+02 -0.80791688824E+02 -0.27997333915E+03  0.29836393473E+03  0.00000000000E+00 0.  1.
</event>
<event>
 7    1  0.6146596E-006  0.8566210E+02  0.7818608E-02  0.1426079E+00
          2   -1    0    0  502    0  0.00000000000E+00  0.00000000000E+00  0.24626474526E+04  0.24626474526E+04  0.00000000000E+00 0. -1.
          1   -1    0    0  501    0 -0.00000000000E+00 -0.00000000000E+00 -0.22450361193E+02  0.22450361193E+02  0.00000000000E+00 0. -1.
         25    2    1    2    0    0  0.10014446307E+03  0.19475548021E+02  0.89774691422E+03  0.91213111999E+03  0.12500179044E+03 0.  0.
          2    1    1    2  501    0 -0.26676790984E+02  0.20645989632E+02  0.60297318289E+01  0.34267560914E+02  0.00000000000E+00 0. -1.
          1    1    1    2  502    0 -0.73467672089E+02 -0.40121537654E+02  0.15364204454E+04  0.15386991329E+04  0.00000000000E+00 0. -1.
         22    1    3    3    0    0  0.77792790445E+02  0.66693561238E+02  0.70590887625E+03  0.71330715048E+03  0.00000000000E+00 0. -1.
         22    1    3    3    0    0  0.22351672628E+02 -0.47218013217E+02  0.19183803797E+03  0.19882396952E+03  0.00000000000E+00 0. -1.
</event>
<event>
 7    1  0.6146596E-006  0.2024853E+03  0.7818608E-02  0.1208514E+00
          2   -1    0    0  502    0  0.00000000000E+00  0.00000000000E+00  0.10595800580E+04  0.10595800580E+04  0.00000000000E+00 0. -1.
          1   -1    0    0  501    0 -0.00000000000E+00 -0.00000000000E+00 -0.21124713153E+03  0.21124713153E+03  0.00000000000E+00 0. -1.
         25    2    1    2    0    0  0.12378322296E+03 -0.18343206085E+02  0.44417873514E+03  0.47809548775E+03  0.12498714798E+03 0.  0.
          2    1    1    2  501    0 -0.19101693891E+03  0.94908611718E+02 -0.12943767191E+03  0.24949794876E+03  0.00000000000E+00 0. -1.
          1    1    1    2  502    0  0.67233715948E+02 -0.76565405633E+02  0.53359186319E+03  0.54323375297E+03  0.00000000000E+00 0. -1.
         22    1    3    3    0    0  0.11418835374E+03  0.34065424678E+02  0.35204660560E+03  0.37166684786E+03  0.00000000000E+00 0.  1.
         22    1    3    3    0    0  0.95948692223E+01 -0.52408630763E+02  0.92132129542E+02  0.10642863989E+03  0.00000000000E+00 0.  1.
</event>
<event>
 7    1  0.6146596E-006  0.1245340E+03  0.7818608E-02  0.1393645E+00
          2   -1    0    0  502    0  0.00000000000E+00  0.00000000000E+00  0.45481380089E+02  0.45481380089E+02  0.00000000000E+00 0. -1.
          1   -1    0    0  501    0 -0.00000000000E+00 -0.00000000000E+00 -0.14592781187E+04  0.14592781187E+04  0.00000000000E+00 0. -1.
         25    2    1    2    0    0  0.12378524139E+03  0.68722109099E+02 -0.78453421214E+03  0.80694929509E+03  0.12501088182E+03 0.  0.
          2    1    1    2  501    0 -0.80626684681E+01 -0.28780381072E+02 -0.55251030543E+03  0.55331813142E+03  0.00000000000E+00 0. -1.
          1    1    1    2  502    0 -0.11572257292E+03 -0.39941728027E+02 -0.76752221092E+02  0.14449207232E+03  0.00000000000E+00 0. -1.
         22    1    3    3    0    0 -0.79268277233E+01  0.33529329513E+01  0.14885076798E+00  0.86080725880E+01  0.00000000000E+00 0. -1.
         22    1    3    3    0    0  0.13171206911E+03  0.65369176148E+02 -0.78468306291E+03  0.79834122251E+03  0.00000000000E+00 0. -1.
</event>
<event>
 7    1  0.6146596E-006  0.5560651E+02  0.7818608E-02  0.1457205E+00
          2   -1    0    0  502    0  0.00000000000E+00  0.00000000000E+00  0.72467668583E+02  0.72467668583E+02  0.00000000000E+00 0. -1.
          1   -1    0    0  501    0 -0.00000000000E+00 -0.00000000000E+00 -0.15028675565E+04  0.15028675565E+04  0.00000000000E+00 0. -1.
         25    2    1    2    0    0  0.44453519577E+02  0.52770131842E+02 -0.10847097645E+03  0.17931003146E+03  0.12500132971E+03 0.  0.
          2    1    1    2  501    0 -0.54132290475E+02 -0.12720424404E+02 -0.13467673545E+04  0.13479148420E+04  0.00000000000E+00 0. -1.
          1    1    1    2  502    0  0.96787708978E+01 -0.40049707438E+02  0.24838443117E+02  0.48110351573E+02  0.00000000000E+00 0. -1.
         22    1    3    3    0    0 -0.90989288338E+01 -0.30574933088E+02 -0.62342685505E+02  0.70030189742E+02  0.00000000000E+00 0. -1.
         22    1    3    3    0    0  0.53552448411E+02  0.83345064930E+02 -0.46128290949E+02  0.10927984171E+03  0.00000000000E+00 0. -1.
</event>
<event>
 7    1  0.6146596E-006  0.1976684E+03  0.7818608E-02  0.1203840E+00
          2   -1    0    0  502    0  0.00000000000E+00  0.00000000000E+00  0.49628387297E+03  0.49628387297E+03  0.00000000000E+00 0. -1.
          1   -1    0    0  501    0 -0.00000000000E+00 -0.00000000000E+00 -0.11400524985E+04  0.11400524985E+04  0.00000000000E+00 0. -1.
         25    2    1    2    0    0 -0.79697046777E+02 -0.52717554939E+02  0.17144239111E+03  0.23269710824E+03  0.12499876341E+03 0.  0.
          2    1    1    2  501    0  0.18605776329E+03  0.79801961689E+02 -0.10895295488E+04  0.11081789034E+04  0.00000000000E+00 0. -1.
          1    1    1    2  502    0 -0.10636071651E+03 -0.27084406750E+02  0.27431853216E+03  0.29546035976E+03  0.00000000000E+00 0. -1.
         22    1    3    3    0    0 -0.60104526975E+02 -0.58995383519E+02  0.29447902542E+02  0.89219887938E+02  0.00000000000E+00 0.  1.
         22    1    3    3    0    0 -0.19592519802E+02  0.62778285809E+01  0.14199448857E+03  0.14347722031E+03  0.00000000000E+00 0.  1.
</event>
<event>
 7    1  0.6146596E-006  0.1012405E+03  0.7818608E-02  0.1445156E+00
          2   -1    0    0  502    0  0.00000000000E+00  0.00000000000E+00  0.45023675392E+03  0.45023675392E+03  0.00000000000E+00 0. -1.
          1   -1    0    0  501    0 -0.00000000000E+00 -0.00000000000E+00 -0.24321320357E+03  0.24321320357E+03  0.00000000000E+00 0. -1.
         25    2    1    2    0    0 -0.11413407961E+03 -0.36077055914E+01  0.42509887868E+02  0.17456064511E+03  0.12499889834E+03 0.  0.
          2    1    1    2  501    0  0.98561672433E+02 -0.15600614577E+02 -0.16263437412E+03  0.19080807659E+03  0.00000000000E+00 0. -1.
          1    1    1    2  502    0  0.15572407179E+02  0.19208320168E+02  0.32714803660E+03  0.32808123580E+03  0.00000000000E+00 0. -1.
         22    1    3    3    0    0 -0.12086609856E+03 -0.26677254884E+02  0.66581240105E+02  0.14054661591E+03  0.00000000000E+00 0. -1.
         22    1    3    3    0    0  0.67320189517E+01  0.23069549293E+02 -0.24071352236E+02  0.34014029197E+02  0.00000000000E+00 0. -1.
</event>
<event>
 7    1  0.6146596E-006  0.8524713E+02  0.7818608E-02  0.1383894E+00
          2   -1    0    0  502    0  0.00000000000E+00  0.00000000000E+00  0.97052866849E+03  0.97052866849E+03  0.00000000000E+00 0. -1.
          1   -1    0    0  501    0 -0.00000000000E+00 -0.00000000000E+00 -0.45555611461E+02  0.45555611461E+02  0.00000000000E+00 0. -1.
         25    2    1    2    0    0 -0.66219059478E+02  0.66262699303E+02  0.22239575431E+03  0.27179034061E+03  0.12503762855E+03 0.  0.
          2    1    1    2  501    0  0.21924078947E+02 -0.82646900934E+02  0.71523964020E+02  0.11147579513E+03  0.00000000000E+00 0. -1.
          1    1    1    2  502    0  0.44294980531E+02  0.16384201631E+02  0.63105333869E+03  0.63281814421E+03  0.00000000000E+00 0. -1.
         22    1    3    3    0    0  0.35813997618E+02  0.28528122649E+02  0.48742264784E+02  0.66875291278E+02  0.00000000000E+00 0.  1.
         22    1    3    3    0    0 -0.10203305710E+03  0.37734576654E+02  0.17365348953E+03  0.20491504933E+03  0.00000000000E+00 0.  1.
</event>
<event>
 7    1  0.6146596E-006  0.5955569E+02  0.7818608E-02  0.1490496E+00
          2   -1    0    0  502    0  0.00000000000E+00  0.00000000000E+00  0.89736036357E+03  0.89736036357E+03  0.00000000000E+00 0. -1.
          1   -1    0    0  501    0 -0.00000000000E+00 -0.00000000000E+00 -0.89659589452E+02  0.89659589452E+02  0.00000000000E+00 0. -1.
         25    2    1    2    0    0  0.17251360292E+02 -0.43477893554E+02  0.61655537378E+03  0.63083547576E+03  0.12499972751E+03 0.  0.
          2    1    1    2  501    0  0.29555637159E+02 -0.68831919048E+01 -0.75208364974E+02  0.81100013444E+02  0.00000000000E+00 0. -1.
          1    1    1    2  502    0 -0.46806997451E+02  0.50361085459E+02  0.26635376532E+03  0.27508446382E+03  0.00000000000E+00 0. -1.
         22    1    3    3    0    0  0.68653930713E+02 -0.40484001208E+02  0.31566731293E+03  0.32557359999E+03  0.00000000000E+00 0. -1.
         22    1    3    3    0    0 -0.51402570421E+02 -0.29938923467E+01  0.30088806085E+03  0.30526187577E+03  0.00000000000E+00 0. -1.
</event>
<event>
 7    1  0.6146596E-006  0.1161745E+03  0.7818608E-02  0.1340440E+00
          2   -1    0    0  502    0  0.00000000000E+00  0.00000000000E+00  0.26497818389E+03  0.26497818389E+03  0.00000000000E+00 0. -1.
          1   -1    0    0  501    0 -0.00000000000E+00 -0.00000000000E+00 -0.45403768978E+03  0.45403768978E+03  0.00000000000E+00 0. -1.
         25    2    1    2    0    0  0.20468119650E+02 -0.13108911408E+03  0.75467907899E+01  0.18244168370E+03  0.12499885658E+03 0.  0.
          2    1    1    2  501    0 -0.45796662948E+02  0.19751242419E+02 -0.34542020517E+03  0.34900224076E+03  0.00000000000E+00 0. -1.
          1    1    1    2  502    0  0.25328543298E+02  0.11133787166E+03  0.14881390848E+03  0.18757194921E+03  0.00000000000E+00 0. -1.
         22    1    3    3    0    0 -0.26844251216E+02 -0.71644470252E+02 -0.46202291503E+02  0.89376706591E+02  0.00000000000E+00 0.  1.
         22    1    3    3    0    0  0.47312370867E+02 -0.59444643832E+02  0.53749082292E+02  0.93064977111E+02  0.00000000000E+00 0.  1.
</event>
<event>
 7    1  0.6146596E-006  0.9690685E+02  0.7818608E-02  0.1391461E+00
          2   -1    0    0  502    0  0.00000000000E+00  0.00000000000E+00  0.28045986152E+04  0.28045986152E+04  0.00000000000E+00 0. -1.
          1   -1    0    0  501    0 -0.00000000000E+00 -0.00000000000E+00 -0.67995620281E+03  0.67995620281E+03  0.00000000000E+00 0. -1.
         25    2    1    2    0    0 -0.68370071140E+02 -0.33319310225E+02 -0.83803317433E+02  0.16861687909E+03  0.12499605129E+03 0.  0.
          2    1    1    2  501    0 -0.28493272759E+02  0.26756406386E+02 -0.55220199404E+03  0.55358361076E+03  0.00000000000E+00 0. -1.
          1    1    1    2  502    0  0.96863343899E+02  0.65629038390E+01  0.27606477239E+04  0.27623543282E+04  0.00000000000E+00 0. -1.
         22    1    3    3    0    0  0.11238342033E+02 -0.43691013832E+02 -0.75441709477E+02  0.87901402435E+02  0.00000000000E+00 0. -1.
         22    1    3    3    0    0 -0.79608413173E+02  0.10371703606E+02 -0.83616079559E+01  0.80715476652E+02  0.00000000000E+00 0. -1.
</event>
<event>
 7    1  0.6146596E-006  0.7788860E+02  0.7818608E-02  0.1360192E+00
          2   -1    0    0  502    0  0.00000000000E+00  0.00000000000E+00  0.39222922263E+03  0.39222922263E+03  0.00000000000E+00 0. -1.
          1   -1    0    0  501    0 -0.00000000000E+00 -0.00000000000E+00 -0.14939845238E+03  0.14939845238E+03  0.00000000000E+00 0. -1.
         25    2    1    2    0    0  0.38957329127E+02  0.29746915244E+02 -0.23532144468E+02  0.13630961377E+03  0.12499598603E+03 0.  0.
          2    1    1    2  501    0  0.22552316702E+02 -0.77529737915E+02 -0.39362503378E+02  0.89826910900E+02  0.00000000000E+00 0. -1.
          1    1    1    2  502    0 -0.61509645829E+02  0.47782822671E+02  0.30572541810E+03  0.31549115034E+03  0.00000000000E+00 0. -1.
         22    1    3    3    0    0  0.26957351258E+02 -0.31407247585E+02 -0.53104273213E+02  0.67328878063E+02  0.00000000000E+00 0.  1.
         22    1    3    3    0    0  0.11999977869E+02  0.61154162829E+02  0.29572128745E+02  0.68980735707E+02  0.00000000000E+00 0.  1.
</event>
<event>
 7    1  0.6146596E-006  0.4941134E+02  0.7818608E-02  0.1543617E+00
          2   -1    0    0  502    0  0.00000000000E+00  0.00000000000E+00  0.48900739006E+02  0.48900739006E+02  0.00000000000E+00 0. -1.
          1   -1    0    0  501    0 -0.00000000000E+00 -0.00000000000E+00 -0.13228423616E+04  0.13228423616E+04  0.00000000000E+00 0. -1.
         25    2    1    2    0    0  0.12264425542E+02  0.54904367508E+02 -0.72727135659E+03  0.74007400280E+03  0.12498399015E+03 0.  0.
          2    1    1    2  501    0  0.19255777277E+02 -0.16873189404E+02 -0.57443509133E+03  0.57500535965E+03  0.00000000000E+00 0. -1.
          1    1    1    2  502    0 -0.31520202819E+02 -0.38031178105E+02  0.27764825341E+02  0.56663738140E+02  0.00000000000E+00 0. -1.
         22    1    3    3    0    0  0.44519066053E+02  0.28744427528E+02 -0.11758076683E+03  0.12897064040E+03  0.00000000000E+00 0.  1.
         22    1    3    3    0    0 -0.32254640511E+02  0.26159939980E+02 -0.60969058976E+03  0.61110336240E+03  0.00000000000E+00 0.  1.
</event>
<event>
 7    1  0.6146596E-006  0.2153218E+03  0.7818608E-02  0.1223913E+00
          2   -1    0    0  502    0  0.00000000000E+00  0.00000000000E+00  0.18253891149E+04  0.18253891149E+04  0.00000000000E+00 0. -1.
          1   -1    0    0  501    0 -0.00000000000E+00 -0.00000000000E+00 -0.77155728151E+03  0.77155728151E+03  0.00000000000E+00 0. -1.
         25    2    1    2    0    0 -0.18436143629E+03 -0.15754682564E+03  0.15474217971E+03  0.31365627537E+03  0.12499990174E+03 0.  0.
          2    1    1    2  501    0  0.10777323506E+03  0.18521537672E+03 -0.67443496914E+03  0.70765975833E+03  0.00000000000E+00 0. -1.
          1    1    1    2  502    0  0.76588201230E+02 -0.27668551071E+02  0.15735246228E+04  0.15756303627E+04  0.00000000000E+00 0. -1.
         22    1    3    3    0    0 -0.46619125994E+02 -0.73533449172E+02  0.12059535465E+03  0.14874054800E+03  0.00000000000E+00 0.  1.
         22    1    3    3    0    0 -0.13774231030E+03 -0.84013376472E+02  0.34146825064E+02  0.16491572737E+03  0.00000000000E+00 0.  1.
</event>
<event>
 7    1  0.6146596E-006  0.4451526E+02  0.7818608E-02  0.1550260E+00
          2   -1    0    0  502    0  0.00000000000E+00  0.00000000000E+00  0.95833862291E+03  0.95833862291E+03  0.00000000000E+00 0. -1.
          1   -1    0    0  501    0 -0.00000000000E+00 -0.00000000000E+00 -0.90529152565E+02  0.90529152565E+02  0.00000000000E+00 0. -1.
         25    2    1    2    0    0  0.34662632640E+02  0.59694684307E+02  0.27015252312E+03  0.30556772404E+03  0.12499717914E+03 0.  0.
          2    1    1    2  501    0 -0.19730887385E+02 -0.18761143169E+02 -0.69540975494E+02  0.74680892353E+02  0.00000000000E+00 0. -1.
          1    1    1    2  502    0 -0.14931745256E+02 -0.40933541139E+02  0.66719792272E+03  0.66861915908E+03  0.00000000000E+00 0. -1.
         22    1    3    3    0    0  0.25018709733E+02  0.98946290070E+02  0.18415967064E+03  0.21054949167E+03  0.00000000000E+00 0. -1.
         22    1    3    3    0    0  0.96439229069E+01 -0.39251605763E+02  0.85992852482E+02  0.95018232366E+02  0.00000000000E+00 0. -1.
</event>
<event>
 7    1  0.6146596E-006  0.9486844E+02  0.7818608E-02  0.1345054E+00
          2   -1    0    0  502    0  0.00000000000E+00  0.00000000000E+00  0.70898664786E+03  0.70898664786E+03  0.00000000000E+00 0. -1.
          1   -1    0    0  501    0 -0.00000000000E+00 -0.00000000000E+00 -0.77952878584E+03  0.77952878584E+03  0.00000000000E+00 0. -1.
         25    2    1    2    0    0 -0.85131763848E+01 -0.11723832453E+03  0.19413758417E+03  0.25909739334E+03  0.12499903496E+03 0.  0.
          2    1    1    2  501    0  0.48690671054E+02  0.32772072741E+02 -0.74134382047E+03  0.74366353302E+03  0.00000000000E+00 0. -1.
          1    1    1    2  502    0 -0.40177494669E+02  0.84466251784E+02  0.47666409832E+03  0.48575450733E+03  0.00000000000E+00 0. -1.
         22    1    3    3    0    0  0.38794310513E+02  0.47006580553E+00  0.19993861754E+02  0.43646007811E+02  0.00000000000E+00 0.  1.
         22    1    3    3    0    0 -0.47307486898E+02 -0.11770839033E+03  0.17414372242E+03  0.21545138553E+03  0.00000000000E+00 0.  1.
</event>
<event>
 7    1  0.6146596E-006  0.1278745E+03  0.7818608E-02  0.1277409E+00
          2   -1    0    0  502    0  0.00000000000E+00  0.00000000000E+00  0.96743284874E+02  0.96743284874E+02  0.00000000000E+00 0. -1.
          1   -1    0    0  501    0 -0.00000000000E+00 -0.00000000000E+00 -0.17064176294E+04  0.17064176294E+04  0.00000000000E+00 0. -1.
         25    2    1    2    0    0  0.99373785714E+02  0.34935709597E+02 -0.36288317896E+03  0.39800142592E+03  0.12500112150E+03 0.  0.
          2    1    1    2  501    0 -0.24660084374E+02  0.76507487406E+02 -0.12669374065E+04  0.12694848984E+04  0.00000000000E+00 0. -1.
          1    1    1    2  502    0 -0.74713701341E+02 -0.11144319700E+03  0.20146240918E+02  0.13567458992E+03  0.00000000000E+00 0. -1.
         22    1    3    3    0    0  0.88583445948E+02 -0.18906014684E+02 -0.12814186075E+03  0.15692291344E+03  0.00000000000E+00 0. -1.
         22    1    3    3    0    0  0.10790339766E+02  0.53841724280E+02 -0.23474131821E+03  0.24107851248E+03  0.00000000000E+00 0. -1.
</event>
<event>
 7    1  0.6146596E-006  0.4009655E+03  0.7818608E-02  0.1203807E+00
          2   -1    0    0  502    0  0.00000000000E+00  0.00000000000E+00  0.78395457879E+03  0.78395457879E+03  0.00000000000E+00 0. -1.
          1   -1    0    0  501    0 -0.00000000000E+00 -0.00000000000E+00 -0.21360048268E+04  0.21360048268E+04  0.00000000000E+00 0. -1.
         25    2    1    2    0    0  0.21340943763E+03 -0.39698378508E+03  0.17040445982E+03  0.49779746612E+03  0.12499969467E+03 0.  0.
          2    1    1    2  501    0 -0.17824222199E+03  0.35583869464E+03 -0.19505098059E+04  0.19906983622E+04  0.00000000000E+00 0. -1.
          1    1    1    2  502    0 -0.35167215646E+02  0.41145090434E+02  0.42805509808E+03  0.43146357727E+03  0.00000000000E+00 0. -1.
         22    1    3    3    0    0  0.18789045750E+03 -0.25084648349E+03  0.15195469773E+03  0.34830591792E+03  0.00000000000E+00 0. -1.
         22    1    3    3    0    0  0.25518980135E+02 -0.14613730159E+03  0.18449762091E+02  0.14949154820E+03  0.00000000000E+00 0. -1.
</event>
<event>
 7    1  0.6146596E-006  0.8539697E+02  0.7818608E-02  0.1384137E+00
          2   -1    0    0  502    0  0.00000000000E+00  0.00000000000E+00  0.30272792461E+04  0.30272792461E+04  0.00000000000E+00 0. -1.
          1   -1    0    0  501    0 -0.00000000000E+00 -0.00000000000E+00 -0.25737485602E+03  0.25737485602E+03  0.00000000000E+00 0. -1.
         25    2    1    2    0    0  0.42329748265E+02  0.22209284604E+01  0.73930607575E+03  0.75099552761E+03  0.12499627491E+03 0.  0.
          2    1    1    2  501    0 -0.83211960395E+02  0.21072405885E+02 -0.24395627464E+03  0.25861736326E+03  0.00000000000E+00 0. -1.
          1    1    1    2  502    0  0.40882212129E+02 -0.23293334345E+02  0.22745545890E+04  0.22750412113E+04  0.00000000000E+00 0. -1.
         22    1    3    3    0    0  0.20468606323E+02 -0.46148472044E+02  0.13120734705E+03  0.14058454124E+03  0.00000000000E+00 0.  1.
         22    1    3    3    0    0  0.21861141942E+02  0.48369400505E+02  0.60809872871E+03  0.61041098637E+03  0.00000000000E+00 0.  1.
</event>
<event>
 7    1  0.6146596E-006  0.1974742E+03  0.7818608E-02  0.1220000E+00
          2   -1    0    0  502    0  0.00000000000E+00  0.00000000000E+00  0.27019475644E+04  0.27019475644E+04  0.00000000000E+00 0. -1.
          1   -1    0    0  501    0 -0.00000000000E+00 -0.00000000000E+00 -0.62237705373E+03  0.62237705373E+03  0.00000000000E+00 0. -1.
         25    2    1    2    0    0  0.15435238893E+03 -0.11832845827E+03 -0.20082767537E+03  0.30624117972E+03  0.12500248379E+03 0.  0.
          2    1    1    2  501    0 -0.90808473835E+02  0.18555232898E+03 -0.33903653005E+03  0.39701588686E+03  0.00000000000E+00 0. -1.
          1    1    1    2  502    0 -0.63543915098E+02 -0.67223870708E+02  0.26194347161E+04  0.26210675516E+04  0.00000000000E+00 0. -1.
         22    1    3    3    0    0  0.98096337612E+01  0.10328802690E+00 -0.86757505854E+02  0.87310391163E+02  0.00000000000E+00 0. -1.
         22    1    3    3    0    0  0.14454275517E+03 -0.11843174630E+03 -0.11407016951E+03  0.21893078855E+03  0.00000000000E+00 0. -1.
</event>
<event>
 7    1  0.6146596E-006  0.4988719E+02  0.7818608E-02  0.1531520E+00
          2   -1    0    0  502    0  0.00000000000E+00  0.00000000000E+00  0.33618607940E+03  0.33618607940E+03  0.00000000000E+00 0. -1.
          1   -1    0    0  501    0 -0.00000000000E+00 -0.00000000000E+00 -0.22830525941E+03  0.22830525941E+03  0.00000000000E+00 0. -1.
         25    2    1    2    0    0 -0.10934069509E+02  0.23425363753E+02  0.66769908940E+02  0.14405999665E+03  0.12500704121E+03 0.  0.
          2    1    1    2  501    0  0.57649389186E+01 -0.50376951836E+02 -0.18542822923E+03  0.19223605279E+03  0.00000000000E+00 0. -1.
          1    1    1    2  502    0  0.51691305903E+01  0.26951588083E+02  0.22653914028E+03  0.22819528937E+03  0.00000000000E+00 0. -1.
         22    1    3    3    0    0 -0.49327277531E+00  0.87807563794E+01 -0.37363624759E+02  0.38384703408E+02  0.00000000000E+00 0.  1.
         22    1    3    3    0    0 -0.10440796734E+02  0.14644607374E+02  0.10413353370E+03  0.10567529324E+03  0.00000000000E+00 0.  1.
</event>
<event>
 7    1  0.6146596E-006  0.1799047E+03  0.7818608E-02  0.1257908E+00
          2   -1    0    0  502    0  0.00000000000E+00  0.00000000000E+00  0.81255552436E+03  0.81255552436E+03  0.00000000000E+00 0. -1.
          1   -1    0    0  501    0 -0.00000000000E+00 -0.00000000000E+00 -0.71041289491E+03  0.71041289491E+03  0.00000000000E+00 0. -1.
         25    2    1    2    0    0  0.17701496214E+03  0.12834971334E+03  0.93659022928E+02  0.26871080063E+03  0.12500214425E+03 0.  0.
          2    1    1    2  501    0 -0.12261881817E+02 -0.67944871197E+02 -0.60870502251E+03  0.61260808327E+03  0.00000000000E+00 0. -1.
          1    1    1    2  502    0 -0.16475308032E+03 -0.60404842139E+02  0.61718862903E+03  0.64164953537E+03  0.00000000000E+00 0. -1.
         22    1    3    3    0    0  0.17075744599E+03  0.12009845486E+03  0.38119560905E+02  0.21221414926E+03  0.00000000000E+00 0.  1.
         22    1    3    3    0    0  0.62575161469E+01  0.82512584724E+01  0.55539462023E+02  0.56496651374E+02  0.00000000000E+00 0.  1.
</event>
<event>
 7    1  0.6146596E-006  0.1417938E+03  0.7818608E-02  0.1350560E+00
          2   -1    0    0  502    0  0.00000000000E+00  0.00000000000E+00  0.12263161749E+04  0.12263161749E+04  0.00000000000E+00 0. -1.
          1   -1    0    0  501    0 -0.00000000000E+00 -0.00000000000E+00 -0.52431400251E+03  0.52431400251E+03  0.00000000000E+00 0. -1.
         25    2    1    2    0    0 -0.50613091932E+02  0.11183828847E+03  0.47428013346E+03  0.50560460633E+03  0.12499954041E+03 0.  0.
          2    1    1    2  501    0  0.88073583020E+02 -0.11170855366E+03 -0.49821357908E+03  0.51812404631E+03  0.00000000000E+00 0. -1.
          1    1    1    2  502    0 -0.37460491087E+02 -0.12973481573E+00  0.72593561801E+03  0.72690152477E+03  0.00000000000E+00 0. -1.
         22    1    3    3    0    0 -0.68573423930E+02  0.75770301347E+02  0.16767148789E+03  0.19635982503E+03  0.00000000000E+00 0. -1.
         22    1    3    3    0    0  0.17960331998E+02  0.36067987126E+02  0.30660864557E+03  0.30924478130E+03  0.00000000000E+00 0. -1.
</event>
<event>
 7    1  0.6146596E-006  0.1573903E+03  0.7818608E-02  0.1339854E+00
          2   -1    0    0  502    0  0.00000000000E+00  0.00000000000E+00  0.10972598327E+04  0.10972598327E+04  0.00000000000E+00 0. -1.
          1   -1    0    0  501    0 -0.00000000000E+00 -0.00000000000E+00 -0.69070036852E+03  0.69070036852E+03  0.00000000000E+00 0. -1.
         25    2    1    2    0    0 -0.80548028031E+02  0.14944433456E+03 -0.32105347250E+03  0.38408855203E+03  0.12500835832E+03 0.  0.
          2    1    1    2  501    0 -0.21695688880E+02 -0.29972985741E+02 -0.33129335265E+03  0.33335321852E+03  0.00000000000E+00 0. -1.
          1    1    1    2  502    0  0.10224371691E+03 -0.11947134882E+03  0.10589062893E+04  0.10705184306E+04  0.00000000000E+00 0. -1.
         22    1    3    3    0    0 -0.56576397917E+02  0.16336455684E+02 -0.37181595619E+02  0.69643661868E+02  0.00000000000E+00 0. -1.
         22    1    3    3    0    0 -0.23971630114E+02  0.13310787887E+03 -0.28387187688E+03  0.31444489017E+03  0.00000000000E+00 0. -1.
</event>
<event>
 7    1  0.6146596E-006  0.4325109E+02  0.7818608E-02  0.1519918E+00
          2   -1    0    0  502    0  0.00000000000E+00  0.00000000000E+00  0.33073017917E+03  0.33073017917E+03  0.00000000000E+00 0. -1.
          1   -1    0    0  501    0 -0.00000000000E+00 -0.00000000000E+00 -0.52509198867E+03  0.52509198867E+03  0.00000000000E+00 0. -1.
         25    2    1    2    0    0  0.68076034225E+02  0.36621596571E+02  0.21221185538E+03  0.25813590636E+03  0.12499914726E+03 0.  0.
          2    1    1    2  501    0 -0.38077674145E+02 -0.20226270987E+02 -0.49811093727E+03  0.49997351643E+03  0.00000000000E+00 0. -1.
          1    1    1    2  502    0 -0.29998360081E+02 -0.16395325585E+02  0.91537272388E+02  0.97712745048E+02  0.00000000000E+00 0. -1.
         22    1    3    3    0    0 -0.17028425210E+02 -0.30915465781E+02  0.76830968797E+02  0.84550168869E+02  0.00000000000E+00 0.  1.
         22    1    3    3    0    0  0.85104459435E+02  0.67537062352E+02  0.13538088659E+03  0.17358573749E+03  0.00000000000E+00 0.  1.
</event>
<event>
 7    1  0.6146596E-006  0.8971819E+02  0.7818608E-02  0.1404688E+00
          2   -1    0    0  502    0  0.00000000000E+00  0.00000000000E+00  0.17289111830E+04  0.17289111830E+04  0.00000000000E+00 0. -1.
          1   -1    0    0  501    0 -0.00000000000E+00 -0.00000000000E+00 -0.24924275490E+03  0.24924275490E+03  0.00000000000E+00 0. -1.
         25    2    1    2    0    0 -0.58930565991E+02  0.97602087971E+02  0.13199773991E+03  0.21458748730E+03  0.12500162870E+03 0.  0.
          2    1    1    2  501    0  0.22857762484E+02 -0.85624811872E+02 -0.19826129514E+03  0.21716727853E+03  0.00000000000E+00 0. -1.
          1    1    1    2  502    0  0.36072803508E+02 -0.11977276099E+02  0.15459319833E+04  0.15463991721E+04  0.00000000000E+00 0. -1.
         22    1    3    3    0    0 -0.42654641026E+02  0.23045128496E+01 -0.89748433015E+01  0.43649478723E+02  0.00000000000E+00 0. -1.
         22    1    3    3    0    0 -0.16275924966E+02  0.95297575122E+02  0.14097258321E+03  0.17093800857E+03  0.00000000000E+00 0. -1.
</event>
<event>
 7    1  0.6146596E-006  0.1990297E+03  0.7818608E-02  0.1239729E+00
          2   -1    0    0  502    0  0.00000000000E+00  0.00000000000E+00  0.62903023950E+03  0.62903023950E+03  0.00000000000E+00 0. -1.
          1   -1    0    0  501    0 -0.00000000000E+00 -0.00000000000E+00 -0.44062955470E+03  0.44062955470E+03  0.00000000000E+00 0. -1.
         25    2    1    2    0    0 -0.48350803668E+02  0.23318604145E+03  0.35916846637E+02  0.27135464423E+03  0.12501917024E+03 0.  0.
          2    1    1    2  501    0 -0.42123462383E+02 -0.61886536766E+02 -0.29835669566E+03  0.30760534352E+03  0.00000000000E+00 0. -1.
          1    1    1    2  502    0  0.90474266052E+02 -0.17129950469E+03  0.45084053382E+03  0.49069980646E+03  0.00000000000E+00 0. -1.
         22    1    3    3    0    0  0.16247089724E+02 -0.33985062377E+01 -0.13239022198E+02  0.21231803454E+02  0.00000000000E+00 0.  1.
         22    1    3    3    0    0 -0.64597893392E+02  0.23658454769E+03  0.49155868834E+02  0.25012284078E+03  0.00000000000E+00 0.  1.
</event>
<event>
 7    1  0.6146596E-006  0.1243270E+03  0.7818608E-02  0.1315929E+00
          2   -1    0    0  502    0  0.00000000000E+00  0.00000000000E+00  0.17188019534E+04  0.17188019534E+04  0.00000000000E+00 0. -1.
          1   -1    0    0  501    0 -0.00000000000E+00 -0.00000000000E+00 -0.52266355643E+03  0.52266355643E+03  0.00000000000E+00 0. -1.
         25    2    1    2    0    0 -0.92697881561E+02 -0.26079238736E+02 -0.23724876596E+03  0.28493057261E+03  0.12500172127E+03 0.  0.
          2    1    1    2  501    0  0.14973410508E+03  0.16385384299E+02 -0.23934738458E+03  0.28280020076E+03  0.00000000000E+00 0. -1.
          1    1    1    2  502    0 -0.57036223524E+02  0.96938544370E+01  0.16727345475E+04  0.16737347365E+04  0.00000000000E+00 0. -1.
         22    1    3    3    0    0 -0.27371467134E+01 -0.16727392357E+02  0.11343940204E+02  0.20395651658E+02  0.00000000000E+00 0.  1.
         22    1    3    3    0    0 -0.89960734847E+02 -0.93518463789E+01 -0.24859270616E+03  0.26453492095E+03  0.00000000000E+00 0.  1.
</event>
<event>
 7    1  0.6146596E-006  0.1050178E+03  0.7818608E-02  0.1325299E+00
          2   -1    0    0  502    0  0.00000000000E+00  0.00000000000E+00  0.36204628812E+04  0.36204628812E+04  0.00000000000E+00 0. -1.
          1   -1    0    0  501    0 -0.00000000000E+00 -0.00000000000E+00 -0.21498976644E+03  0.21498976644E+03  0.00000000000E+00 0. -1.
         25    2    1    2    0    0 -0.22620499395E+02  0.47289670506E+02  0.17265955733E+03  0.21950419159E+03  0.12499106952E+03 0.  0.
          2    1    1    2  501    0  0.19992918377E+02  0.59739346338E+02 -0.18552762406E+03  0.19593112457E+03  0.00000000000E+00 0. -1.
          1    1    1    2  502    0  0.26275810181E+01 -0.10702901684E+03  0.34183411815E+04  0.34200173315E+04  0.00000000000E+00 0. -1.
         22    1    3    3    0    0 -0.11767253533E+02  0.85705773529E+02  0.15115611886E+03  0.17416119011E+03  0.00000000000E+00 0. -1.
         22    1    3    3    0    0 -0.10853245862E+02 -0.38416103023E+02  0.21503438470E+02  0.45343001480E+02  0.00000000000E+00 0. -1.
</event>
<event>
 7    1  0.6146596E-006  0.1043075E+03  0.7818608E-02  0.1403711E+00
          2   -1    0    0  502    0  0.00000000000E+00  0.00000000000E+00  0.73440095644E+03  0.73440095644E+03  0.00000000000E+00 0. -1.
          1   -1    0    0  501    0 -0.00000000000E+00 -0.00000000000E+00 -0.14847015471E+04  0.14847015471E+04  0.00000000000E+00 0. -1.
         25    2    1    2    0    0  0.90769941761E+02 -0.65336259673E+02 -0.49627023378E+02  0.17491787591E+03  0.12500165081E+03 0.  0.
          2    1    1    2  501    0 -0.62983105170E+02  0.83036060917E+02 -0.13700447984E+04  0.13740031326E+04  0.00000000000E+00 0. -1.
          1    1    1    2  502    0 -0.27786836591E+02 -0.17699801244E+02  0.66937123108E+03  0.67018149501E+03  0.00000000000E+00 0. -1.
         22    1    3    3    0    0 -0.17458123081E+02  0.11845978651E+02  0.16182772605E+02  0.26589385117E+02  0.00000000000E+00 0.  1.
         22    1    3    3    0    0  0.10822806484E+03 -0.77182238325E+02 -0.65809795982E+02  0.14832849079E+03  0.00000000000E+00 0.  1.
</event>
<event>
 7    1  0.6146596E-006  0.6053947E+02  0.7818608E-02  0.1397614E+00
          2   -1    0    0  502    0  0.00000000000E+00  0.00000000000E+00  0.11606044249E+04  0.11606044249E+04  0.00000000000E+00 0. -1.
          1   -1    0    0  501    0 -0.00000000000E+00 -0.00000000000E+00 -0.15467465739E+03  0.15467465739E+03  0.00000000000E+00 0. -1.
         25    2    1    2    0    0  0.59369704469E+01 -0.21635446930E+02  0.27854675702E+03  0.30613811222E+03  0.12501562992E+03 0.  0.
          2    1    1    2  501    0 -0.56214379535E+02 -0.19705726230E+02 -0.13329779156E+03  0.14600230597E+03  0.00000000000E+00 0. -1.
          1    1    1    2  502    0  0.50277409088E+02  0.41341173160E+02  0.86068080204E+03  0.86313866410E+03  0.00000000000E+00 0. -1.
         22    1    3    3    0    0  0.64035990115E+02 -0.16922678138E+02  0.11772080980E+03  0.13507469832E+03  0.00000000000E+00 0. -1.
         22    1    3    3    0    0 -0.58099019668E+02 -0.47127687923E+01  0.16082594722E+03  0.17106341390E+03  0.00000000000E+00 0. -1.
</event>
<event>
 7    1  0.6146596E-006  0.1337074E+03  0.7818608E-02  0.1340880E+00
          2   -1    0    0  502    0  0.00000000000E+00  0.00000000000E+00  0.45798358088E+03  0.45798358088E+03  0.00000000000E+00 0. -1.
          1   -1    0    0  501    0 -0.00000000000E+00 -0.00000000000E+00 -0.25699398847E+03  0.25699398847E+03  0.00000000000E+00 0. -1.
         25    2    1    2    0    0 -0.14101891850E+03  0.51017541737E+02 -0.15987394335E+02  0.19588149150E+03  0.12499934798E+03 0.  0.
          2    1    1    2  501    0  0.88550511456E+01 -0.42251580568E+02 -0.13568162987E+03  0.14238368122E+03  0.00000000000E+00 0. -1.
          1    1    1    2  502    0  0.13216386735E+03 -0.87659611685E+01  0.35265861662E+03  0.37671239664E+03  0.00000000000E+00 0. -1.
         22    1    3    3    0    0 -0.15413257612E+03  0.37232715141E+02 -0.41641160949E+02  0.16394240569E+03  0.00000000000E+00 0.  1.
         22    1    3    3    0    0  0.13113657626E+02  0.13784826596E+02  0.25653766614E+02  0.31939085806E+02  0.00000000000E+00 0.  1.
</event>
<event>
 7    1  0.6146596E-006  0.7971488E+02  0.7818608E-02  0.1350790E+00
          2   -1    0    0  502    0  0.00000000000E+00  0.00000000000E+00  0.53593335606E+03  0.53593335606E+03  0.00000000000E+00 0. -1.
          1   -1    0    0  501    0 -0.00000000000E+00 -0.00000000000E+00 -0.23035534071E+03  0.23035534071E+03  0.00000000000E+00 0. -1.
         25    2    1    2    0    0 -0.22086487038E+02 -0.62564679721E+01 -0.73281685046E+02  0.14670678808E+03  0.12500287999E+03 0.  0.
          2    1    1    2  501    0 -0.50985589673E+02  0.42697974032E+02 -0.10750417677E+03  0.12641121534E+03  0.00000000000E+00 0. -1.
          1    1    1    2  502    0  0.73072076711E+02 -0.36441506060E+02  0.48636387717E+03  0.49317069334E+03  0.00000000000E+00 0. -1.
         22    1    3    3    0    0 -0.23051947862E+02  0.16429921189E+02  0.29830423436E+02  0.41124065617E+02  0.00000000000E+00 0.  1.
         22    1    3    3    0    0  0.96546082425E+00 -0.22686389161E+02 -0.10311210848E+03  0.10558272247E+03  0.00000000000E+00 0.  1.
</event>
<event>
 7    1  0.6146596E-006  0.1296469E+03  0.7818608E-02  0.1286370E+00
          2   -1    0    0  502    0  0.00000000000E+00  0.00000000000E+00  0.52726450468E+02  0.52726450468E+02  0.00000000000E+00 0. -1.
          1   -1    0    0  501    0 -0.00000000000E+00 -0.00000000000E+00 -0.22900395395E+04  0.22900395395E+04  0.00000000000E+00 0. -1.
         25    2    1    2    0    0 -0.13287055819E+01 -0.12192164439E+03 -0.30498677284E+03  0.35143715632E+03  0.12499796160E+03 0.  0.
          2    1    1    2  501    0 -0.70766903948E+02  0.11165116374E+03 -0.19108328530E+04  0.19153997309E+04  0.00000000000E+00 0. -1.
          1    1    1    2  502    0  0.72095609530E+02  0.10270480653E+02 -0.21493463219E+02  0.75929102770E+02  0.00000000000E+00 0. -1.
         22    1    3    3    0    0  0.11183695825E+02 -0.13838354931E+03 -0.19411647013E+03  0.23865516074E+03  0.00000000000E+00 0. -1.
         22    1    3    3    0    0 -0.12512401407E+02  0.16461904925E+02 -0.11087030272E+03  0.11278199558E+03  0.00000000000E+00 0. -1.
</event>
<event>
 7    1  0.6146596E-006  0.8400388E+02  0.7818608E-02  0.1367732E+00
          2   -1    0    0  502    0  0.00000000000E+00  0.00000000000E+00  0.12908540639E+04  0.12908540639E+04  0.00000000000E+00 0. -1.
          1   -1    0    0  501    0 -0.00000000000E+00 -0.00000000000E+00 -0.32983968666E+03  0.32983968666E+03  0.00000000000E+00 0. -1.
         25    2    1    2    0    0  0.11353724606E+03 -0.37769818154E+02  0.54380075733E+02  0.18138042712E+03  0.12499760517E+03 0.  0.
          2    1    1    2  501    0 -0.51637527477E+02 -0.18119786557E+02 -0.26202673042E+03  0.26768034736E+03  0.00000000000E+00 0. -1.
          1    1    1    2  502    0 -0.61899718585E+02  0.55889604711E+02  0.11686610320E+04  0.11716329761E+04  0.00000000000E+00 0. -1.
         22    1    3    3    0    0  0.30341436318E+02  0.16693725923E+02  0.72462189167E+02  0.80312216393E+02  0.00000000000E+00 0. -1.
         22    1    3    3    0    0  0.83195809745E+02 -0.54463544078E+02 -0.18082113435E+02  0.10106821072E+03  0.00000000000E+00 0. -1.
</event>
<event>
 7    1  0.6146596E-006  0.6457487E+02  0.7818608E-02  0.1461764E+00
          2   -1    0    0  502    0  0.00000000000E+00  0.00000000000E+00  0.26230365936E+03  0.26230365936E+03  0.00000000000E+00 0. -1.
          1   -1    0    0  501    0 -0.00000000000E+00 -0.00000000000E+00 -0.12946778004E+04  0.12946778004E+04  0.00000000000E+00 0. -1.
         25    2    1    2    0    0 -0.50864253283E+02  0.53494340514E+02 -0.27772025917E+03  0.31337160736E+03  0.12499762084E+03 0.  0.
          2    1    1    2  501    0  0.17622693538E+02 -0.62045607931E+02 -0.99687975362E+03  0.99896419353E+03  0.00000000000E+00 0. -1.
          1    1    1    2  502    0  0.33241559745E+02  0.85512674170E+01  0.24222587174E+03  0.24464565888E+03  0.00000000000E+00 0. -1.
         22    1    3    3    0    0  0.16920731119E+01 -0.15336646688E+02 -0.18814945822E+03  0.18878107551E+03  0.00000000000E+00 0.  1.
         22    1    3    3    0    0 -0.52556326395E+02  0.68830987202E+02 -0.89570800951E+02  0.12459053185E+03  0.00000000000E+00 0.  1.
</event>
<event>
 7    1  0.6146596E-006  0.4656452E+02  0.7818608E-02  0.1547683E+00
          2   -1    0    0  502    0  0.00000000000E+00  0.00000000000E+00  0.25934792625E+02  0.25934792625E+02  0.00000000000E+00 0. -1.
          1   -1    0    0  501    0 -0.00000000000E+00 -0.00000000000E+00 -0.52735424648E+03  0.52735424648E+03  0.00000000000E+00 0. -1.
         25    2    1    2    0    0 -0.25999328180E+02  0.88113869028E+01 -0.21423261457E+03  0.24954837660E+03  0.12500069405E+03 0.  0.
          2    1    1    2  501    0  0.49144351358E+02  0.40190493899E+01 -0.26397210118E+03  0.26853787485E+03  0.00000000000E+00 0. -1.
          1    1    1    2  502    0 -0.23145023178E+02 -0.12830436293E+02 -0.23214738109E+02  0.35202787657E+02  0.00000000000E+00 0. -1.
         22    1    3    3    0    0 -0.37687856581E+02  0.30022041737E+02 -0.17396906352E+02  0.51228408860E+02  0.00000000000E+00 0.  1.
         22    1    3    3    0    0  0.11688528400E+02 -0.21210654834E+02 -0.19683570821E+03  0.19831996774E+03  0.00000000000E+00 0.  1.
</event>
<event>
 7    1  0.6146596E-006  0.9803504E+02  0.7818608E-02  0.1362317E+00
          2   -1    0    0  502    0  0.00000000000E+00  0.00000000000E+00  0.43362919218E+03  0.43362919218E+03  0.00000000000E+00 0. -1.
          1   -1    0    0  501    0 -0.00000000000E+00 -0.00000000000E+00 -0.45489972531E+03  0.45489972531E+03  0.00000000000E+00 0. -1.
         25    2    1    2    0    0 -0.79063713227E+02  0.43615725228E+02  0.14269049807E+03  0.21009281456E+03  0.12500004102E+03 0.  0.
          2    1    1    2  501    0  0.98660053699E+02  0.13585903112E+01 -0.41299395209E+03  0.42461707034E+03  0.00000000000E+00 0. -1.
          1    1    1    2  502    0 -0.19596340473E+02 -0.44974315539E+02  0.24903292088E+03  0.25381903258E+03  0.00000000000E+00 0. -1.
         22    1    3    3    0    0 -0.76044489099E+02  0.82244782768E+02  0.12390838083E+03  0.16703369557E+03  0.00000000000E+00 0.  1.
         22    1    3    3    0    0 -0.30192241277E+01 -0.38629057540E+02  0.18782117237E+02  0.43059118996E+02  0.00000000000E+00 0.  1.
</event>
<event>
 7    1  0.6146596E-006  0.3050005E+02  0.7818608E-02  0.1601382E+00
          2   -1    0    0  502    0  0.00000000000E+00  0.00000000000E+00  0.47251856406E+02  0.47251856406E+02  0.00000000000E+00 0. -1.
          1   -1    0    0  501    0 -0.00000000000E+00 -0.00000000000E+00 -0.15545818969E+04  0.15545818969E+04  0.00000000000E+00 0. -1.
         25    2    1    2    0    0 -0.45560434307E+01  0.45215902055E+02 -0.16534931768E+03  0.21220377090E+03  0.12499923279E+03 0.  0.
          2    1    1    2  501    0 -0.16629114923E+02 -0.23672015285E+02 -0.13560087413E+04  0.13563172926E+04  0.00000000000E+00 0. -1.
          1    1    1    2  502    0  0.21185158354E+02 -0.21543886769E+02  0.14028018557E+02  0.33312689718E+02  0.00000000000E+00 0. -1.
         22    1    3    3    0    0 -0.11044874080E+02  0.52165552276E+02 -0.18383728940E+03  0.19141416630E+03  0.00000000000E+00 0. -1.
         22    1    3    3    0    0  0.64888306488E+01 -0.69496502212E+01  0.18487971715E+02  0.20789604602E+02  0.00000000000E+00 0. -1.
</event>
<event>
 7    1  0.6146596E-006  0.9342506E+02  0.7818608E-02  0.1405664E+00
          2   -1    0    0  502    0  0.00000000000E+00  0.00000000000E+00  0.14231123423E+04  0.14231123423E+04  0.00000000000E+00 0. -1.
          1   -1    0    0  501    0 -0.00000000000E+00 -0.00000000000E+00 -0.11404765732E+04  0.11404765732E+04  0.00000000000E+00 0. -1.
         25    2    1    2    0    0  0.72966726041E+02 -0.46011592091E+02 -0.74746060668E+02  0.16926922284E+03  0.12499554592E+03 0.  0.
          2    1    1    2  501    0 -0.92735165971E+02  0.15659215737E+02 -0.10160584803E+04  0.10204018118E+04  0.00000000000E+00 0. -1.
          1    1    1    2  502    0  0.19768439929E+02  0.30352376355E+02  0.13734403101E+04  0.13739178809E+04  0.00000000000E+00 0. -1.
         22    1    3    3    0    0  0.42437442567E+02 -0.69766203398E+02  0.37648845476E+01  0.81746156019E+02  0.00000000000E+00 0. -1.
         22    1    3    3    0    0  0.30529283475E+02  0.23754611307E+02 -0.78510945216E+02  0.87523066825E+02  0.00000000000E+00 0. -1.
</event>
<event>
 7    1  0.6146596E-006  0.4899137E+02  0.7818608E-02  0.1548178E+00
          2   -1    0    0  502    0  0.00000000000E+00  0.00000000000E+00  0.82048111740E+03  0.82048111740E+03  0.00000000000E+00 0. -1.
          1   -1    0    0  501    0 -0.00000000000E+00 -0.00000000000E+00 -0.12510657517E+03  0.12510657517E+03  0.00000000000E+00 0. -1.
         25    2    1    2    0    0  0.28434979748E+02  0.21327728276E+02  0.24857580748E+03  0.28049646704E+03  0.12499966357E+03 0.  0.
          2    1    1    2  501    0 -0.48893132760E+02 -0.68331618176E+01 -0.10326355373E+03  0.11445781782E+03  0.00000000000E+00 0. -1.
          1    1    1    2  502    0  0.20458153011E+02 -0.14494566458E+02  0.55006228848E+03  0.55063340772E+03  0.00000000000E+00 0. -1.
         22    1    3    3    0    0  0.16773415841E+02  0.35059525645E+02  0.85489779096E+01  0.39794507670E+02  0.00000000000E+00 0. -1.
         22    1    3    3    0    0  0.11661563907E+02 -0.13731797369E+02  0.24002682957E+03  0.24070195937E+03  0.00000000000E+00 0. -1.
</event>
<event>
 7    1  0.6146596E-006  0.1458048E+03  0.7818608E-02  0.1302631E+00
          2   -1    0    0  502    0  0.00000000000E+00  0.00000000000E+00  0.16679261214E+04  0.16679261214E+04  0.00000000000E+00 0. -1.
          1   -1    0    0  501    0 -0.00000000000E+00 -0.00000000000E+00 -0.10495962116E+04  0.10495962116E+04  0.00000000000E+00 0. -1.
         25    2    1    2    0    0  0.18504305101E+03  0.53993554108E+02  0.26651873194E+03  0.35187001266E+03  0.12499614682E+03 0.  0.
          2    1    1    2  501    0 -0.55529147928E+02  0.39070847076E+01 -0.10024431131E+04  0.10039875232E+04  0.00000000000E+00 0. -1.
          1    1    1    2  502    0 -0.12951390308E+03 -0.57900638815E+02  0.13542542911E+04  0.13616647972E+04  0.00000000000E+00 0. -1.
         22    1    3    3    0    0  0.85927149492E+02 -0.52645120807E+01  0.34580651214E+02  0.92773980973E+02  0.00000000000E+00 0.  1.
         22    1    3    3    0    0  0.99115901516E+02  0.59258066189E+02  0.23193808073E+03  0.25909603168E+03  0.00000000000E+00 0.  1.
</event>
<event>
 7    1  0.6146596E-006  0.9388282E+02  0.7818608E-02  0.1337631E+00
          2   -1    0    0  502    0  0.00000000000E+00  0.00000000000E+00  0.15485963838E+04  0.15485963838E+04  0.00000000000E+00 0. -1.
          1   -1    0    0  501    0 -0.00000000000E+00 -0.00000000000E+00 -0.64646126197E+03  0.64646126197E+03  0.00000000000E+00 0. -1.
         25    2    1    2    0    0  0.85759338541E+02  0.78413127645E+02 -0.54678744736E+03  0.57280423423E+03  0.12499958172E+03 0.  0.
          2    1    1    2  501    0  0.68181447620E+01 -0.62870126381E+02 -0.73487867602E+02  0.96951568187E+02  0.00000000000E+00 0. -1.
          1    1    1    2  502    0 -0.92577483303E+02 -0.15543001264E+02  0.15224104368E+04  0.15253018433E+04  0.00000000000E+00 0. -1.
         22    1    3    3    0    0  0.99448907015E+02  0.40829851098E+02 -0.49917575164E+03  0.51062079166E+03  0.00000000000E+00 0. -1.
         22    1    3    3    0    0 -0.13689568474E+02  0.37583276547E+02 -0.47611695714E+02  0.62183442569E+02  0.00000000000E+00 0. -1.
</event>
<event>
 7    1  0.7846960E-006  0.7501172E+02  0.7818608E-02  0.1423187E+00
          2   -1    0    0  502    0  0.00000000000E+00  0.00000000000E+00  0.12792656321E+04  0.12792656321E+04  0.00000000000E+00 0. -1.
          1   -1    0    0  501    0 -0.00000000000E+00 -0.00000000000E+00 -0.99969582460E+03  0.99969582460E+03  0.00000000000E+00 0. -1.
         25    2    1    2    0    0 -0.90455949950E+02 -0.16782623175E+02 -0.10409175852E+03  0.18686384871E+03  0.12497627152E+03 0.  0.
          2    1    1    2  501    0  0.17793291659E+02  0.35133923642E+02 -0.85262875320E+03  0.85353780502E+03  0.00000000000E+00 0. -1.
          1    1    1    2  502    0  0.72662658290E+02 -0.18351300467E+02  0.12362903192E+04  0.12385598030E+04  0.00000000000E+00 0. -1.
         22    1    3    3    0    0 -0.59376012736E+02 -0.69986477535E+02 -0.48165026007E+02  0.10365079670E+03  0.00000000000E+00 0. -1.
         22    1    3    3    0    0 -0.31079937214E+02  0.53203854360E+02 -0.55926732509E+02  0.83213052012E+02  0.00000000000E+00 0. -1.
</event>
<event>
 7    1  0.6146596E-006  0.2933773E+02  0.7818608E-02  0.1631226E+00
          2   -1    0    0  502    0  0.00000000000E+00  0.00000000000E+00  0.10389585995E+04  0.10389585995E+04  0.00000000000E+00 0. -1.
          1   -1    0    0  501    0 -0.00000000000E+00 -0.00000000000E+00 -0.59409652998E+02  0.59409652998E+02  0.00000000000E+00 0. -1.
         25    2    1    2    0    0  0.55131056113E+01  0.31180031998E+01  0.95220619325E+02  0.15726131001E+03  0.12499614796E+03 0.  0.
          2    1    1    2  501    0 -0.30737628182E+02 -0.33097216358E+01 -0.19744389476E+02  0.36682379412E+02  0.00000000000E+00 0. -1.
          1    1    1    2  502    0  0.25224522571E+02  0.19171843600E+00  0.90407271670E+03  0.90442456312E+03  0.00000000000E+00 0. -1.
         22    1    3    3    0    0  0.51703307769E+02 -0.34147364161E+02  0.67913012527E+02  0.91931777878E+02  0.00000000000E+00 0. -1.
         22    1    3    3    0    0 -0.46190202158E+02  0.37265367361E+02  0.27307606798E+02  0.65329532135E+02  0.00000000000E+00 0. -1.
</event>
<event>
 7    1  0.6146596E-006  0.1167439E+03  0.7818608E-02  0.1261753E+00
          2   -1    0    0  502    0  0.00000000000E+00  0.00000000000E+00  0.12408551339E+02  0.12408551339E+02  0.00000000000E+00 0. -1.
          1   -1    0    0  501    0 -0.00000000000E+00 -0.00000000000E+00 -0.39793540559E+04  0.39793540559E+04  0.00000000000E+00 0. -1.
         25    2    1    2    0    0  0.11377867040E+03  0.59308817132E+02 -0.12819231138E+04  0.12943781678E+04  0.12499939976E+03 0.  0.
          2    1    1    2  501    0 -0.30716560914E+02 -0.11928173993E+03 -0.20884400550E+04  0.20920691919E+04  0.00000000000E+00 0. -1.
          1    1    1    2  502    0 -0.83062109486E+02  0.59972922799E+02 -0.59658233574E+03  0.60531524747E+03  0.00000000000E+00 0. -1.
         22    1    3    3    0    0  0.35538036675E+02  0.40925525268E+01 -0.89730575621E+03  0.89801855280E+03  0.00000000000E+00 0.  1.
         22    1    3    3    0    0  0.78240633725E+02  0.55216264605E+02 -0.38461735758E+03  0.39635961499E+03  0.00000000000E+00 0.  1.
</event>
<event>
 7    1  0.6146596E-006  0.8411895E+02  0.7818608E-02  0.1384509E+00
          2   -1    0    0  502    0  0.00000000000E+00  0.00000000000E+00  0.34721873533E+04  0.34721873533E+04  0.00000000000E+00 0. -1.
          1   -1    0    0  501    0 -0.00000000000E+00 -0.00000000000E+00 -0.55393754486E+02  0.55393754486E+02  0.00000000000E+00 0. -1.
         25    2    1    2    0    0  0.10340518041E+03  0.55707491027E+02  0.13803266782E+04  0.13909430637E+04  0.12499964801E+03 0.  0.
          2    1    1    2  501    0 -0.82429044809E+02 -0.12952505053E+02 -0.14864267018E+02  0.84754122314E+02  0.00000000000E+00 0. -1.
          1    1    1    2  502    0 -0.20976135601E+02 -0.42754985974E+02  0.20513311876E+04  0.20518839217E+04  0.00000000000E+00 0. -1.
         22    1    3    3    0    0  0.13275211033E+03  0.48057704567E+02  0.11292827066E+04  0.11380738540E+04  0.00000000000E+00 0. -1.
         22    1    3    3    0    0 -0.29346929920E+02  0.76497864604E+01  0.25104397164E+03  0.25286920972E+03  0.00000000000E+00 0. -1.
</event>
<event>
 7    1  0.6146596E-006  0.6736413E+02  0.7818608E-02  0.1431850E+00
          2   -1    0    0  502    0  0.00000000000E+00  0.00000000000E+00  0.95975847732E+03  0.95975847732E+03  0.00000000000E+00 0. -1.
          1   -1    0    0  501    0 -0.00000000000E+00 -0.00000000000E+00 -0.32818140212E+03  0.32818140212E+03  0.00000000000E+00 0. -1.
         25    2    1    2    0    0  0.60840321999E+02 -0.86268995341E+02  0.54618408522E+03  0.57016260376E+03  0.12499782175E+03 0.  0.
          2    1    1    2  501    0 -0.47492750664E+02  0.47442410484E+02 -0.31155838745E+03  0.31870828742E+03  0.00000000000E+00 0. -1.
          1    1    1    2  502    0 -0.13347571335E+02  0.38826584857E+02  0.39695137743E+03  0.39906898826E+03  0.00000000000E+00 0. -1.
         22    1    3    3    0    0  0.47702154221E+02  0.22514675026E+02  0.21246115004E+03  0.21891127515E+03  0.00000000000E+00 0.  1.
         22    1    3    3    0    0  0.13138167778E+02 -0.10878367037E+03  0.33372293517E+03  0.35125132861E+03  0.00000000000E+00 0.  1.
</event>
<event>
 7    1  0.6146596E-006  0.6931782E+02  0.7818608E-02  0.1373624E+00
          2   -1    0    0  502    0  0.00000000000E+00  0.00000000000E+00  0.46997354501E+03  0.46997354501E+03  0.00000000000E+00 0. -1.
          1   -1    0    0  501    0 -0.00000000000E+00 -0.00000000000E+00 -0.66484478804E+03  0.66484478804E+03  0.00000000000E+00 0. -1.
         25    2    1    2    0    0  0.35628318381E+02 -0.33344080474E+02 -0.93537854562E+02  0.16357439323E+03  0.12500418837E+03 0.  0.
          2    1    1    2  501    0  0.31326673445E+02  0.54849613804E+02 -0.53156399609E+03  0.53530376661E+03  0.00000000000E+00 0. -1.
          1    1    1    2  502    0 -0.66954991826E+02 -0.21505533330E+02  0.43023060762E+03  0.43594017322E+03  0.00000000000E+00 0. -1.
         22    1    3    3    0    0 -0.11765598425E+00  0.25734338704E+02  0.18689817861E+02  0.31805334822E+02  0.00000000000E+00 0. -1.
         22    1    3    3    0    0  0.35745974366E+02 -0.59078419178E+02 -0.11222767242E+03  0.13176905841E+03  0.00000000000E+00 0. -1.
</event>
<event>
 7    1  0.6146596E-006  0.1052013E+03  0.7818608E-02  0.1283211E+00
          2   -1    0    0  502    0  0.00000000000E+00  0.00000000000E+00  0.20826673856E+03  0.20826673856E+03  0.00000000000E+00 0. -1.
          1   -1    0    0  501    0 -0.00000000000E+00 -0.00000000000E+00 -0.63491335499E+03  0.63491335499E+03  0.00000000000E+00 0. -1.
         25    2    1    2    0    0  0.98468903597E+02  0.10172344449E+02  0.13223132500E+03  0.20714589967E+03  0.12499879548E+03 0.  0.
          2    1    1    2  501    0  0.38914072112E+02 -0.83874636479E+02 -0.41058400067E+03  0.42086634607E+03  0.00000000000E+00 0. -1.
          1    1    1    2  502    0 -0.13738297571E+03  0.73702292030E+02 -0.14829394075E+03  0.21516784781E+03  0.00000000000E+00 0. -1.
         22    1    3    3    0    0  0.12827194296E+03  0.45644253743E+01  0.98543488170E+02  0.16181886290E+03  0.00000000000E+00 0. -1.
         22    1    3    3    0    0 -0.29803039367E+02  0.56079190743E+01  0.33687836825E+02  0.45327036764E+02  0.00000000000E+00 0. -1.
</event>
<event>
 7    1  0.6146596E-006  0.1216970E+03  0.7818608E-02  0.1332293E+00
          2   -1    0    0  502    0  0.00000000000E+00  0.00000000000E+00  0.74875253177E+03  0.74875253177E+03  0.00000000000E+00 0. -1.
          1   -1    0    0  501    0 -0.00000000000E+00 -0.00000000000E+00 -0.27319475246E+04  0.27319475246E+04  0.00000000000E+00 0. -1.
         25    2    1    2    0    0 -0.10777289172E+03 -0.83154244174E+02  0.77383821953E+02  0.20035564196E+03  0.12499801138E+03 0.  0.
          2    1    1    2  501    0  0.46446935333E+02 -0.21335555004E+02 -0.26641969306E+04  0.26646871878E+04  0.00000000000E+00 0. -1.
          1    1    1    2  502    0  0.61325956391E+02  0.10448979918E+03  0.60361811577E+03  0.61565722667E+03  0.00000000000E+00 0. -1.
         22    1    3    3    0    0 -0.58371577337E+02 -0.76012360886E+02 -0.13383455397E+02  0.96768987422E+02  0.00000000000E+00 0.  1.
         22    1    3    3    0    0 -0.49401314388E+02 -0.71418832879E+01  0.90767277350E+02  0.10358665453E+03  0.00000000000E+00 0.  1.
</event>
<event>
 7    1  0.6146596E-006  0.4012579E+02  0.7818608E-02  0.1559759E+00
          2   -1    0    0  502    0  0.00000000000E+00  0.00000000000E+00  0.28730101967E+04  0.28730101967E+04  0.00000000000E+00 0. -1.
          1   -1    0    0  501    0 -0.00000000000E+00 -0.00000000000E+00 -0.83035539388E+03  0.83035539388E+03  0.00000000000E+00 0. -1.
         25    2    1    2    0    0 -0.10409946876E+02 -0.67343745787E+02  0.14686801861E+04  0.14755644032E+04  0.12500108732E+03 0.  0.
          2    1    1    2  501    0  0.97109739377E+01  0.38923515224E+02 -0.82628236936E+03  0.82725564185E+03  0.00000000000E+00 0. -1.
          1    1    1    2  502    0  0.69897293808E+00  0.28420230563E+02  0.14002569862E+04  0.14005455456E+04  0.00000000000E+00 0. -1.
         22    1    3    3    0    0 -0.43541536995E+02 -0.17222646189E+02  0.19787112650E+03  0.20333584949E+03  0.00000000000E+00 0. -1.
         22    1    3    3    0    0  0.33131590120E+02 -0.50121099598E+02  0.12708090596E+04  0.12722285537E+04  0.00000000000E+00 0. -1.
</event>
<event>
 7    1  0.6146596E-006  0.1341761E+03  0.7818608E-02  0.1277809E+00
          2   -1    0    0  502    0  0.00000000000E+00  0.00000000000E+00  0.56865442826E+03  0.56865442826E+03  0.00000000000E+00 0. -1.
          1   -1    0    0  501    0 -0.00000000000E+00 -0.00000000000E+00 -0.19344240998E+04  0.19344240998E+04  0.00000000000E+00 0. -1.
         25    2    1    2    0    0  0.19019194120E+03 -0.72528065398E+02 -0.23051631994E+02  0.23997825248E+03  0.12499955662E+03 0.  0.
          2    1    1    2  501    0 -0.13024299608E+03  0.25301386929E+02 -0.17972829390E+04  0.18021735103E+04  0.00000000000E+00 0. -1.
          1    1    1    2  502    0 -0.59948945121E+02  0.47226678469E+02  0.45456489945E+03  0.46092676533E+03  0.00000000000E+00 0. -1.
         22    1    3    3    0    0  0.16311761493E+03 -0.50045223795E+02 -0.67322707516E+02  0.18342362899E+03  0.00000000000E+00 0.  1.
         22    1    3    3    0    0  0.27074326270E+02 -0.22482841602E+02  0.44271075522E+02  0.56554623484E+02  0.00000000000E+00 0.  1.
</event>
<event>
 7    1  0.6146596E-006  0.6762539E+02  0.7818608E-02  0.1417297E+00
          2   -1    0    0  502    0  0.00000000000E+00  0.00000000000E+00  0.71813158963E+03  0.71813158963E+03  0.00000000000E+00 0. -1.
          1   -1    0    0  501    0 -0.00000000000E+00 -0.00000000000E+00 -0.52713851576E+03  0.52713851576E+03  0.00000000000E+00 0. -1.
         25    2    1    2    0    0 -0.20664305605E+01 -0.30756236681E+02  0.27642309991E+03  0.30493327137E+03  0.12499741436E+03 0.  0.
          2    1    1    2  501    0 -0.34001787074E+02  0.58832662944E+02 -0.50939894624E+03  0.51391116954E+03  0.00000000000E+00 0. -1.
          1    1    1    2  502    0  0.36068217634E+02 -0.28076426263E+02  0.42396892019E+03  0.42642566448E+03  0.00000000000E+00 0. -1.
         22    1    3    3    0    0 -0.38573531187E+02  0.10486522901E+02  0.22835937009E+03  0.23183159056E+03  0.00000000000E+00 0. -1.
         22    1    3    3    0    0  0.36507100627E+02 -0.41242759582E+02  0.48063729817E+02  0.73101680816E+02  0.00000000000E+00 0. -1.
</event>
<event>
 7    1  0.6146596E-006  0.4357276E+02  0.7818608E-02  0.1601702E+00
          2   -1    0    0  502    0  0.00000000000E+00  0.00000000000E+00  0.34498336701E+03  0.34498336701E+03  0.00000000000E+00 0. -1.
          1   -1    0    0  501    0 -0.00000000000E+00 -0.00000000000E+00 -0.97092275700E+02  0.97092275700E+02  0.00000000000E+00 0. -1.
         25    2    1    2    0    0 -0.39146231207E+02 -0.45144219948E+02  0.12017969996E+03  0.18343643932E+03  0.12504134906E+03 0.  0.
          2    1    1    2  501    0  0.34492878951E+02  0.25476334697E+02 -0.57833590440E+02  0.71996711808E+02  0.00000000000E+00 0. -1.
          1    1    1    2  502    0  0.46533522562E+01  0.19667885251E+02  0.18554498179E+03  0.18664249158E+03  0.00000000000E+00 0. -1.
         22    1    3    3    0    0  0.22159689031E+02 -0.50591419362E+02  0.84474795477E+01  0.55873996114E+02  0.00000000000E+00 0. -1.
         22    1    3    3    0    0 -0.61305920238E+02  0.54471994142E+01  0.11173222041E+03  0.12756244321E+03  0.00000000000E+00 0. -1.
</event>
<event>
 7    1  0.6146596E-006  0.1309010E+03  0.7818608E-02  0.1355743E+00
          2   -1    0    0  502    0  0.00000000000E+00  0.00000000000E+00  0.14965463792E+04  0.14965463792E+04  0.00000000000E+00 0. -1.
          1   -1    0    0  501    0 -0.00000000000E+00 -0.00000000000E+00 -0.20676294025E+04  0.20676294025E+04  0.00000000000E+00 0. -1.
         25    2    1    2    0    0  0.15284896970E+03 -0.40919694392E+02  0.29483761762E+03  0.35719907858E+03  0.12499892818E+03 0.  0.
          2    1    1    2  501    0 -0.11758171302E+03  0.57169799105E+02 -0.20340272301E+04  0.20382248693E+04  0.00000000000E+00 0. -1.
          1    1    1    2  502    0 -0.35267256674E+02 -0.16250104713E+02  0.11681065892E+04  0.11687518338E+04  0.00000000000E+00 0. -1.
         22    1    3    3    0    0  0.17250256322E+03 -0.25968463340E+02  0.23673241519E+03  0.29406416273E+03  0.00000000000E+00 0. -1.
         22    1    3    3    0    0 -0.19653593523E+02 -0.14951231053E+02  0.58105202439E+02  0.63134915845E+02  0.00000000000E+00 0. -1.
</event>
<event>
 7    1  0.6146596E-006  0.8374351E+02  0.7818608E-02  0.1443453E+00
          2   -1    0    0  502    0  0.00000000000E+00  0.00000000000E+00  0.12645041733E+04  0.12645041733E+04  0.00000000000E+00 0. -1.
          1   -1    0    0  501    0 -0.00000000000E+00 -0.00000000000E+00 -0.17108268091E+02  0.17108268091E+02  0.00000000000E+00 0. -1.
         25    2    1    2    0    0 -0.66242691120E+02  0.51312580428E+02  0.46568608523E+03  0.48939643860E+03  0.12499707635E+03 0.  0.
          2    1    1    2  501    0  0.45369957043E+02 -0.73241804003E+02  0.39319610713E+03  0.40252450052E+03  0.00000000000E+00 0. -1.
          1    1    1    2  502    0  0.20872734077E+02  0.21929223575E+02  0.38851371281E+03  0.38969150224E+03  0.00000000000E+00 0. -1.
         22    1    3    3    0    0 -0.56530296333E+02  0.90749445883E+02  0.29012186030E+03  0.30919545624E+03  0.00000000000E+00 0.  1.
         22    1    3    3    0    0 -0.97123947868E+01 -0.39436865455E+02  0.17556422493E+03  0.18020098236E+03  0.00000000000E+00 0.  1.
</event>
<event>
 7    1  0.6146596E-006  0.4299884E+02  0.7818608E-02  0.1508633E+00
          2   -1    0    0  502    0  0.00000000000E+00  0.00000000000E+00  0.12392759484E+03  0.12392759484E+03  0.00000000000E+00 0. -1.
          1   -1    0    0  501    0 -0.00000000000E+00 -0.00000000000E+00 -0.11996915072E+04  0.11996915072E+04  0.00000000000E+00 0. -1.
         25    2    1    2    0    0 -0.45839868995E+01  0.80161722742E+01 -0.20358546096E+03  0.23907576332E+03  0.12499963496E+03 0.  0.
          2    1    1    2  501    0  0.12164762939E+02  0.35053187420E+02 -0.97348971995E+03  0.97419656243E+03  0.00000000000E+00 0. -1.
          1    1    1    2  502    0 -0.75807760396E+01 -0.43069359694E+02  0.10131126853E+03  0.11034677631E+03  0.00000000000E+00 0. -1.
         22    1    3    3    0    0  0.58513962920E+02  0.17988519626E+02 -0.92201771456E+02  0.11067356213E+03  0.00000000000E+00 0. -1.
         22    1    3    3    0    0 -0.63097949820E+02 -0.99723473517E+01 -0.11138368951E+03  0.12840220119E+03  0.00000000000E+00 0. -1.
</event>
<event>
 7    1  0.6146596E-006  0.9752657E+02  0.7818608E-02  0.1369267E+00
          2   -1    0    0  502    0  0.00000000000E+00  0.00000000000E+00  0.25369123111E+04  0.25369123111E+04  0.00000000000E+00 0. -1.
          1   -1    0    0  501    0 -0.00000000000E+00 -0.00000000000E+00 -0.58401723686E+02  0.58401723686E+02  0.00000000000E+00 0. -1.
         25    2    1    2    0    0  0.79304239376E+02  0.10948739998E+03  0.71282781475E+03  0.73622372924E+03  0.12500093153E+03 0.  0.
          2    1    1    2  501    0 -0.38549182223E+02 -0.87015193206E+02  0.24088942119E+01  0.95202342776E+02  0.00000000000E+00 0. -1.
          1    1    1    2  502    0 -0.40755057153E+02 -0.22472206772E+02  0.17632738785E+04  0.17638879628E+04  0.00000000000E+00 0. -1.
         22    1    3    3    0    0 -0.97312759044E+01  0.87411161003E+02  0.42962451846E+03  0.43853464591E+03  0.00000000000E+00 0.  1.
         22    1    3    3    0    0  0.89035515280E+02  0.22076238975E+02  0.28320329628E+03  0.29768908333E+03  0.00000000000E+00 0.  1.
</event>
<event>
 7    1  0.6146596E-006  0.5268720E+02  0.7818608E-02  0.1500301E+00
          2   -1    0    0  502    0  0.00000000000E+00  0.00000000000E+00  0.29295101257E+03  0.29295101257E+03  0.00000000000E+00 0. -1.
          1   -1    0    0  501    0 -0.00000000000E+00 -0.00000000000E+00 -0.73638694956E+02  0.73638694956E+02  0.00000000000E+00 0. -1.
         25    2    1    2    0    0 -0.22854215352E+02  0.11615516860E+01  0.24749438548E+02  0.12946534257E+03  0.12500030342E+03 0.  0.
          2    1    1    2  501    0 -0.31506315674E+02  0.59008608796E+01 -0.29083004361E+01  0.32185808952E+02  0.00000000000E+00 0. -1.
          1    1    1    2  502    0  0.54360531027E+02 -0.70624125655E+01  0.19747117950E+03  0.20493855601E+03  0.00000000000E+00 0. -1.
         22    1    3    3    0    0 -0.55653973745E+02  0.10818995537E+02 -0.30584916544E+02  0.64419349408E+02  0.00000000000E+00 0.  1.
         22    1    3    3    0    0  0.32799758393E+02 -0.96574438512E+01  0.55334355093E+02  0.65045993158E+02  0.00000000000E+00 0.  1.
</event>
<event>
 7    1  0.6146596E-006  0.9570006E+02  0.7818608E-02  0.1367053E+00
          2   -1    0    0  502    0  0.00000000000E+00  0.00000000000E+00  0.25430523992E+03  0.25430523992E+03  0.00000000000E+00 0. -1.
          1   -1    0    0  501    0 -0.00000000000E+00 -0.00000000000E+00 -0.13086117673E+04  0.13086117673E+04  0.00000000000E+00 0. -1.
         25    2    1    2    0    0 -0.18747256615E+02  0.87854999005E+02 -0.77967447453E+01  0.15412767541E+03  0.12499836246E+03 0.  0.
          2    1    1    2  501    0  0.47928090121E+02  0.60485328916E+01 -0.12137883821E+04  0.12147493252E+04  0.00000000000E+00 0. -1.
          1    1    1    2  502    0 -0.29180833505E+02 -0.93903531897E+02  0.16727859943E+03  0.19404000663E+03  0.00000000000E+00 0. -1.
         22    1    3    3    0    0  0.27382816977E+02 -0.21540118029E+02  0.26817947520E+01  0.34942629743E+02  0.00000000000E+00 0.  1.
         22    1    3    3    0    0 -0.46130073592E+02  0.10939511703E+03 -0.10478539497E+02  0.11918504567E+03  0.00000000000E+00 0.  1.
</event>
<event>
 7    1  0.6146596E-006  0.8887660E+02  0.7818608E-02  0.1340582E+00
          2   -1    0    0  502    0  0.00000000000E+00  0.00000000000E+00  0.13690449919E+04  0.13690449919E+04  0.00000000000E+00 0. -1.
          1   -1    0    0  501    0 -0.00000000000E+00 -0.00000000000E+00 -0.72022243163E+03  0.72022243163E+03  0.00000000000E+00 0. -1.
         25    2    1    2    0    0  0.76562487631E+01 -0.40333020272E+02  0.24792651285E+03  0.28067324835E+03  0.12499818357E+03 0.  0.
          2    1    1    2  501    0  0.46503643047E+02  0.76476600592E+02 -0.70003775268E+03  0.70573657581E+03  0.00000000000E+00 0. -1.
          1    1    1    2  502    0 -0.54159891810E+02 -0.36143580320E+02  0.11009338001E+04  0.11028575993E+04  0.00000000000E+00 0. -1.
         22    1    3    3    0    0  0.24980875607E+02 -0.56297386360E+02  0.24956985218E+03  0.25705748573E+03  0.00000000000E+00 0.  1.
         22    1    3    3    0    0 -0.17324626844E+02  0.15964366088E+02 -0.16433393243E+01  0.23615762618E+02  0.00000000000E+00 0.  1.
</event>
<event>
 7    1  0.6146596E-006  0.1896272E+03  0.7818608E-02  0.1293611E+00
          2   -1    0    0  502    0  0.00000000000E+00  0.00000000000E+00  0.33801439753E+04  0.33801439753E+04  0.00000000000E+00 0. -1.
          1   -1    0    0  501    0 -0.00000000000E+00 -0.00000000000E+00 -0.49249555799E+02  0.49249555799E+02  0.00000000000E+00 0. -1.
         25    2    1    2    0    0  0.15958649771E+03  0.15616011634E+03  0.91744236920E+03  0.95245922961E+03  0.12499700425E+03 0.  0.
          2    1    1    2  501    0 -0.14561973450E+02 -0.44186836349E+02 -0.91482253255E+01  0.47415373076E+02  0.00000000000E+00 0. -1.
          1    1    1    2  502    0 -0.14502452426E+03 -0.11197327999E+03  0.24226002756E+04  0.24295189284E+04  0.00000000000E+00 0. -1.
         22    1    3    3    0    0  0.37161523595E+02  0.35966928943E+02  0.47678559944E+03  0.47958222094E+03  0.00000000000E+00 0. -1.
         22    1    3    3    0    0  0.12242497412E+03  0.12019318740E+03  0.44065676977E+03  0.47287700867E+03  0.00000000000E+00 0. -1.
</event>
<event>
 7    1  0.6146596E-006  0.4569527E+02  0.7818608E-02  0.1524713E+00
          2   -1    0    0  502    0  0.00000000000E+00  0.00000000000E+00  0.39794564814E+03  0.39794564814E+03  0.00000000000E+00 0. -1.
          1   -1    0    0  501    0 -0.00000000000E+00 -0.00000000000E+00 -0.51173929299E+03  0.51173929299E+03  0.00000000000E+00 0. -1.
         25    2    1    2    0    0 -0.23495642476E+02 -0.72239541756E+02 -0.99336136881E+02  0.17681906192E+03  0.12500686365E+03 0.  0.
          2    1    1    2  501    0  0.14760572174E+02  0.42141478747E+02 -0.37163914951E+03  0.37431195035E+03  0.00000000000E+00 0. -1.
          1    1    1    2  502    0  0.87350703018E+01  0.30098063009E+02  0.35718164154E+03  0.35855392886E+03  0.00000000000E+00 0. -1.
         22    1    3    3    0    0  0.57463833853E+01  0.34645194068E+02 -0.18819390666E+02  0.39843190874E+02  0.00000000000E+00 0. -1.
         22    1    3    3    0    0 -0.29242025861E+02 -0.10688473582E+03 -0.80516746215E+02  0.13697587105E+03  0.00000000000E+00 0. -1.
</event>
<event>
 7    1  0.6146596E-006  0.6343545E+02  0.7818608E-02  0.1441949E+00
          2   -1    0    0  502    0  0.00000000000E+00  0.00000000000E+00  0.61028404134E+03  0.61028404134E+03  0.00000000000E+00 0. -1.
          1   -1    0    0  501    0 -0.00000000000E+00 -0.00000000000E+00 -0.73383966271E+03  0.73383966271E+03  0.00000000000E+00 0. -1.
         25    2    1    2    0    0 -0.10009133923E+03  0.25909970024E+02 -0.11548840027E+03  0.19912786159E+03  0.12499892771E+03 0.  0.
          2    1    1    2  501    0  0.38881499070E+02 -0.11033096084E+02 -0.57407382668E+03  0.57549479464E+03  0.00000000000E+00 0. -1.
          1    1    1    2  502    0  0.61209840162E+02 -0.14876873940E+02  0.56600660558E+03  0.56950104782E+03  0.00000000000E+00 0. -1.
         22    1    3    3    0    0 -0.66760826309E+02  0.36153450367E+02  0.26331472950E+01  0.75967186124E+02  0.00000000000E+00 0. -1.
         22    1    3    3    0    0 -0.33330512923E+02 -0.10243480344E+02 -0.11812154757E+03  0.12316067546E+03  0.00000000000E+00 0. -1.
</event>
<event>
 7    1  0.6146596E-006  0.4489936E+02  0.7818608E-02  0.1561023E+00
          2   -1    0    0  502    0  0.00000000000E+00  0.00000000000E+00  0.16507896232E+04  0.16507896232E+04  0.00000000000E+00 0. -1.
          1   -1    0    0  501    0 -0.00000000000E+00 -0.00000000000E+00 -0.10436717384E+04  0.10436717384E+04  0.00000000000E+00 0. -1.
         25    2    1    2    0    0  0.10309290966E+02  0.31493089350E+02 -0.44284998981E+03  0.46134465838E+03  0.12499873672E+03 0.  0.
          2    1    1    2  501    0 -0.35473921813E+02 -0.30091650801E+02 -0.59056299966E+03  0.59239223758E+03  0.00000000000E+00 0. -1.
          1    1    1    2  502    0  0.25164630847E+02 -0.14014385489E+01  0.16405308743E+04  0.16407244656E+04  0.00000000000E+00 0. -1.
         22    1    3    3    0    0 -0.41776480093E+02  0.56594562543E+02 -0.21207303889E+03  0.22343498523E+03  0.00000000000E+00 0. -1.
         22    1    3    3    0    0  0.52085771059E+02 -0.25101473193E+02 -0.23077695092E+03  0.23790967315E+03  0.00000000000E+00 0. -1.
</event>
<event>
 7    1  0.6146596E-006  0.1297929E+03  0.7818608E-02  0.1376585E+00
          2   -1    0    0  502    0  0.00000000000E+00  0.00000000000E+00  0.11866610497E+03  0.11866610497E+03  0.00000000000E+00 0. -1.
          1   -1    0    0  501    0 -0.00000000000E+00 -0.00000000000E+00 -0.44621925064E+03  0.44621925064E+03  0.00000000000E+00 0. -1.
         25    2    1    2    0    0  0.11187499078E+03  0.89171173197E+02 -0.66612927968E+02  0.20131715816E+03  0.12499521714E+03 0.  0.
          2    1    1    2  501    0 -0.80495366562E+02 -0.99134894986E+02 -0.29175237991E+03  0.31847556049E+03  0.00000000000E+00 0. -1.
          1    1    1    2  502    0 -0.31379624213E+02  0.99637217890E+01  0.30812162220E+02  0.45092636964E+02  0.00000000000E+00 0. -1.
         22    1    3    3    0    0  0.22406179091E+02  0.49401868489E+02  0.31483532244E+02  0.62719967109E+02  0.00000000000E+00 0.  1.
         22    1    3    3    0    0  0.89468811685E+02  0.39769304708E+02 -0.98096460212E+02  0.13859719105E+03  0.00000000000E+00 0.  1.
</event>
<event>
 7    1  0.6146596E-006  0.9704770E+02  0.7818608E-02  0.1312717E+00
          2   -1    0    0  502    0  0.00000000000E+00  0.00000000000E+00  0.90326675154E+03  0.90326675154E+03  0.00000000000E+00 0. -1.
          1   -1    0    0  501    0 -0.00000000000E+00 -0.00000000000E+00 -0.14702709560E+03  0.14702709560E+03  0.00000000000E+00 0. -1.
         25    2    1    2    0    0  0.99705025956E+02 -0.13234079064E+03  0.24256178998E+03  0.31924356249E+03  0.12500021265E+03 0.  0.
          2    1    1    2  501    0 -0.36039235499E+02  0.67244696355E+02 -0.91458317869E+02  0.11910205536E+03  0.00000000000E+00 0. -1.
          1    1    1    2  502    0 -0.63665790457E+02  0.65096094287E+02  0.60513618382E+03  0.61194822929E+03  0.00000000000E+00 0. -1.
         22    1    3    3    0    0 -0.56961685826E+01 -0.56306571847E+02  0.17299885353E+02  0.59179070649E+02  0.00000000000E+00 0. -1.
         22    1    3    3    0    0  0.10540119454E+03 -0.76034218795E+02  0.22526190463E+03  0.26006449184E+03  0.00000000000E+00 0. -1.
</event>
<event>
 7    1  0.6146596E-006  0.3747964E+02  0.7818608E-02  0.1585623E+00
          2   -1    0    0  502    0  0.00000000000E+00  0.00000000000E+00  0.93919060334E+03  0.93919060334E+03  0.00000000000E+00 0. -1.
          1   -1    0    0  501    0 -0.00000000000E+00 -0.00000000000E+00 -0.14235910489E+03  0.14235910489E+03  0.00000000000E+00 0. -1.
         25    2    1    2    0    0 -0.50273833051E+02  0.24949736704E+02 -0.28711573085E+02  0.13999482705E+03  0.12499699805E+03 0.  0.
          2    1    1    2  501    0  0.24408710184E+02 -0.26363617147E+02 -0.52233115256E+02  0.63396559617E+02  0.00000000000E+00 0. -1.
          1    1    1    2  502    0  0.25865122867E+02  0.14138804429E+01  0.87777618679E+03  0.87815832157E+03  0.00000000000E+00 0. -1.
         22    1    3    3    0    0 -0.13688105337E+01  0.12955371892E+02 -0.72257787377E+02  0.73422769900E+02  0.00000000000E+00 0.  1.
         22    1    3    3    0    0 -0.48905022517E+02  0.11994364812E+02  0.43546214291E+02  0.66572057154E+02  0.00000000000E+00 0.  1.
</event>
<event>
 7    1  0.6146596E-006  0.3677693E+02  0.7818608E-02  0.1599406E+00
          2   -1    0    0  502    0  0.00000000000E+00  0.00000000000E+00  0.23105132111E+03  0.23105132111E+03  0.00000000000E+00 0. -1.
          1   -1    0    0  501    0 -0.00000000000E+00 -0.00000000000E+00 -0.38657122291E+03  0.38657122291E+03  0.00000000000E+00 0. -1.
         25    2    1    2    0    0  0.11349211223E+02  0.53389374093E+02  0.10932788571E+03  0.17480630940E+03  0.12500171740E+03 0.  0.
          2    1    1    2  501    0 -0.15715862584E+02 -0.18505422432E+02 -0.34992249712E+03  0.35076372816E+03  0.00000000000E+00 0. -1.
          1    1    1    2  502    0  0.43666513609E+01 -0.34883951661E+02  0.85074709623E+02  0.92052506457E+02  0.00000000000E+00 0. -1.
         22    1    3    3    0    0  0.25309575845E+02  0.91783792985E+02  0.82015520611E+02  0.12566377722E+03  0.00000000000E+00 0. -1.
         22    1    3    3    0    0 -0.13960364621E+02 -0.38394418891E+02  0.27312365095E+02  0.49142532184E+02  0.00000000000E+00 0. -1.
</event>
<event>
 7    1  0.6146596E-006  0.7801979E+02  0.7818608E-02  0.1344688E+00
          2   -1    0    0  502    0  0.00000000000E+00  0.00000000000E+00  0.52576769213E+03  0.52576769213E+03  0.00000000000E+00 0. -1.
          1   -1    0    0  501    0 -0.00000000000E+00 -0.00000000000E+00 -0.56139393690E+03  0.56139393690E+03  0.00000000000E+00 0. -1.
         25    2    1    2    0    0  0.12733398940E+03  0.76125946963E+02  0.11434174227E+03  0.22520066757E+03  0.12502880463E+03 0.  0.
          2    1    1    2  501    0 -0.65004921184E+02 -0.40905301150E+02 -0.49939947687E+03  0.50527093815E+03  0.00000000000E+00 0. -1.
          1    1    1    2  502    0 -0.62329068220E+02 -0.35220645812E+02  0.34943148984E+03  0.35669002331E+03  0.00000000000E+00 0. -1.
         22    1    3    3    0    0  0.71645125298E+02  0.10795375417E+03  0.82373851390E+02  0.15353334625E+03  0.00000000000E+00 0. -1.
         22    1    3    3    0    0  0.55688864105E+02 -0.31827807207E+02  0.31967890882E+02  0.71667321314E+02  0.00000000000E+00 0. -1.
</event>
<event>
 7    1  0.6146596E-006  0.6546815E+02  0.7818608E-02  0.1474170E+00
          2   -1    0    0  502    0  0.00000000000E+00  0.00000000000E+00  0.15016117237E+04  0.15016117237E+04  0.00000000000E+00 0. -1.
          1   -1    0    0  501    0 -0.00000000000E+00 -0.00000000000E+00 -0.78702936486E+02  0.78702936486E+02  0.00000000000E+00 0. -1.
         25    2    1    2    0    0 -0.47311564374E+02  0.82477666072E+02  0.29629612869E+03  0.33534723154E+03  0.12500168118E+03 0.  0.
          2    1    1    2  501    0  0.16421856730E+02 -0.26256357297E+02 -0.54194612601E+02  0.62418985188E+02  0.00000000000E+00 0. -1.
          1    1    1    2  502    0  0.30889707645E+02 -0.56221308776E+02  0.11808072711E+04  0.11825484435E+04  0.00000000000E+00 0. -1.
         22    1    3    3    0    0 -0.19410790278E+02  0.10084758112E+03  0.27987823058E+03  0.29812553958E+03  0.00000000000E+00 0. -1.
         22    1    3    3    0    0 -0.27900774097E+02 -0.18369915044E+02  0.16417898115E+02  0.37221691961E+02  0.00000000000E+00 0. -1.
</event>
<event>
 7    1  0.6146596E-006  0.9837412E+02  0.7818608E-02  0.1399885E+00
          2   -1    0    0  502    0  0.00000000000E+00  0.00000000000E+00  0.16498280919E+04  0.16498280919E+04  0.00000000000E+00 0. -1.
          1   -1    0    0  501    0 -0.00000000000E+00 -0.00000000000E+00 -0.22703002577E+03  0.22703002577E+03  0.00000000000E+00 0. -1.
         25    2    1    2    0    0  0.23684636083E+02 -0.74003154683E+02  0.16931314332E+03  0.22434207420E+03  0.12499998745E+03 0.  0.
          2    1    1    2  501    0 -0.59079027713E+02  0.80600188045E+02 -0.18676274543E+03  0.21181842438E+03  0.00000000000E+00 0. -1.
          1    1    1    2  502    0  0.35394391630E+02 -0.65970333620E+01  0.14402476683E+04  0.14406976191E+04  0.00000000000E+00 0. -1.
         22    1    3    3    0    0 -0.46596717813E+02 -0.66405243632E+01  0.76609271737E+02  0.89912908922E+02  0.00000000000E+00 0. -1.
         22    1    3    3    0    0  0.70281353896E+02 -0.67362630320E+02  0.92703871586E+02  0.13442916527E+03  0.00000000000E+00 0. -1.
</event>
<event>
 7    1  0.6146596E-006  0.1169118E+03  0.7818608E-02  0.1269320E+00
          2   -1    0    0  502    0  0.00000000000E+00  0.00000000000E+00  0.10223323022E+03  0.10223323022E+03  0.00000000000E+00 0. -1.
          1   -1    0    0  501    0 -0.00000000000E+00 -0.00000000000E+00 -0.84394376087E+03  0.84394376087E+03  0.00000000000E+00 0. -1.
         25    2    1    2    0    0 -0.29252111747E+02  0.75810608224E+02 -0.51185042339E+03  0.53312152521E+03  0.12499908140E+03 0.  0.
          2    1    1    2  501    0  0.14306944816E+03 -0.49090157062E+02 -0.25214981633E+03  0.29403782136E+03  0.00000000000E+00 0. -1.
          1    1    1    2  502    0 -0.11381733641E+03 -0.26720451163E+02  0.22289709074E+02  0.11901764452E+03  0.00000000000E+00 0. -1.
         22    1    3    3    0    0  0.17594724570E+01 -0.23011338474E+02 -0.25691731003E+03  0.25795178161E+03  0.00000000000E+00 0.  1.
         22    1    3    3    0    0 -0.31011584204E+02  0.98821946699E+02 -0.25493311337E+03  0.27516974360E+03  0.00000000000E+00 0.  1.
</event>
<event>
 7    1  0.6146596E-006  0.8534173E+02  0.7818608E-02  0.1353897E+00
          2   -1    0    0  502    0  0.00000000000E+00  0.00000000000E+00  0.48796073828E+03  0.48796073828E+03  0.00000000000E+00 0. -1.
          1   -1    0    0  501    0 -0.00000000000E+00 -0.00000000000E+00 -0.16050893384E+04  0.16050893384E+04  0.00000000000E+00 0. -1.
         25    2    1    2    0    0  0.76827477028E+02 -0.11036671659E+02 -0.25629442018E+03  0.29552742658E+03  0.12500144278E+03 0.  0.
          2    1    1    2  501    0 -0.23202554059E+02 -0.55873136880E+02 -0.13245573921E+04  0.13259383285E+04  0.00000000000E+00 0. -1.
          1    1    1    2  502    0 -0.53624922970E+02  0.66909808539E+02  0.46372321220E+03  0.47158432159E+03  0.00000000000E+00 0. -1.
         22    1    3    3    0    0  0.29202414331E+02 -0.52957397939E+02 -0.46318555832E+02  0.76175295297E+02  0.00000000000E+00 0.  1.
         22    1    3    3    0    0  0.47625062698E+02  0.41920726280E+02 -0.20997586435E+03  0.21935213128E+03  0.00000000000E+00 0.  1.
</event>
<event>
 7    1  0.6146596E-006  0.2790450E+02  0.7818608E-02  0.1642132E+00
          2   -1    0    0  502    0  0.00000000000E+00  0.00000000000E+00  0.73649556766E+03  0.73649556766E+03  0.00000000000E+00 0. -1.
          1   -1    0    0  501    0 -0.00000000000E+00 -0.00000000000E+00 -0.98026150039E+03  0.98026150039E+03  0.00000000000E+00 0. -1.
         25    2    1    2    0    0 -0.34947736650E+02 -0.18509612722E+01 -0.13478932309E+03  0.18713106992E+03  0.12500042143E+03 0.  0.
          2    1    1    2  501    0  0.20794599765E+02 -0.18648918987E+02 -0.81884469329E+03  0.81932095622E+03  0.00000000000E+00 0. -1.
          1    1    1    2  502    0  0.14153136884E+02  0.20499880259E+02  0.70986808366E+03  0.71030504191E+03  0.00000000000E+00 0. -1.
         22    1    3    3    0    0 -0.18471787445E+02  0.61514658129E+02 -0.70534830512E+02  0.95396134153E+02  0.00000000000E+00 0. -1.
         22    1    3    3    0    0 -0.16475949205E+02 -0.63365619401E+02 -0.64254492578E+02  0.91734935770E+02  0.00000000000E+00 0. -1.
</event>
<event>
 7    1  0.6146596E-006  0.1583804E+03  0.7818608E-02  0.1233776E+00
          2   -1    0    0  502    0  0.00000000000E+00  0.00000000000E+00  0.15838455365E+04  0.15838455365E+04  0.00000000000E+00 0. -1.
          1   -1    0    0  501    0 -0.00000000000E+00 -0.00000000000E+00 -0.21547411130E+04  0.21547411130E+04  0.00000000000E+00 0. -1.
         25    2    1    2    0    0  0.15203271084E+03  0.16359753362E+03  0.13165513345E+02  0.25627339009E+03  0.12499848622E+03 0.  0.
          2    1    1    2  501    0 -0.90075521643E+01 -0.99564846803E+02 -0.20277156962E+04  0.20301786225E+04  0.00000000000E+00 0. -1.
          1    1    1    2  502    0 -0.14302515868E+03 -0.64032686816E+02  0.14436546064E+04  0.14521346368E+04  0.00000000000E+00 0. -1.
         22    1    3    3    0    0  0.15441426324E+03  0.18123270043E+03  0.11023514476E+02  0.23834968904E+03  0.00000000000E+00 0. -1.
         22    1    3    3    0    0 -0.23815523946E+01 -0.17635166810E+02  0.21419988695E+01  0.17923701052E+02  0.00000000000E+00 0. -1.
</event>
<event>
 7    1  0.6146596E-006  0.9146667E+02  0.7818608E-02  0.1428456E+00
          2   -1    0    0  502    0  0.00000000000E+00  0.00000000000E+00  0.11745912831E+04  0.11745912831E+04  0.00000000000E+00 0. -1.
          1   -1    0    0  501    0 -0.00000000000E+00 -0.00000000000E+00 -0.70725201955E+03  0.70725201955E+03  0.00000000000E+00 0. -1.
         25    2    1    2    0    0 -0.84975903359E+02 -0.69164529248E+02 -0.35635983398E+03  0.39321794627E+03  0.12499354279E+03 0.  0.
          2    1    1    2  501    0  0.53991426783E+02  0.67565283290E+02 -0.32662563531E+03  0.33788229801E+03  0.00000000000E+00 0. -1.
          1    1    1    2  502    0  0.30984476577E+02  0.15992459585E+01  0.11503247329E+04  0.11507430584E+04  0.00000000000E+00 0. -1.
         22    1    3    3    0    0 -0.73106005376E+02 -0.10145539733E+03 -0.31792719507E+03  0.34163633740E+03  0.00000000000E+00 0.  1.
         22    1    3    3    0    0 -0.11869897983E+02  0.32290868087E+02 -0.38432638916E+02  0.51581608873E+02  0.00000000000E+00 0.  1.
</event>
<event>
 7    1  0.6146596E-006  0.8557579E+02  0.7818608E-02  0.1395402E+00
          2   -1    0    0  502    0  0.00000000000E+00  0.00000000000E+00  0.20108268456E+03  0.20108268456E+03  0.00000000000E+00 0. -1.
          1   -1    0    0  501    0 -0.00000000000E+00 -0.00000000000E+00 -0.13877890926E+04  0.13877890926E+04  0.00000000000E+00 0. -1.
         25    2    1    2    0    0  0.12034050957E+03 -0.55750359109E+01  0.34214578561E+02  0.17693992098E+03  0.12499671588E+03 0.  0.
          2    1    1    2  501    0 -0.42522693265E+02  0.55963311051E+01 -0.13001624158E+04  0.13008696345E+04  0.00000000000E+00 0. -1.
          1    1    1    2  502    0 -0.77817816310E+02 -0.21295194254E-01  0.79241429211E+02  0.11106222171E+03  0.00000000000E+00 0. -1.
         22    1    3    3    0    0  0.12166452301E+03 -0.48203291787E+02  0.28193685999E+02  0.13386820918E+03  0.00000000000E+00 0.  1.
         22    1    3    3    0    0 -0.13240134326E+01  0.42628255876E+02  0.60208925628E+01  0.43071711806E+02  0.00000000000E+00 0.  1.
</event>
<event>
 7    1  0.6146596E-006  0.2009698E+03  0.7818608E-02  0.1278236E+00
          2   -1    0    0  502    0  0.00000000000E+00  0.00000000000E+00  0.98178724243E+03  0.98178724243E+03  0.00000000000E+00 0. -1.
          1   -1    0    0  501    0 -0.00000000000E+00 -0.00000000000E+00 -0.56909779781E+03  0.56909779781E+03  0.00000000000E+00 0. -1.
         25    2    1    2    0    0 -0.16736966679E+03  0.10851863264E+03 -0.12050779689E+03  0.26445334345E+03  0.12499817101E+03 0.  0.
          2    1    1    2  501    0 -0.23713747015E+02 -0.44863333521E+02 -0.36368756460E+03  0.36721070945E+03  0.00000000000E+00 0. -1.
          1    1    1    2  502    0  0.19108341381E+03 -0.63655299117E+02  0.89688480611E+03  0.91922098735E+03  0.00000000000E+00 0. -1.
         22    1    3    3    0    0 -0.16729468224E+03  0.59136060034E+02 -0.62157055458E+02  0.18801086098E+03  0.00000000000E+00 0. -1.
         22    1    3    3    0    0 -0.74984553118E-01  0.49382572604E+02 -0.58350741435E+02  0.76442482467E+02  0.00000000000E+00 0. -1.
</event>
<event>
 7    1  0.6146596E-006  0.1120995E+03  0.7818608E-02  0.1315812E+00
          2   -1    0    0  502    0  0.00000000000E+00  0.00000000000E+00  0.82091515517E+03  0.82091515517E+03  0.00000000000E+00 0. -1.
          1   -1    0    0  501    0 -0.00000000000E+00 -0.00000000000E+00 -0.72167737798E+03  0.72167737798E+03  0.00000000000E+00 0. -1.
         25    2    1    2    0    0  0.52978525298E+02 -0.33102231659E+02 -0.13948582169E+03  0.19743942311E+03  0.12499419772E+03 0.  0.
          2    1    1    2  501    0  0.60019912141E+02  0.22877178701E+02 -0.54726299249E+03  0.55101954421E+03  0.00000000000E+00 0. -1.
          1    1    1    2  502    0 -0.11299843744E+03  0.10225052958E+02  0.78598659136E+03  0.79413356582E+03  0.00000000000E+00 0. -1.
         22    1    3    3    0    0  0.76014518117E+02 -0.49973991831E+02 -0.50634476511E+02  0.10411271313E+03  0.00000000000E+00 0.  1.
         22    1    3    3    0    0 -0.23035992819E+02  0.16871760173E+02 -0.88851345176E+02  0.93326709982E+02  0.00000000000E+00 0.  1.
</event>
<event>
 7    1  0.6146596E-006  0.7502744E+02  0.7818608E-02  0.1425722E+00
          2   -1    0    0  502    0  0.00000000000E+00  0.00000000000E+00  0.68794481983E+03  0.68794481983E+03  0.00000000000E+00 0. -1.
          1   -1    0    0  501    0 -0.00000000000E+00 -0.00000000000E+00 -0.16316992872E+03  0.16316992872E+03  0.00000000000E+00 0. -1.
         25    2    1    2    0    0  0.29674851265E+02  0.26033763585E+02  0.21694465331E+01  0.13110458037E+03  0.12500140340E+03 0.  0.
          2    1    1    2  501    0  0.16039162296E+02  0.35130880533E+02 -0.92471264847E+02  0.10021161767E+03  0.00000000000E+00 0. -1.
          1    1    1    2  502    0 -0.45714013561E+02 -0.61164644118E+02  0.61507670943E+03  0.61979855050E+03  0.00000000000E+00 0. -1.
         22    1    3    3    0    0  0.63737006415E+02  0.14899375726E+02 -0.39260191022E+02  0.76326666263E+02  0.00000000000E+00 0.  1.
         22    1    3    3    0    0 -0.34062155149E+02  0.11134387859E+02  0.41429637555E+02  0.54777914111E+02  0.00000000000E+00 0.  1.
</event>
<event>
 7    1  0.6146596E-006  0.1029436E+03  0.7818608E-02  0.1326190E+00
          2   -1    0    0  502    0  0.00000000000E+00  0.00000000000E+00  0.50599476780E+03  0.50599476780E+03  0.00000000000E+00 0. -1.
          1   -1    0    0  501    0 -0.00000000000E+00 -0.00000000000E+00 -0.16610389264E+03  0.16610389264E+03  0.00000000000E+00 0. -1.
         25    2    1    2    0    0  0.59467546370E+02  0.32887251864E+02  0.40293742699E+02  0.14787442458E+03  0.12500119735E+03 0.  0.
          2    1    1    2  501    0 -0.78445613582E+01  0.63276088960E+02 -0.95221620162E+02  0.11459737136E+03  0.00000000000E+00 0. -1.
          1    1    1    2  502    0 -0.51622985012E+02 -0.96163340824E+02  0.39481875262E+03  0.40962686450E+03  0.00000000000E+00 0. -1.
         22    1    3    3    0    0  0.26595018982E+02 -0.34341089473E+02  0.56538602001E+02  0.71296696817E+02  0.00000000000E+00 0. -1.
         22    1    3    3    0    0  0.32872527389E+02  0.67228341336E+02 -0.16244859302E+02  0.76577727764E+02  0.00000000000E+00 0. -1.
</event>
<event>
 7    1  0.6146596E-006  0.1254098E+03  0.7818608E-02  0.1239225E+00
          2   -1    0    0  502    0  0.00000000000E+00  0.00000000000E+00  0.63686068547E+03  0.63686068547E+03  0.00000000000E+00 0. -1.
          1   -1    0    0  501    0 -0.00000000000E+00 -0.00000000000E+00 -0.35465823193E+03  0.35465823193E+03  0.00000000000E+00 0. -1.
         25    2    1    2    0    0 -0.63945815072E+02 -0.12856756345E+03  0.15319733754E+03  0.24436235349E+03  0.12499939974E+03 0.  0.
          2    1    1    2  501    0 -0.64313862666E+02  0.10062199713E+03 -0.28704175552E+03  0.31089231038E+03  0.00000000000E+00 0. -1.
          1    1    1    2  502    0  0.12825967774E+03  0.27945566325E+02  0.41604687153E+03  0.43626425354E+03  0.00000000000E+00 0. -1.
         22    1    3    3    0    0 -0.26011637589E+02 -0.28486282350E+02  0.12898323555E+03  0.13462818659E+03  0.00000000000E+00 0. -1.
         22    1    3    3    0    0 -0.37934177484E+02 -0.10008128110E+03  0.24214101989E+02  0.10973416689E+03  0.00000000000E+00 0. -1.
</event>
<event>
 7    1  0.6146596E-006  0.9315955E+02  0.7818608E-02  0.1406673E+00
          2   -1    0    0  502    0  0.00000000000E+00  0.00000000000E+00  0.13581369431E+04  0.13581369431E+04  0.00000000000E+00 0. -1.
          1   -1    0    0  501    0 -0.00000000000E+00 -0.00000000000E+00 -0.10300951410E+04  0.10300951410E+04  0.00000000000E+00 0. -1.
         25    2    1    2    0    0  0.51026129604E+02 -0.46797755489E+02 -0.77540314469E+02  0.16257579004E+03  0.12499876527E+03 0.  0.
          2    1    1    2  501    0 -0.46484863436E+02  0.82549521355E+02 -0.90732351700E+03  0.91225612111E+03  0.00000000000E+00 0. -1.
          1    1    1    2  502    0 -0.45412661679E+01 -0.35751765867E+02  0.13129056335E+04  0.13134001730E+04  0.00000000000E+00 0. -1.
         22    1    3    3    0    0 -0.23438944116E+02 -0.29218925934E+02  0.16847066851E+02  0.41072538216E+02  0.00000000000E+00 0.  1.
         22    1    3    3    0    0  0.74465073719E+02 -0.17578829555E+02 -0.94387381320E+02  0.12150325183E+03  0.00000000000E+00 0.  1.
</event>
<event>
 7    1  0.6146596E-006  0.2595450E+03  0.7818608E-02  0.1327182E+00
          2   -1    0    0  502    0  0.00000000000E+00  0.00000000000E+00  0.25659031214E+03  0.25659031214E+03  0.00000000000E+00 0. -1.
          1   -1    0    0  501    0 -0.00000000000E+00 -0.00000000000E+00 -0.11664084667E+04  0.11664084667E+04  0.00000000000E+00 0. -1.
         25    2    1    2    0    0  0.11573101904E+03 -0.25440988387E+03 -0.69011811491E+03  0.75498680652E+03  0.12499603078E+03 0.  0.
          2    1    1    2  501    0 -0.19749397034E+02  0.15439975355E+02 -0.36932529082E+03  0.37017509636E+03  0.00000000000E+00 0. -1.
          1    1    1    2  502    0 -0.95981622001E+02  0.23896990852E+03  0.14962525113E+03  0.29783687601E+03  0.00000000000E+00 0. -1.
         22    1    3    3    0    0  0.64502882523E+02 -0.22774604094E+03 -0.62294692016E+03  0.66640209059E+03  0.00000000000E+00 0.  1.
         22    1    3    3    0    0  0.51228136512E+02 -0.26663842937E+02 -0.67171194751E+02  0.88584715922E+02  0.00000000000E+00 0.  1.
</event>
<event>
 7    1  0.6146596E-006  0.9830230E+02  0.7818608E-02  0.1308097E+00
          2   -1    0    0  502    0  0.00000000000E+00  0.00000000000E+00  0.11594451536E+04  0.11594451536E+04  0.00000000000E+00 0. -1.
          1   -1    0    0  501    0 -0.00000000000E+00 -0.00000000000E+00 -0.22208220997E+03  0.22208220997E+03  0.00000000000E+00 0. -1.
         25    2    1    2    0    0  0.68026885475E+02  0.81844391129E+02 -0.27263782422E+02  0.16641692949E+03  0.12500047632E+03 0.  0.
          2    1    1    2  501    0  0.30345362558E+02 -0.72442984951E+02 -0.11043497582E+03  0.13551646019E+03  0.00000000000E+00 0. -1.
          1    1    1    2  502    0 -0.98372248032E+02 -0.94014061781E+01  0.10750617018E+04  0.10795939739E+04  0.00000000000E+00 0. -1.
         22    1    3    3    0    0  0.25066080291E+02  0.74701374528E+02 -0.70002101514E+02  0.10539875689E+03  0.00000000000E+00 0.  1.
         22    1    3    3    0    0  0.42960805184E+02  0.71430166009E+01  0.42738319092E+02  0.61018172596E+02  0.00000000000E+00 0.  1.
</event>
<event>
 7    1  0.6146596E-006  0.1335399E+03  0.7818608E-02  0.1399431E+00
          2   -1    0    0  502    0  0.00000000000E+00  0.00000000000E+00  0.90891176721E+03  0.90891176721E+03  0.00000000000E+00 0. -1.
          1   -1    0    0  501    0 -0.00000000000E+00 -0.00000000000E+00 -0.97570882405E+03  0.97570882405E+03  0.00000000000E+00 0. -1.
         25    2    1    2    0    0 -0.13313814887E+03  0.42840482302E+00  0.14841899782E+02  0.18322881907E+03  0.12500627158E+03 0.  0.
          2    1    1    2  501    0  0.19837028543E+01 -0.26544257894E+02 -0.88579362598E+03  0.88619347805E+03  0.00000000000E+00 0. -1.
          1    1    1    2  502    0  0.13115444601E+03  0.26115853071E+02  0.80415466937E+03  0.81519829413E+03  0.00000000000E+00 0. -1.
         22    1    3    3    0    0 -0.92580916075E+02  0.34374197065E+02 -0.40445864400E+02  0.10671775575E+03  0.00000000000E+00 0. -1.
         22    1    3    3    0    0 -0.40557232794E+02 -0.33945792242E+02  0.55287764183E+02  0.76511063325E+02  0.00000000000E+00 0. -1.
</event>
<event>
 7    1  0.6146596E-006  0.1037297E+03  0.7818608E-02  0.1383578E+00
          2   -1    0    0  502    0  0.00000000000E+00  0.00000000000E+00  0.12770439104E+04  0.12770439104E+04  0.00000000000E+00 0. -1.
          1   -1    0    0  501    0 -0.00000000000E+00 -0.00000000000E+00 -0.27719055817E+03  0.27719055817E+03  0.00000000000E+00 0. -1.
         25    2    1    2    0    0  0.84870065851E+02  0.65157245761E+02  0.74073242349E+03  0.75878698573E+03  0.12499908700E+03 0.  0.
          2    1    1    2  501    0 -0.99606095705E+02 -0.29142780822E+02 -0.25736274582E+03  0.27750001606E+03  0.00000000000E+00 0. -1.
          1    1    1    2  502    0  0.14736029854E+02 -0.36014464939E+02  0.51648367454E+03  0.51794746677E+03  0.00000000000E+00 0. -1.
         22    1    3    3    0    0  0.11758486050E+02  0.75011357845E+02  0.21733753040E+03  0.23021852210E+03  0.00000000000E+00 0.  1.
         22    1    3    3    0    0  0.73111579801E+02 -0.98541120840E+01  0.52339489309E+03  0.52856846362E+03  0.00000000000E+00 0.  1.
</event>
<event>
 7    1  0.6146596E-006  0.6442476E+02  0.7818608E-02  0.1528340E+00
          2   -1    0    0  502    0  0.00000000000E+00  0.00000000000E+00  0.34863718149E+03  0.34863718149E+03  0.00000000000E+00 0. -1.
          1   -1    0    0  501    0 -0.00000000000E+00 -0.00000000000E+00 -0.12618214870E+03  0.12618214870E+03  0.00000000000E+00 0. -1.
         25    2    1    2    0    0 -0.40258561773E+02 -0.71996293929E+02  0.14374481422E+03  0.20758587359E+03  0.12500042065E+03 0.  0.
          2    1    1    2  501    0  0.66922782699E+01  0.20643204064E+02 -0.87453520504E+02  0.90105752929E+02  0.00000000000E+00 0. -1.
          1    1    1    2  502    0  0.33566283503E+02  0.51353089866E+02  0.16616373906E+03  0.17712770367E+03  0.00000000000E+00 0. -1.
         22    1    3    3    0    0 -0.67286393263E+02 -0.41213345738E+02  0.14663791501E+03  0.16651929829E+03  0.00000000000E+00 0. -1.
         22    1    3    3    0    0  0.27027831491E+02 -0.30782948191E+02 -0.28931007854E+01  0.41066575296E+02  0.00000000000E+00 0. -1.
</event>
<event>
 7    1  0.6146596E-006  0.2900849E+02  0.7818608E-02  0.1613418E+00
          2   -1    0    0  502    0  0.00000000000E+00  0.00000000000E+00  0.21992698709E+02  0.21992698709E+02  0.00000000000E+00 0. -1.
          1   -1    0    0  501    0 -0.00000000000E+00 -0.00000000000E+00 -0.13391748151E+04  0.13391748151E+04  0.00000000000E+00 0. -1.
         25    2    1    2    0    0 -0.37251343140E+02 -0.40105030910E+02 -0.62585278286E+03  0.64055684681E+03  0.12500116843E+03 0.  0.
          2    1    1    2  501    0  0.24108372987E+02  0.14842837789E+02 -0.69155392688E+03  0.69213319330E+03  0.00000000000E+00 0. -1.
          1    1    1    2  502    0  0.13142970153E+02  0.25262193121E+02  0.22459335947E+00  0.28477473693E+02  0.00000000000E+00 0. -1.
         22    1    3    3    0    0  0.23847992361E+02 -0.62702555938E+02 -0.39636759080E+03  0.40200448294E+03  0.00000000000E+00 0.  1.
         22    1    3    3    0    0 -0.61099335501E+02  0.22597525028E+02 -0.22948519205E+03  0.23855236387E+03  0.00000000000E+00 0.  1.
</event>
<event>
 7    1  0.6146596E-006  0.4221233E+02  0.7818608E-02  0.1575908E+00
          2   -1    0    0  502    0  0.00000000000E+00  0.00000000000E+00  0.40877920032E+03  0.40877920032E+03  0.00000000000E+00 0. -1.
          1   -1    0    0  501    0 -0.00000000000E+00 -0.00000000000E+00 -0.84529139662E+03  0.84529139662E+03  0.00000000000E+00 0. -1.
         25    2    1    2    0    0 -0.48446942637E+02  0.20389616926E+02  0.30746367414E+03  0.33603834450E+03  0.12500006133E+03 0.  0.
          2    1    1    2  501    0  0.84054269052E+01 -0.22927775154E+02 -0.82618978412E+03  0.82655059945E+03  0.00000000000E+00 0. -1.
          1    1    1    2  502    0  0.40041515731E+02  0.25381582286E+01  0.82213913682E+02  0.91481652982E+02  0.00000000000E+00 0. -1.
         22    1    3    3    0    0  0.38357363027E+02  0.26813730352E+02  0.13446846638E+03  0.14237988581E+03  0.00000000000E+00 0.  1.
         22    1    3    3    0    0 -0.86804305664E+02 -0.64241134262E+01  0.17299520776E+03  0.19365845869E+03  0.00000000000E+00 0.  1.
</event>
<event>
 7    1  0.6146596E-006  0.4054274E+02  0.7818608E-02  0.1536181E+00
          2   -1    0    0  502    0  0.00000000000E+00  0.00000000000E+00  0.67168420333E+03  0.67168420333E+03  0.00000000000E+00 0. -1.
          1   -1    0    0  501    0 -0.00000000000E+00 -0.00000000000E+00 -0.62543359914E+03  0.62543359914E+03  0.00000000000E+00 0. -1.
         25    2    1    2    0    0 -0.22256648631E+02  0.68358690374E+02 -0.76961667844E+02  0.16345004313E+03  0.12499819729E+03 0.  0.
          2    1    1    2  501    0  0.35908321194E+01 -0.32553269797E+02 -0.50404715005E+03  0.50511002656E+03  0.00000000000E+00 0. -1.
          1    1    1    2  502    0  0.18665816512E+02 -0.35805420577E+02  0.62725942209E+03  0.62855773279E+03  0.00000000000E+00 0. -1.
         22    1    3    3    0    0 -0.71872003699E+02  0.59829403011E+02 -0.55314955425E+02  0.10865029532E+03  0.00000000000E+00 0. -1.
         22    1    3    3    0    0  0.49615355068E+02  0.85292873626E+01 -0.21646712418E+02  0.54799747809E+02  0.00000000000E+00 0. -1.
</event>
<event>
 7    1  0.6146596E-006  0.5946550E+02  0.7818608E-02  0.1440907E+00
          2   -1    0    0  502    0  0.00000000000E+00  0.00000000000E+00  0.14917199458E+04  0.14917199458E+04  0.00000000000E+00 0. -1.
          1   -1    0    0  501    0 -0.00000000000E+00 -0.00000000000E+00 -0.28889496615E+03  0.28889496615E+03  0.00000000000E+00 0. -1.
         25    2    1    2    0    0  0.17705700381E+02 -0.66136413655E+01  0.35021442478E+03  0.37233368884E+03  0.12500000178E+03 0.  0.
          2    1    1    2  501    0 -0.41970404723E+02  0.42658473224E+02 -0.27418927258E+03  0.28064393350E+03  0.00000000000E+00 0. -1.
          1    1    1    2  502    0  0.24264704341E+02 -0.36044831858E+02  0.11267998275E+04  0.11276372896E+04  0.00000000000E+00 0. -1.
         22    1    3    3    0    0 -0.19120967928E+02  0.52991307774E+02  0.15268865982E+03  0.16274986007E+03  0.00000000000E+00 0.  1.
         22    1    3    3    0    0  0.36826668309E+02 -0.59604949140E+02  0.19752576496E+03  0.20958382878E+03  0.00000000000E+00 0.  1.
</event>
<event>
 7    1  0.6146596E-006  0.5122823E+02  0.7818608E-02  0.1442586E+00
          2   -1    0    0  502    0  0.00000000000E+00  0.00000000000E+00  0.41830769887E+03  0.41830769887E+03  0.00000000000E+00 0. -1.
          1   -1    0    0  501    0 -0.00000000000E+00 -0.00000000000E+00 -0.13198314296E+03  0.13198314296E+03  0.00000000000E+00 0. -1.
         25    2    1    2    0    0  0.41851061022E+02 -0.22182299708E+02  0.14717044251E+03  0.19881667977E+03  0.12500146909E+03 0.  0.
          2    1    1    2  501    0 -0.41180521245E+02 -0.30471243815E+02 -0.96905321467E+02  0.10961283391E+03  0.00000000000E+00 0. -1.
          1    1    1    2  502    0 -0.67053977688E+00  0.52653543524E+02  0.23605943487E+03  0.24186132816E+03  0.00000000000E+00 0. -1.
         22    1    3    3    0    0  0.24331916769E+02  0.51218154585E+02  0.48630820535E+02  0.74701393820E+02  0.00000000000E+00 0.  1.
         22    1    3    3    0    0  0.17519144253E+02 -0.73400454294E+02  0.98539621979E+02  0.12411528595E+03  0.00000000000E+00 0.  1.
</event>
<event>
 7    1  0.6146596E-006  0.1856871E+03  0.7818608E-02  0.1256326E+00
          2   -1    0    0  502    0  0.00000000000E+00  0.00000000000E+00  0.45234383348E+03  0.45234383348E+03  0.00000000000E+00 0. -1.
          1   -1    0    0  501    0 -0.00000000000E+00 -0.00000000000E+00 -0.94639337174E+03  0.94639337174E+03  0.00000000000E+00 0. -1.
         25    2    1    2    0    0 -0.77979615580E+02 -0.11996830737E+03 -0.12994489992E+03  0.23019273766E+03  0.12501921548E+03 0.  0.
          2    1    1    2  501    0  0.64590343334E+02  0.18658160023E+03 -0.75059361064E+03  0.77612845221E+03  0.00000000000E+00 0. -1.
          1    1    1    2  502    0  0.13389272245E+02 -0.66613292857E+02  0.38648897229E+03  0.39241601535E+03  0.00000000000E+00 0. -1.
         22    1    3    3    0    0 -0.27746583979E+01 -0.10278951316E+03 -0.10986896188E+03  0.15048113347E+03  0.00000000000E+00 0. -1.
         22    1    3    3    0    0 -0.75204957182E+02 -0.17178794209E+02 -0.20075938039E+02  0.79711604195E+02  0.00000000000E+00 0. -1.
</event>
<event>
 7    1  0.6146596E-006  0.4271120E+02  0.7818608E-02  0.1489424E+00
          2   -1    0    0  502    0  0.00000000000E+00  0.00000000000E+00  0.15899138600E+04  0.15899138600E+04  0.00000000000E+00 0. -1.
          1   -1    0    0  501    0 -0.00000000000E+00 -0.00000000000E+00 -0.12242790885E+04  0.12242790885E+04  0.00000000000E+00 0. -1.
         25    2    1    2    0    0  0.69148709326E+02  0.48295900386E+01  0.21859907349E+02  0.14459443662E+03  0.12499930644E+03 0.  0.
          2    1    1    2  501    0 -0.36313971551E+02  0.22361485266E+02 -0.11622190875E+04  0.11630012674E+04  0.00000000000E+00 0. -1.
          1    1    1    2  502    0 -0.32834737775E+02 -0.27191075305E+02  0.15059939516E+04  0.15065972444E+04  0.00000000000E+00 0. -1.
         22    1    3    3    0    0 -0.33801476248E+02  0.14636385876E+02  0.18268907222E+02  0.41115891807E+02  0.00000000000E+00 0. -1.
         22    1    3    3    0    0  0.10295018557E+03 -0.98067958378E+01  0.35910001271E+01  0.10347854481E+03  0.00000000000E+00 0. -1.
</event>
<event>
 7    1  0.6146596E-006  0.6459485E+02  0.7818608E-02  0.1416407E+00
          2   -1    0    0  502    0  0.00000000000E+00  0.00000000000E+00  0.57169923213E+03  0.57169923213E+03  0.00000000000E+00 0. -1.
          1   -1    0    0  501    0 -0.00000000000E+00 -0.00000000000E+00 -0.56256551314E+02  0.56256551314E+02  0.00000000000E+00 0. -1.
         25    2    1    2    0    0 -0.39619844039E+01 -0.51620031000E+02  0.19815226826E+03  0.23993654986E+03  0.12499960649E+03 0.  0.
          2    1    1    2  501    0 -0.44207818732E+02  0.52733613592E+02  0.17640056115E+01  0.68835143316E+02  0.00000000000E+00 0. -1.
          1    1    1    2  502    0  0.48169803136E+02 -0.11135825920E+01  0.31552640694E+03  0.31918409026E+03  0.00000000000E+00 0. -1.
         22    1    3    3    0    0 -0.95468137508E+01  0.18587984260E+02  0.15696055784E+03  0.15834541840E+03  0.00000000000E+00 0. -1.
         22    1    3    3    0    0  0.55848293469E+01 -0.70208015260E+02  0.41191710421E+02  0.81591131460E+02  0.00000000000E+00 0. -1.
</event>
<event>
 7    1  0.6146596E-006  0.3690484E+02  0.7818608E-02  0.1602539E+00
          2   -1    0    0  502    0  0.00000000000E+00  0.00000000000E+00  0.53620198703E+03  0.53620198703E+03  0.00000000000E+00 0. -1.
          1   -1    0    0  501    0 -0.00000000000E+00 -0.00000000000E+00 -0.12169888584E+04  0.12169888584E+04  0.00000000000E+00 0. -1.
         25    2    1    2    0    0  0.11793478420E+02 -0.61487940567E+01 -0.24258115405E+02  0.12802306591E+03  0.12499822175E+03 0.  0.
          2    1    1    2  501    0 -0.32644337190E+02  0.17505231050E+02 -0.11402563487E+04  0.11408578468E+04  0.00000000000E+00 0. -1.
          1    1    1    2  502    0  0.20850858770E+02 -0.11356436993E+02  0.48372759273E+03  0.48430993273E+03  0.00000000000E+00 0. -1.
         22    1    3    3    0    0  0.13750229521E+02 -0.62353592116E+02  0.60493491791E+01  0.64137616787E+02  0.00000000000E+00 0. -1.
         22    1    3    3    0    0 -0.19567511017E+01  0.56204798059E+02 -0.30307464584E+02  0.63885449120E+02  0.00000000000E+00 0. -1.
</event>
<event>
 7    1  0.6146596E-006  0.1006805E+03  0.7818608E-02  0.1364147E+00
          2   -1    0    0  502    0  0.00000000000E+00  0.00000000000E+00  0.50877253518E+03  0.50877253518E+03  0.00000000000E+00 0. -1.
          1   -1    0    0  501    0 -0.00000000000E+00 -0.00000000000E+00 -0.20531641011E+03  0.20531641011E+03  0.00000000000E+00 0. -1.
         25    2    1    2    0    0 -0.86962100602E+02 -0.88914089858E+02  0.21146529151E+03  0.27532820416E+03  0.12497971105E+03 0.  0.
          2    1    1    2  501    0  0.39981233695E+02  0.91348634689E+02 -0.15665793888E+03  0.18570078600E+03  0.00000000000E+00 0. -1.
          1    1    1    2  502    0  0.46980866907E+02 -0.24345448316E+01  0.24864877244E+03  0.25305995514E+03  0.00000000000E+00 0. -1.
         22    1    3    3    0    0 -0.39527495852E+02 -0.83268401976E+02  0.45823976184E+02  0.10293632250E+03  0.00000000000E+00 0.  1.
         22    1    3    3    0    0 -0.47434604750E+02 -0.56456878819E+01  0.16564131532E+03  0.17239188166E+03  0.00000000000E+00 0.  1.
</event>
<event>
 7    1  0.6146596E-006  0.7324921E+02  0.7818608E-02  0.1389310E+00
          2   -1    0    0  502    0  0.00000000000E+00  0.00000000000E+00  0.22939557294E+03  0.22939557294E+03  0.00000000000E+00 0. -1.
          1   -1    0    0  501    0 -0.00000000000E+00 -0.00000000000E+00 -0.49625589090E+03  0.49625589090E+03  0.00000000000E+00 0. -1.
         25    2    1    2    0    0  0.22143985231E+02 -0.12085293278E+03 -0.51981973683E+02  0.18281772065E+03  0.12499762378E+03 0.  0.
          2    1    1    2  501    0 -0.74257864457E+01  0.70342199561E+02 -0.37120882288E+03  0.37788775784E+03  0.00000000000E+00 0. -1.
          1    1    1    2  502    0 -0.14718198785E+02  0.50510733222E+02  0.15633047860E+03  0.16494598535E+03  0.00000000000E+00 0. -1.
         22    1    3    3    0    0  0.25471876843E+02 -0.43437924202E+02  0.38722198360E+02  0.63522267078E+02  0.00000000000E+00 0.  1.
         22    1    3    3    0    0 -0.33278916119E+01 -0.77415008582E+02 -0.90704172043E+02  0.11929545357E+03  0.00000000000E+00 0.  1.
</event>
<event>
 7    1  0.6146596E-006  0.4385027E+02  0.7818608E-02  0.1496447E+00
          2   -1    0    0  502    0  0.00000000000E+00  0.00000000000E+00  0.12998912294E+04  0.12998912294E+04  0.00000000000E+00 0. -1.
          1   -1    0    0  501    0 -0.00000000000E+00 -0.00000000000E+00 -0.18771713951E+03  0.18771713951E+03  0.00000000000E+00 0. -1.
         25    2    1    2    0    0  0.17122021582E+02  0.17135973856E+02  0.16195163239E+03  0.20600743227E+03  0.12499570269E+03 0.  0.
          2    1    1    2  501    0  0.13378548638E+02 -0.42313107412E+02 -0.16236005879E+03  0.16831569539E+03  0.00000000000E+00 0. -1.
          1    1    1    2  502    0 -0.30500570220E+02  0.25177133556E+02  0.11125825163E+04  0.11132852412E+04  0.00000000000E+00 0. -1.
         22    1    3    3    0    0  0.63526011196E+02  0.39511922532E+02  0.10829703417E+03  0.13162444200E+03  0.00000000000E+00 0.  1.
         22    1    3    3    0    0 -0.46403989614E+02 -0.22375948677E+02  0.53654598220E+02  0.74382990270E+02  0.00000000000E+00 0.  1.
</event>
<event>
 7    1  0.6146596E-006  0.4670832E+02  0.7818608E-02  0.1547355E+00
          2   -1    0    0  502    0  0.00000000000E+00  0.00000000000E+00  0.37305434835E+03  0.37305434835E+03  0.00000000000E+00 0. -1.
          1   -1    0    0  501    0 -0.00000000000E+00 -0.00000000000E+00 -0.23484291038E+03  0.23484291038E+03  0.00000000000E+00 0. -1.
         25    2    1    2    0    0  0.48715033268E+02 -0.51709132192E+02  0.27362138589E+03  0.30909573553E+03  0.12499808834E+03 0.  0.
          2    1    1    2  501    0 -0.37201092634E+02  0.27910303064E+02 -0.21238267848E+03  0.21741506027E+03  0.00000000000E+00 0. -1.
          1    1    1    2  502    0 -0.11513940633E+02  0.23798829129E+02  0.76972730566E+02  0.81386462926E+02  0.00000000000E+00 0. -1.
         22    1    3    3    0    0  0.87058998784E+01 -0.79505567314E+02  0.23068966196E+03  0.24416111088E+03  0.00000000000E+00 0. -1.
         22    1    3    3    0    0  0.40009133389E+02  0.27796435122E+02  0.42931723927E+02  0.64934624658E+02  0.00000000000E+00 0. -1.
</event>
<event>
 7    1  0.6146596E-006  0.2338573E+03  0.7818608E-02  0.1135073E+00
          2   -1    0    0  502    0  0.00000000000E+00  0.00000000000E+00  0.33737019901E+04  0.33737019901E+04  0.00000000000E+00 0. -1.
          1   -1    0    0  501    0 -0.00000000000E+00 -0.00000000000E+00 -0.76857282762E+03  0.76857282762E+03  0.00000000000E+00 0. -1.
         25    2    1    2    0    0 -0.35445252769E+03  0.18793010503E+03  0.44457135780E+03  0.61173786911E+03  0.12500083826E+03 0.  0.
          2    1    1    2  501    0  0.13060415243E+03 -0.15669440030E+03 -0.66519000942E+03  0.69576456388E+03  0.00000000000E+00 0. -1.
          1    1    1    2  502    0  0.22384837526E+03 -0.31235704736E+02  0.28257478141E+04  0.28347723847E+04  0.00000000000E+00 0. -1.
         22    1    3    3    0    0 -0.44424285196E+01  0.11615112363E+02  0.64891628337E+02  0.66072455945E+02  0.00000000000E+00 0.  1.
         22    1    3    3    0    0 -0.35001009917E+03  0.17631499267E+03  0.37967972947E+03  0.54566541317E+03  0.00000000000E+00 0.  1.
</event>
<event>
 7    1  0.6146596E-006  0.1946244E+03  0.7818608E-02  0.1231692E+00
          2   -1    0    0  502    0  0.00000000000E+00  0.00000000000E+00  0.18612803523E+04  0.18612803523E+04  0.00000000000E+00 0. -1.
          1   -1    0    0  501    0 -0.00000000000E+00 -0.00000000000E+00 -0.90802611391E+03  0.90802611391E+03  0.00000000000E+00 0. -1.
         25    2    1    2    0    0  0.24743945097E+02  0.12466035093E+03  0.16803929814E+02  0.17905175605E+03  0.12499877349E+03 0.  0.
          2    1    1    2  501    0  0.13310154838E+01 -0.20357982826E+03 -0.81337014673E+03  0.83846139665E+03  0.00000000000E+00 0. -1.
          1    1    1    2  502    0 -0.26074960580E+02  0.78919477327E+02  0.17498204554E+04  0.17517933136E+04  0.00000000000E+00 0. -1.
         22    1    3    3    0    0  0.64396987089E+02  0.12246201224E+03  0.96409805638E+01  0.13869702555E+03  0.00000000000E+00 0.  1.
         22    1    3    3    0    0 -0.39653041992E+02  0.21983386868E+01  0.71629492505E+01  0.40354730505E+02  0.00000000000E+00 0.  1.
</event>
<event>
 7    1  0.6146596E-006  0.7778363E+02  0.7818608E-02  0.1405033E+00
          2   -1    0    0  502    0  0.00000000000E+00  0.00000000000E+00  0.24107038178E+04  0.24107038178E+04  0.00000000000E+00 0. -1.
          1   -1    0    0  501    0 -0.00000000000E+00 -0.00000000000E+00 -0.14042624742E+02  0.14042624742E+02  0.00000000000E+00 0. -1.
         25    2    1    2    0    0  0.37127835903E+02  0.55201439319E+02  0.47206597901E+03  0.49284577324E+03  0.12499997023E+03 0.  0.
          2    1    1    2  501    0 -0.21957596460E+02 -0.96207772217E+02  0.74647934926E+03  0.75297376471E+03  0.00000000000E+00 0. -1.
          1    1    1    2  502    0 -0.15170239443E+02  0.41006332898E+02  0.11781158648E+04  0.11789269046E+04  0.00000000000E+00 0. -1.
         22    1    3    3    0    0  0.30764039216E+01  0.40697851417E+01  0.39148569040E+03  0.39151893084E+03  0.00000000000E+00 0. -1.
         22    1    3    3    0    0  0.34051431982E+02  0.51131654178E+02  0.80580288607E+02  0.10132684240E+03  0.00000000000E+00 0. -1.
</event>
<event>
 7    1  0.6146596E-006  0.1138429E+03  0.7818608E-02  0.1316080E+00
          2   -1    0    0  502    0  0.00000000000E+00  0.00000000000E+00  0.52730410482E+03  0.52730410482E+03  0.00000000000E+00 0. -1.
          1   -1    0    0  501    0 -0.00000000000E+00 -0.00000000000E+00 -0.31138245558E+03  0.31138245558E+03  0.00000000000E+00 0. -1.
         25    2    1    2    0    0 -0.11495612970E+02  0.11229777752E+03  0.14151646719E+03  0.21998816910E+03  0.12499977643E+03 0.  0.
          2    1    1    2  501    0 -0.50929858846E+02 -0.10312376774E+03 -0.25688281160E+03  0.28145539769E+03  0.00000000000E+00 0. -1.
          1    1    1    2  502    0  0.62425471816E+02 -0.91740097828E+01  0.33128799366E+03  0.33724299360E+03  0.00000000000E+00 0. -1.
         22    1    3    3    0    0 -0.60788700723E+02  0.42153465756E+02  0.31223887878E+02  0.80293910012E+02  0.00000000000E+00 0. -1.
         22    1    3    3    0    0  0.49293087753E+02  0.70144311765E+02  0.11029257931E+03  0.13969425909E+03  0.00000000000E+00 0. -1.
</event>
<event>
 7    1  0.6146596E-006  0.3513284E+02  0.7818608E-02  0.1615957E+00
          2   -1    0    0  502    0  0.00000000000E+00  0.00000000000E+00  0.10122215413E+04  0.10122215413E+04  0.00000000000E+00 0. -1.
          1   -1    0    0  501    0 -0.00000000000E+00 -0.00000000000E+00 -0.15210106726E+03  0.15210106726E+03  0.00000000000E+00 0. -1.
         25    2    1    2    0    0  0.14874449656E+02 -0.16649956250E+01  0.30189575086E+03  0.32709417136E+03  0.12500212431E+03 0.  0.
          2    1    1    2  501    0  0.16180302471E+02 -0.16385881882E+02 -0.13808541715E+03  0.13999243459E+03  0.00000000000E+00 0. -1.
          1    1    1    2  502    0 -0.31054752128E+02  0.18050877507E+02  0.69631014028E+03  0.69723600256E+03  0.00000000000E+00 0. -1.
         22    1    3    3    0    0 -0.27219842485E+02 -0.47625062798E+02  0.82922639735E+02  0.99424497042E+02  0.00000000000E+00 0.  1.
         22    1    3    3    0    0  0.42094292142E+02  0.45960067172E+02  0.21897311113E+03  0.22766967431E+03  0.00000000000E+00 0.  1.
</event>
<event>
 7    1  0.6146596E-006  0.2213661E+03  0.7818608E-02  0.1287725E+00
          2   -1    0    0  502    0  0.00000000000E+00  0.00000000000E+00  0.35328880595E+03  0.35328880595E+03  0.00000000000E+00 0. -1.
          1   -1    0    0  501    0 -0.00000000000E+00 -0.00000000000E+00 -0.10336751838E+04  0.10336751838E+04  0.00000000000E+00 0. -1.
         25    2    1    2    0    0 -0.19566248446E+03 -0.27624925429E+02 -0.39655042987E+03  0.46035201368E+03  0.12499915497E+03 0.  0.
          2    1    1    2  501    0  0.23541122441E+03  0.41527422334E+02 -0.58007269794E+03  0.62739724759E+03  0.00000000000E+00 0. -1.
          1    1    1    2  502    0 -0.39748739945E+02 -0.13902496905E+02  0.29623674993E+03  0.29921472851E+03  0.00000000000E+00 0. -1.
         22    1    3    3    0    0 -0.35367119521E+02 -0.54603913550E+02 -0.16570751021E+03  0.17802078378E+03  0.00000000000E+00 0. -1.
         22    1    3    3    0    0 -0.16029536494E+03  0.26978988121E+02 -0.23084291965E+03  0.28233122990E+03  0.00000000000E+00 0. -1.
</event>
<event>
 7    1  0.6146596E-006  0.1413704E+03  0.7818608E-02  0.1341059E+00
          2   -1    0    0  502    0  0.00000000000E+00  0.00000000000E+00  0.24201559853E+04  0.24201559853E+04  0.00000000000E+00 0. -1.
          1   -1    0    0  501    0 -0.00000000000E+00 -0.00000000000E+00 -0.46913630301E+03  0.46913630301E+03  0.00000000000E+00 0. -1.
         25    2    1    2    0    0 -0.83904553385E+02  0.14465114314E+03  0.11149768546E+04  0.11343554970E+04  0.12500031917E+03 0.  0.
          2    1    1    2  501    0  0.34711464357E+02 -0.21377877061E+02 -0.45513401423E+03  0.45695609230E+03  0.00000000000E+00 0. -1.
          1    1    1    2  502    0  0.49193089027E+02 -0.12327326608E+03  0.12911768418E+04  0.12979806990E+04  0.00000000000E+00 0. -1.
         22    1    3    3    0    0 -0.19784197027E+02  0.88428655562E+02  0.26404020807E+03  0.27915635951E+03  0.00000000000E+00 0. -1.
         22    1    3    3    0    0 -0.64120356358E+02  0.56222487582E+02  0.85093664658E+03  0.85519913745E+03  0.00000000000E+00 0. -1.
</event>
<event>
 7    1  0.6146596E-006  0.4689233E+02  0.7818608E-02  0.1464358E+00
          2   -1    0    0  502    0  0.00000000000E+00  0.00000000000E+00  0.13443486759E+04  0.13443486759E+04  0.00000000000E+00 0. -1.
          1   -1    0    0  501    0 -0.00000000000E+00 -0.00000000000E+00 -0.23114904596E+02  0.23114904596E+02  0.00000000000E+00 0. -1.
         25    2    1    2    0    0  0.34450997271E+01 -0.34791429041E+02  0.65174860561E+03  0.66454767476E+03  0.12500021944E+03 0.  0.
          2    1    1    2  501    0  0.43980534785E+02  0.16266630958E+02  0.19249010281E+02  0.50689398492E+02  0.00000000000E+00 0. -1.
          1    1    1    2  502    0 -0.47425634512E+02  0.18524798083E+02  0.65023615541E+03  0.65222650724E+03  0.00000000000E+00 0. -1.
         22    1    3    3    0    0  0.60777754521E+02 -0.26168478721E+01  0.24035836840E+03  0.24793734813E+03  0.00000000000E+00 0.  1.
         22    1    3    3    0    0 -0.57332654793E+02 -0.32174581169E+02  0.41139023721E+03  0.41661032663E+03  0.00000000000E+00 0.  1.
</event>
<event>
 7    1  0.6146596E-006  0.1051614E+03  0.7818608E-02  0.1385849E+00
          2   -1    0    0  502    0  0.00000000000E+00  0.00000000000E+00  0.57330163836E+03  0.57330163836E+03  0.00000000000E+00 0. -1.
          1   -1    0    0  501    0 -0.00000000000E+00 -0.00000000000E+00 -0.43649695620E+03  0.43649695620E+03  0.00000000000E+00 0. -1.
         25    2    1    2    0    0 -0.83355052663E+02  0.11039476213E+03  0.14914027805E+03  0.23874749183E+03  0.12498989562E+03 0.  0.
          2    1    1    2  501    0  0.72908914485E+02 -0.74188207854E+02 -0.38381763552E+03  0.39766264262E+03  0.00000000000E+00 0. -1.
          1    1    1    2  502    0  0.10446138178E+02 -0.36206554275E+02  0.37148203964E+03  0.37338846012E+03  0.00000000000E+00 0. -1.
         22    1    3    3    0    0 -0.27751635879E+02  0.12507432862E+03  0.92407449063E+02  0.15796479866E+03  0.00000000000E+00 0.  1.
         22    1    3    3    0    0 -0.55603416784E+02 -0.14679566490E+02  0.56732828987E+02  0.80782693167E+02  0.00000000000E+00 0.  1.
</event>
<event>
 7    1  0.6146596E-006  0.3136736E+03  0.7818608E-02  0.1308535E+00
          2   -1    0    0  502    0  0.00000000000E+00  0.00000000000E+00  0.21029374772E+04  0.21029374772E+04  0.00000000000E+00 0. -1.
          1   -1    0    0  501    0 -0.00000000000E+00 -0.00000000000E+00 -0.29418573274E+03  0.29418573274E+03  0.00000000000E+00 0. -1.
         25    2    1    2    0    0  0.18935365991E+03  0.23584031583E+03  0.42272614892E+03  0.53460039226E+03  0.12499887732E+03 0.  0.
          2    1    1    2  501    0 -0.71438403099E+01  0.23452643477E+02 -0.22210952631E+03  0.22345850313E+03  0.00000000000E+00 0. -1.
          1    1    1    2  502    0 -0.18220981960E+03 -0.25929295931E+03  0.16081351218E+04  0.16390643145E+04  0.00000000000E+00 0. -1.
         22    1    3    3    0    0  0.15556658230E+03  0.21588512970E+03  0.27873282934E+03  0.38535612219E+03  0.00000000000E+00 0.  1.
         22    1    3    3    0    0  0.33787077605E+02  0.19955186139E+02  0.14399331958E+03  0.14924427008E+03  0.00000000000E+00 0.  1.
</event>
<event>
 7    1  0.6146596E-006  0.7996717E+02  0.7818608E-02  0.1363033E+00
          2   -1    0    0  502    0  0.00000000000E+00  0.00000000000E+00  0.22385599697E+03  0.22385599697E+03  0.00000000000E+00 0. -1.
          1   -1    0    0  501    0 -0.00000000000E+00 -0.00000000000E+00 -0.77160451724E+03  0.77160451724E+03  0.00000000000E+00 0. -1.
         25    2    1    2    0    0  0.23935831520E+02 -0.22822745619E+02 -0.77239940727E+02  0.15060746008E+03  0.12499118705E+03 0.  0.
          2    1    1    2  501    0 -0.16657374502E+02  0.82161248832E+02 -0.65014614686E+03  0.65552875697E+03  0.00000000000E+00 0. -1.
          1    1    1    2  502    0 -0.72784570181E+01 -0.59338503213E+02  0.17963756732E+03  0.18932429715E+03  0.00000000000E+00 0. -1.
         22    1    3    3    0    0  0.16877752982E+02 -0.74143435011E+02 -0.34736145133E+02  0.83598488501E+02  0.00000000000E+00 0.  1.
         22    1    3    3    0    0  0.70580785387E+01  0.51320689392E+02 -0.42503795594E+02  0.67008971580E+02  0.00000000000E+00 0.  1.
</event>
<event>
 7    1  0.6146596E-006  0.8292875E+02  0.7818608E-02  0.1361209E+00
          2   -1    0    0  502    0  0.00000000000E+00  0.00000000000E+00  0.47005842758E+03  0.47005842758E+03  0.00000000000E+00 0. -1.
          1   -1    0    0  501    0 -0.00000000000E+00 -0.00000000000E+00 -0.28544692250E+03  0.28544692250E+03  0.00000000000E+00 0. -1.
         25    2    1    2    0    0  0.30528913937E+02  0.55263644401E+01  0.34279442974E+02  0.13327555517E+03  0.12499895242E+03 0.  0.
          2    1    1    2  501    0 -0.87987408506E+02  0.56537289541E+01 -0.22536589429E+03  0.24199903928E+03  0.00000000000E+00 0. -1.
          1    1    1    2  502    0  0.57458494568E+02 -0.11180093394E+02  0.37569795639E+03  0.38023075563E+03  0.00000000000E+00 0. -1.
         22    1    3    3    0    0  0.76440969212E+02  0.18272152240E+02  0.83714410883E+01  0.79039068488E+02  0.00000000000E+00 0.  1.
         22    1    3    3    0    0 -0.45912055275E+02 -0.12745787800E+02  0.25908001886E+02  0.54236486684E+02  0.00000000000E+00 0.  1.
</event>
<event>
 7    1  0.6146596E-006  0.1613358E+03  0.7818608E-02  0.1220843E+00
          2   -1    0    0  502    0  0.00000000000E+00  0.00000000000E+00  0.92447614700E+03  0.92447614700E+03  0.00000000000E+00 0. -1.
          1   -1    0    0  501    0 -0.00000000000E+00 -0.00000000000E+00 -0.17019983700E+03  0.17019983700E+03  0.00000000000E+00 0. -1.
         25    2    1    2    0    0 -0.25547172013E+03  0.75670315574E+01  0.22865792988E+03  0.36500977135E+03  0.12499849811E+03 0.  0.
          2    1    1    2  501    0  0.14415687155E+03  0.67097722423E+01 -0.42601510491E+02  0.15046964263E+03  0.00000000000E+00 0. -1.
          1    1    1    2  502    0  0.11131484858E+03 -0.14276803800E+02  0.56821989061E+03  0.57919657002E+03  0.00000000000E+00 0. -1.
         22    1    3    3    0    0 -0.25554127946E+03  0.19165366333E+02  0.23829266747E+03  0.34993149636E+03  0.00000000000E+00 0.  1.
         22    1    3    3    0    0  0.69559335146E-01 -0.11598334776E+02 -0.96347375898E+01  0.15078274984E+02  0.00000000000E+00 0.  1.
</event>
<event>
 7    1  0.6146596E-006  0.2558129E+03  0.7818608E-02  0.1319972E+00
          2   -1    0    0  502    0  0.00000000000E+00  0.00000000000E+00  0.11272686108E+04  0.11272686108E+04  0.00000000000E+00 0. -1.
          1   -1    0    0  501    0 -0.00000000000E+00 -0.00000000000E+00 -0.10025454131E+04  0.10025454131E+04  0.00000000000E+00 0. -1.
         25    2    1    2    0    0  0.16551942476E+03 -0.22355982208E+03 -0.12878170429E+03  0.33103622666E+03  0.12499832792E+03 0.  0.
          2    1    1    2  501    0 -0.44830020337E+01  0.26743755329E+02 -0.75663438150E+03  0.75712014438E+03  0.00000000000E+00 0. -1.
          1    1    1    2  502    0 -0.16103642273E+03  0.19681606675E+03  0.10101392836E+04  0.10416576529E+04  0.00000000000E+00 0. -1.
         22    1    3    3    0    0  0.65966693913E+02 -0.88070133337E+01 -0.43155546180E+02  0.79319413486E+02  0.00000000000E+00 0.  1.
         22    1    3    3    0    0  0.99552730847E+02 -0.21475280874E+03 -0.85626158108E+02  0.25171681317E+03  0.00000000000E+00 0.  1.
</event>
<event>
 7    1  0.6146596E-006  0.4091530E+02  0.7818608E-02  0.1516499E+00
          2   -1    0    0  502    0  0.00000000000E+00  0.00000000000E+00  0.36714530779E+02  0.36714530779E+02  0.00000000000E+00 0. -1.
          1   -1    0    0  501    0 -0.00000000000E+00 -0.00000000000E+00 -0.63378542695E+03  0.63378542695E+03  0.00000000000E+00 0. -1.
         25    2    1    2    0    0 -0.37869228721E+02  0.48979471474E+02 -0.35052797694E+03  0.37726359623E+03  0.12499956528E+03 0.  0.
          2    1    1    2  501    0  0.37715151997E+02 -0.12004046108E+02 -0.25267455241E+03  0.25575566318E+03  0.00000000000E+00 0. -1.
          1    1    1    2  502    0  0.15407672384E+00 -0.36975425366E+02  0.61316331758E+01  0.37480698313E+02  0.00000000000E+00 0. -1.
         22    1    3    3    0    0 -0.54859191268E+02 -0.71432675980E+01 -0.28061042068E+03  0.28601182726E+03  0.00000000000E+00 0.  1.
         22    1    3    3    0    0  0.16989962547E+02  0.56122739072E+02 -0.69917556259E+02  0.91251768977E+02  0.00000000000E+00 0.  1.
</event>
<event>
 7    1  0.6146596E-006  0.1163531E+03  0.7818608E-02  0.1354819E+00
          2   -1    0    0  502    0  0.00000000000E+00  0.00000000000E+00  0.15655009231E+04  0.15655009231E+04  0.00000000000E+00 0. -1.
          1   -1    0    0  501    0 -0.00000000000E+00 -0.00000000000E+00 -0.10579169220E+03  0.10579169220E+03  0.00000000000E+00 0. -1.
         25    2    1    2    0    0  0.62988839569E+02 -0.41855794127E+02  0.47490876358E+03  0.49687238423E+03  0.12499732424E+03 0.  0.
          2    1    1    2  501    0 -0.97169608668E+02  0.69609176228E+02 -0.56485152344E+02  0.13220417051E+03  0.00000000000E+00 0. -1.
          1    1    1    2  502    0  0.34180769099E+02 -0.27753382102E+02  0.10412856197E+04  0.10422160606E+04  0.00000000000E+00 0. -1.
         22    1    3    3    0    0 -0.29195818257E+02  0.14331832630E+02  0.17796424446E+03  0.18091177279E+03  0.00000000000E+00 0. -1.
         22    1    3    3    0    0  0.92184657826E+02 -0.56187626757E+02  0.29694451913E+03  0.31596061144E+03  0.00000000000E+00 0. -1.
</event>
<event>
 7    1  0.6146596E-006  0.8831921E+02  0.7818608E-02  0.1370134E+00
          2   -1    0    0  502    0  0.00000000000E+00  0.00000000000E+00  0.95119902734E+03  0.95119902734E+03  0.00000000000E+00 0. -1.
          1   -1    0    0  501    0 -0.00000000000E+00 -0.00000000000E+00 -0.40008626639E+03  0.40008626639E+03  0.00000000000E+00 0. -1.
         25    2    1    2    0    0  0.57866772230E+02 -0.45533676778E+02 -0.79685953065E+02  0.16551785319E+03  0.12499771822E+03 0.  0.
          2    1    1    2  501    0 -0.92557557842E+02  0.81163773455E+01 -0.26896352936E+03  0.28455958466E+03  0.00000000000E+00 0. -1.
          1    1    1    2  502    0  0.34690785613E+02  0.37417299432E+02  0.89976224338E+03  0.90120785589E+03  0.00000000000E+00 0. -1.
         22    1    3    3    0    0  0.12299055431E+01 -0.68822198352E+02 -0.78313984281E+02  0.10426450876E+03  0.00000000000E+00 0.  1.
         22    1    3    3    0    0  0.56636866686E+02  0.23288521574E+02 -0.13719687845E+01  0.61253344427E+02  0.00000000000E+00 0.  1.
</event>
<event>
 7    1  0.6146596E-006  0.8811729E+02  0.7818608E-02  0.1450233E+00
          2   -1    0    0  502    0  0.00000000000E+00  0.00000000000E+00  0.14046857513E+04  0.14046857513E+04  0.00000000000E+00 0. -1.
          1   -1    0    0  501    0 -0.00000000000E+00 -0.00000000000E+00 -0.30029762522E+03  0.30029762522E+03  0.00000000000E+00 0. -1.
         25    2    1    2    0    0 -0.72026687753E+02  0.28677714111E+02 -0.19974065636E+03  0.24805566082E+03  0.12500010410E+03 0.  0.
          2    1    1    2  501    0  0.99356348920E+02 -0.30046653026E+02 -0.40938902405E+02  0.11158171516E+03  0.00000000000E+00 0. -1.
          1    1    1    2  502    0 -0.27329661167E+02  0.13689389148E+01  0.13450676848E+04  0.13453460005E+04  0.00000000000E+00 0. -1.
         22    1    3    3    0    0 -0.29448102774E+02 -0.46400276698E+02 -0.45668568438E+02  0.71454842928E+02  0.00000000000E+00 0. -1.
         22    1    3    3    0    0 -0.42578584979E+02  0.75077990808E+02 -0.15407208792E+03  0.17660081789E+03  0.00000000000E+00 0. -1.
</event>
<event>
 7    1  0.6146596E-006  0.1559001E+03  0.7818608E-02  0.1363847E+00
          2   -1    0    0  502    0  0.00000000000E+00  0.00000000000E+00  0.21311824523E+03  0.21311824523E+03  0.00000000000E+00 0. -1.
          1   -1    0    0  501    0 -0.00000000000E+00 -0.00000000000E+00 -0.21680437790E+03  0.21680437790E+03  0.00000000000E+00 0. -1.
         25    2    1    2    0    0 -0.11858677691E+03 -0.10589877946E+03  0.26703200320E+02  0.20399788731E+03  0.12499880787E+03 0.  0.
          2    1    1    2  501    0  0.13364289210E+03  0.79423252467E+02 -0.74443825849E+02  0.17236693084E+03  0.00000000000E+00 0. -1.
          1    1    1    2  502    0 -0.15056115186E+02  0.26475526990E+02  0.44054492855E+02  0.53557804984E+02  0.00000000000E+00 0. -1.
         22    1    3    3    0    0 -0.28105063008E+02  0.26761909989E+02 -0.82085166752E+01  0.39667040966E+02  0.00000000000E+00 0. -1.
         22    1    3    3    0    0 -0.90481713906E+02 -0.13266068945E+03  0.34911716995E+02  0.16433084634E+03  0.00000000000E+00 0. -1.
</event>
<event>
 7    1  0.6146596E-006  0.8910630E+02  0.7818608E-02  0.1328020E+00
          2   -1    0    0  502    0  0.00000000000E+00  0.00000000000E+00  0.10033899569E+04  0.10033899569E+04  0.00000000000E+00 0. -1.
          1   -1    0    0  501    0 -0.00000000000E+00 -0.00000000000E+00 -0.11466552790E+03  0.11466552790E+03  0.00000000000E+00 0. -1.
         25    2    1    2    0    0 -0.27044632360E+02 -0.42276762283E+02  0.31605505089E+02  0.13835659019E+03  0.12499960532E+03 0.  0.
          2    1    1    2  501    0  0.94147497231E+02  0.69673439569E+02 -0.23806666762E+01  0.11714865339E+03  0.00000000000E+00 0. -1.
          1    1    1    2  502    0 -0.67102864871E+02 -0.27396677287E+02  0.85949959062E+03  0.86255024124E+03  0.00000000000E+00 0. -1.
         22    1    3    3    0    0 -0.16224516182E+02 -0.52513903812E+02 -0.38229287029E+02  0.66950902948E+02  0.00000000000E+00 0. -1.
         22    1    3    3    0    0 -0.10820116178E+02  0.10237141529E+02  0.69834792118E+02  0.71405687245E+02  0.00000000000E+00 0. -1.
</event>
<event>
 7    1  0.6146596E-006  0.6242728E+02  0.7818608E-02  0.1510651E+00
          2   -1    0    0  502    0  0.00000000000E+00  0.00000000000E+00  0.11350718950E+04  0.11350718950E+04  0.00000000000E+00 0. -1.
          1   -1    0    0  501    0 -0.00000000000E+00 -0.00000000000E+00 -0.43894947868E+03  0.43894947868E+03  0.00000000000E+00 0. -1.
         25    2    1    2    0    0  0.24918330059E+02 -0.74037496157E+02  0.50198898306E+03  0.52318319321E+03  0.12500096212E+03 0.  0.
          2    1    1    2  501    0 -0.35608961186E+02  0.51207396207E+02 -0.42582441099E+03  0.43036801059E+03  0.00000000000E+00 0. -1.
          1    1    1    2  502    0  0.10690631127E+02  0.22830099950E+02  0.61995784420E+03  0.62047016983E+03  0.00000000000E+00 0. -1.
         22    1    3    3    0    0 -0.31317656272E+02  0.20446968104E+02  0.13331079395E+03  0.13845808709E+03  0.00000000000E+00 0.  1.
         22    1    3    3    0    0  0.56235986332E+02 -0.94484464260E+02  0.36867818912E+03  0.38472510612E+03  0.00000000000E+00 0.  1.
</event>
<event>
 7    1  0.6146596E-006  0.5936778E+02  0.7818608E-02  0.1414806E+00
          2   -1    0    0  502    0  0.00000000000E+00  0.00000000000E+00  0.52193931107E+03  0.52193931107E+03  0.00000000000E+00 0. -1.
          1   -1    0    0  501    0 -0.00000000000E+00 -0.00000000000E+00 -0.49159508721E+03  0.49159508721E+03  0.00000000000E+00 0. -1.
         25    2    1    2    0    0  0.93109020592E+02  0.18238710131E+02 -0.15528739500E+03  0.22077338289E+03  0.12499908514E+03 0.  0.
          2    1    1    2  501    0 -0.37279858154E+02 -0.37782655343E+02 -0.29943405183E+03  0.30410206883E+03  0.00000000000E+00 0. -1.
          1    1    1    2  502    0 -0.55829162439E+02  0.19543945212E+02  0.48506567069E+03  0.48865894656E+03  0.00000000000E+00 0. -1.
         22    1    3    3    0    0 -0.21916906042E+02  0.33727060623E+02 -0.31538716292E+02  0.51113168696E+02  0.00000000000E+00 0. -1.
         22    1    3    3    0    0  0.11502592663E+03 -0.15488350492E+02 -0.12374867871E+03  0.16966021419E+03  0.00000000000E+00 0. -1.
</event>
<event>
 7    1  0.6146596E-006  0.8348983E+02  0.7818608E-02  0.1348397E+00
          2   -1    0    0  502    0  0.00000000000E+00  0.00000000000E+00  0.13006847023E+04  0.13006847023E+04  0.00000000000E+00 0. -1.
          1   -1    0    0  501    0 -0.00000000000E+00 -0.00000000000E+00 -0.43233386586E+03  0.43233386586E+03  0.00000000000E+00 0. -1.
         25    2    1    2    0    0 -0.68874053453E+01  0.24501598495E+02  0.13063975170E+03  0.18259322134E+03  0.12500310026E+03 0.  0.
          2    1    1    2  501    0 -0.48279164406E+02  0.43232465457E+02 -0.40209121240E+03  0.40728032960E+03  0.00000000000E+00 0. -1.
          1    1    1    2  502    0  0.55166569751E+02 -0.67734063952E+02  0.11398022972E+04  0.11431450172E+04  0.00000000000E+00 0. -1.
         22    1    3    3    0    0  0.48117588067E+02  0.39269445162E+02  0.35029201974E+02  0.71305235402E+02  0.00000000000E+00 0. -1.
         22    1    3    3    0    0 -0.55004993413E+02 -0.14767846668E+02  0.95610549730E+02  0.11128798594E+03  0.00000000000E+00 0. -1.
</event>
<event>
 7    1  0.6146596E-006  0.6085630E+02  0.7818608E-02  0.1494268E+00
          2   -1    0    0  502    0  0.00000000000E+00  0.00000000000E+00  0.18667823366E+04  0.18667823366E+04  0.00000000000E+00 0. -1.
          1   -1    0    0  501    0 -0.00000000000E+00 -0.00000000000E+00 -0.30752103751E+02  0.30752103751E+02  0.00000000000E+00 0. -1.
         25    2    1    2    0    0  0.34553143289E+02  0.12164608884E+02  0.62809905260E+03  0.64146237802E+03  0.12499466038E+03 0.  0.
          2    1    1    2  501    0 -0.62359443967E+02 -0.41784502173E+01  0.16973572060E+02  0.64763121038E+02  0.00000000000E+00 0. -1.
          1    1    1    2  502    0  0.27806300679E+02 -0.79861586668E+01  0.11909576082E+04  0.11913089413E+04  0.00000000000E+00 0. -1.
         22    1    3    3    0    0  0.71619507265E+02 -0.11609898948E+02  0.51512392381E+03  0.52020842021E+03  0.00000000000E+00 0.  1.
         22    1    3    3    0    0 -0.37066363976E+02  0.23774507833E+02  0.11297512879E+03  0.12125395782E+03  0.00000000000E+00 0.  1.
</event>
<event>
 7    1  0.6146596E-006  0.8393304E+02  0.7818608E-02  0.1351567E+00
          2   -1    0    0  502    0  0.00000000000E+00  0.00000000000E+00  0.28142677849E+04  0.28142677849E+04  0.00000000000E+00 0. -1.
          1   -1    0    0  501    0 -0.00000000000E+00 -0.00000000000E+00 -0.14586612812E+02  0.14586612812E+02  0.00000000000E+00 0. -1.
         25    2    1    2    0    0 -0.32873528843E+02 -0.18214168096E+02  0.14826857188E+04  0.14884207466E+04  0.12500781324E+03 0.  0.
          2    1    1    2  501    0  0.90309955299E+02 -0.70430276970E+01  0.17811430026E+03  0.19982541436E+03  0.00000000000E+00 0. -1.
          1    1    1    2  502    0 -0.57436426456E+02  0.25257195793E+02  0.11388811530E+04  0.11406082367E+04  0.00000000000E+00 0. -1.
         22    1    3    3    0    0  0.20918349744E+02  0.35672554858E+02  0.25099377529E+03  0.25437764005E+03  0.00000000000E+00 0. -1.
         22    1    3    3    0    0 -0.53791878587E+02 -0.53886722954E+02  0.12316919435E+04  0.12340431065E+04  0.00000000000E+00 0. -1.
</event>
<event>
 7    1  0.6146596E-006  0.3993156E+02  0.7818608E-02  0.1589286E+00
          2   -1    0    0  502    0  0.00000000000E+00  0.00000000000E+00  0.14696413742E+04  0.14696413742E+04  0.00000000000E+00 0. -1.
          1   -1    0    0  501    0 -0.00000000000E+00 -0.00000000000E+00 -0.22600958191E+03  0.22600958191E+03  0.00000000000E+00 0. -1.
         25    2    1    2    0    0  0.13387579729E+02 -0.94219190196E+01  0.47088387882E+03  0.48746439395E+03  0.12498763217E+03 0.  0.
          2    1    1    2  501    0 -0.34754832093E+02  0.19846645474E+02 -0.21573590126E+03  0.21941687898E+03  0.00000000000E+00 0. -1.
          1    1    1    2  502    0  0.21367252364E+02 -0.10424726455E+02  0.98848381472E+03  0.98876968317E+03  0.00000000000E+00 0. -1.
         22    1    3    3    0    0 -0.51061278722E+02  0.19838857975E+02  0.22707879303E+03  0.23359283532E+03  0.00000000000E+00 0. -1.
         22    1    3    3    0    0  0.64448858451E+02 -0.29260776995E+02  0.24380508579E+03  0.25387155863E+03  0.00000000000E+00 0. -1.
</event>
<event>
 7    1  0.6146596E-006  0.2688044E+03  0.7818608E-02  0.1189366E+00
          2   -1    0    0  502    0  0.00000000000E+00  0.00000000000E+00  0.20162675215E+04  0.20162675215E+04  0.00000000000E+00 0. -1.
          1   -1    0    0  501    0 -0.00000000000E+00 -0.00000000000E+00 -0.15394258867E+04  0.15394258867E+04  0.00000000000E+00 0. -1.
         25    2    1    2    0    0  0.11437131289E+03 -0.21429979576E+03 -0.52360754776E+03  0.59058856075E+03  0.12499913737E+03 0.  0.
          2    1    1    2  501    0 -0.78433995957E+02 -0.52771407063E+02 -0.97086526053E+03  0.97545685052E+03  0.00000000000E+00 0. -1.
          1    1    1    2  502    0 -0.35937316934E+02  0.26707120282E+03  0.19713144431E+04  0.19896479969E+04  0.00000000000E+00 0. -1.
         22    1    3    3    0    0  0.44178496335E+02 -0.18356795704E+03 -0.42994164615E+03  0.46957294799E+03  0.00000000000E+00 0.  1.
         22    1    3    3    0    0  0.70192816556E+02 -0.30731838719E+02 -0.93665901603E+02  0.12101561275E+03  0.00000000000E+00 0.  1.
</event>
<event>
 7    1  0.6383003E-006  0.9053266E+02  0.7818608E-02  0.1376678E+00
          2   -1    0    0  502    0  0.00000000000E+00  0.00000000000E+00  0.15151584774E+04  0.15151584774E+04  0.00000000000E+00 0. -1.
          1   -1    0    0  501    0 -0.00000000000E+00 -0.00000000000E+00 -0.39089761073E+03  0.39089761073E+03  0.00000000000E+00 0. -1.
         25    2    1    2    0    0  0.32481954101E+00 -0.44944797744E+02 -0.45482202884E+02  0.14040687656E+03  0.12500127941E+03 0.  0.
          2    1    1    2  501    0  0.13180928862E+02 -0.45285794036E+02 -0.29465793958E+03  0.29840884938E+03  0.00000000000E+00 0. -1.
          1    1    1    2  502    0 -0.13505748403E+02  0.90230591780E+02  0.14644010091E+04  0.14672403622E+04  0.00000000000E+00 0. -1.
         22    1    3    3    0    0 -0.78250250139E+00 -0.14177392384E+01  0.42346651334E+02  0.42377602268E+02  0.00000000000E+00 0.  1.
         22    1    3    3    0    0  0.11073220424E+01 -0.43527058506E+02 -0.87828854218E+02  0.98029274289E+02  0.00000000000E+00 0.  1.
</event>
<event>
 7    1  0.6146596E-006  0.7127441E+02  0.7818608E-02  0.1366190E+00
          2   -1    0    0  502    0  0.00000000000E+00  0.00000000000E+00  0.63002479938E+03  0.63002479938E+03  0.00000000000E+00 0. -1.
          1   -1    0    0  501    0 -0.00000000000E+00 -0.00000000000E+00 -0.22623585608E+03  0.22623585608E+03  0.00000000000E+00 0. -1.
         25    2    1    2    0    0 -0.11330082947E+03  0.46549863992E+02 -0.15482309622E+02  0.17569342346E+03  0.12499803734E+03 0.  0.
          2    1    1    2  501    0  0.43044591182E+02 -0.49144937290E+02 -0.12005424689E+03  0.13667876166E+03  0.00000000000E+00 0. -1.
          1    1    1    2  502    0  0.70256238283E+02  0.25950732984E+01  0.53932549981E+03  0.54388847034E+03  0.00000000000E+00 0. -1.
         22    1    3    3    0    0 -0.97435035222E+02 -0.21125130927E+02 -0.31126463220E+02  0.10444478904E+03  0.00000000000E+00 0. -1.
         22    1    3    3    0    0 -0.15865794243E+02  0.67674994918E+02  0.15644153599E+02  0.71248634415E+02  0.00000000000E+00 0. -1.
</event>
<event>
 7    1  0.6146596E-006  0.7429315E+02  0.7818608E-02  0.1370545E+00
          2   -1    0    0  502    0  0.00000000000E+00  0.00000000000E+00  0.10610377726E+03  0.10610377726E+03  0.00000000000E+00 0. -1.
          1   -1    0    0  501    0 -0.00000000000E+00 -0.00000000000E+00 -0.13476941128E+04  0.13476941128E+04  0.00000000000E+00 0. -1.
         25    2    1    2    0    0  0.22483535995E+02  0.20869519385E+02 -0.13981892872E+03  0.19004038886E+03  0.12499988136E+03 0.  0.
          2    1    1    2  501    0 -0.12931955079E+02  0.59051901801E+02 -0.11617850894E+04  0.11633567623E+04  0.00000000000E+00 0. -1.
          1    1    1    2  502    0 -0.95515809164E+01 -0.79921421186E+02  0.60013682582E+02  0.10040073884E+03  0.00000000000E+00 0. -1.
         22    1    3    3    0    0  0.38670055304E+02 -0.32073594994E+02 -0.12190523968E+03  0.13185209947E+03  0.00000000000E+00 0. -1.
         22    1    3    3    0    0 -0.16186519309E+02  0.52943114380E+02 -0.17913689044E+02  0.58188289395E+02  0.00000000000E+00 0. -1.
</event>
<event>
 7    1  0.6146596E-006  0.1514932E+03  0.7818608E-02  0.1329134E+00
          2   -1    0    0  502    0  0.00000000000E+00  0.00000000000E+00  0.70833681773E+03  0.70833681773E+03  0.00000000000E+00 0. -1.
          1   -1    0    0  501    0 -0.00000000000E+00 -0.00000000000E+00 -0.34561673940E+03  0.34561673940E+03  0.00000000000E+00 0. -1.
         25    2    1    2    0    0 -0.77755543174E+02 -0.15349071718E+03 -0.18251130050E+03  0.28025027913E+03  0.12499807754E+03 0.  0.
          2    1    1    2  501    0  0.44327982652E+02  0.12770792407E+03 -0.73270536631E+02  0.15376233432E+03  0.00000000000E+00 0. -1.
          1    1    1    2  502    0  0.33427560521E+02  0.25782793110E+02  0.61850191546E+03  0.61994094368E+03  0.00000000000E+00 0. -1.
         22    1    3    3    0    0 -0.32889204632E+02 -0.10414642104E+03 -0.29186517575E+02  0.11304879303E+03  0.00000000000E+00 0.  1.
         22    1    3    3    0    0 -0.44866338542E+02 -0.49344296137E+02 -0.15332478293E+03  0.16720148610E+03  0.00000000000E+00 0.  1.
</event>
<event>
 7    1  0.6146596E-006  0.6276371E+02  0.7818608E-02  0.1494172E+00
          2   -1    0    0  502    0  0.00000000000E+00  0.00000000000E+00  0.13739751806E+04  0.13739751806E+04  0.00000000000E+00 0. -1.
          1   -1    0    0  501    0 -0.00000000000E+00 -0.00000000000E+00 -0.16042510937E+04  0.16042510937E+04  0.00000000000E+00 0. -1.
         25    2    1    2    0    0  0.54934910348E+02 -0.16751079226E+02  0.17331784767E+03  0.22127377905E+03  0.12499826377E+03 0.  0.
          2    1    1    2  501    0 -0.61926776535E+02 -0.10433976975E+02 -0.15794816610E+04  0.15807296135E+04  0.00000000000E+00 0. -1.
          1    1    1    2  502    0  0.69918661874E+01  0.27185056201E+02  0.11758879003E+04  0.11762228818E+04  0.00000000000E+00 0. -1.
         22    1    3    3    0    0  0.78748575763E+02  0.27985483721E+01  0.48095073636E+02  0.92316337480E+02  0.00000000000E+00 0. -1.
         22    1    3    3    0    0 -0.23813665416E+02 -0.19549627598E+02  0.12522277404E+03  0.12895744157E+03  0.00000000000E+00 0. -1.
</event>
<event>
 7    1  0.6146596E-006  0.9060375E+02  0.7818608E-02  0.1343091E+00
          2   -1    0    0  502    0  0.00000000000E+00  0.00000000000E+00  0.11514466511E+04  0.11514466511E+04  0.00000000000E+00 0. -1.
          1   -1    0    0  501    0 -0.00000000000E+00 -0.00000000000E+00 -0.70207589676E+03  0.70207589676E+03  0.00000000000E+00 0. -1.
         25    2    1    2    0    0  0.13024474198E+02  0.12887487248E+03  0.43667665710E+03  0.47232392107E+03  0.12500005549E+03 0.  0.
          2    1    1    2  501    0 -0.47666376126E+02 -0.76850959212E+02 -0.67985076218E+03  0.68583905706E+03  0.00000000000E+00 0. -1.
          1    1    1    2  502    0  0.34641901928E+02 -0.52023913269E+02  0.69254485947E+03  0.69535956979E+03  0.00000000000E+00 0. -1.
         22    1    3    3    0    0  0.43805409836E+00  0.10572698813E+03  0.14496505534E+03  0.17942478976E+03  0.00000000000E+00 0. -1.
         22    1    3    3    0    0  0.12586420099E+02  0.23147884354E+02  0.29171160176E+03  0.29289913131E+03  0.00000000000E+00 0. -1.
</event>
<event>
 7    1  0.6146596E-006  0.8125243E+02  0.7818608E-02  0.1498064E+00
          2   -1    0    0  502    0  0.00000000000E+00  0.00000000000E+00  0.10866706287E+04  0.10866706287E+04  0.00000000000E+00 0. -1.
          1   -1    0    0  501    0 -0.00000000000E+00 -0.00000000000E+00 -0.55030814651E+03  0.55030814651E+03  0.00000000000E+00 0. -1.
         25    2    1    2    0    0  0.74257048177E+02  0.64630509539E+02 -0.32795473860E+03  0.36451386423E+03  0.12499933871E+03 0.  0.
          2    1    1    2  501    0 -0.63641506141E+01 -0.20125200235E+02 -0.20198102512E+03  0.20308092132E+03  0.00000000000E+00 0. -1.
          1    1    1    2  502    0 -0.67892897563E+02 -0.44505309304E+02  0.10662982459E+04  0.10693839897E+04  0.00000000000E+00 0. -1.
         22    1    3    3    0    0  0.90037905626E+02  0.91149680932E+02 -0.26994914948E+03  0.29881036141E+03  0.00000000000E+00 0.  1.
         22    1    3    3    0    0 -0.15780857449E+02 -0.26519171393E+02 -0.58005589126E+02  0.65703502822E+02  0.00000000000E+00 0.  1.
</event>
<event>
 7    1  0.6146596E-006  0.8863322E+02  0.7818608E-02  0.1361916E+00
          2   -1    0    0  502    0  0.00000000000E+00  0.00000000000E+00  0.31360457388E+04  0.31360457388E+04  0.00000000000E+00 0. -1.
          1   -1    0    0  501    0 -0.00000000000E+00 -0.00000000000E+00 -0.13239097197E+04  0.13239097197E+04  0.00000000000E+00 0. -1.
         25    2    1    2    0    0 -0.10805403322E+03 -0.38211774415E+02 -0.98440169109E+03  0.99890330818E+03  0.12500126348E+03 0.  0.
          2    1    1    2  501    0  0.47539843315E+02 -0.26537065319E+02 -0.32939456949E+03  0.33386379700E+03  0.00000000000E+00 0. -1.
          1    1    1    2  502    0  0.60514189905E+02  0.64748839734E+02  0.31259322797E+04  0.31271883532E+04  0.00000000000E+00 0. -1.
         22    1    3    3    0    0 -0.12640424887E+03 -0.56678496995E+02 -0.89934768525E+03  0.90995425441E+03  0.00000000000E+00 0. -1.
         22    1    3    3    0    0  0.18350215647E+02  0.18466722580E+02 -0.85054005838E+02  0.88949053768E+02  0.00000000000E+00 0. -1.
</event>
<event>
 7    1  0.6146596E-006  0.8227481E+02  0.7818608E-02  0.1395214E+00
          2   -1    0    0  502    0  0.00000000000E+00  0.00000000000E+00  0.15570003127E+04  0.15570003127E+04  0.00000000000E+00 0. -1.
          1   -1    0    0  501    0 -0.00000000000E+00 -0.00000000000E+00 -0.10863904065E+03  0.10863904065E+03  0.00000000000E+00 0. -1.
         25    2    1    2    0    0  0.84916285730E+02 -0.93042528515E+02  0.11396658250E+04  0.11533991082E+04  0.12499448995E+03 0.  0.
          2    1    1    2  501    0 -0.58297093375E+02  0.57161737191E+02 -0.83924313681E+02  0.11708674443E+03  0.00000000000E+00 0. -1.
          1    1    1    2  502    0 -0.26619192355E+02  0.35880791324E+02  0.39261976071E+03  0.39515350067E+03  0.00000000000E+00 0. -1.
         22    1    3    3    0    0 -0.19292171281E+02  0.14257199160E+02  0.26030621446E+03  0.26140922112E+03  0.00000000000E+00 0. -1.
         22    1    3    3    0    0  0.10420845701E+03 -0.10729972768E+03  0.87935961054E+03  0.89198988711E+03  0.00000000000E+00 0. -1.
</event>
<event>
 7    1  0.6146596E-006  0.1159803E+03  0.7818608E-02  0.1332600E+00
          2   -1    0    0  502    0  0.00000000000E+00  0.00000000000E+00  0.62702985488E+03  0.62702985488E+03  0.00000000000E+00 0. -1.
          1   -1    0    0  501    0 -0.00000000000E+00 -0.00000000000E+00 -0.12088390292E+04  0.12088390292E+04  0.00000000000E+00 0. -1.
         25    2    1    2    0    0 -0.19692733816E+01 -0.69310682626E+02 -0.30937445061E+03  0.34079924824E+03  0.12499491247E+03 0.  0.
          2    1    1    2  501    0  0.30413495619E+02 -0.44000029895E+02 -0.87734870574E+03  0.87897766457E+03  0.00000000000E+00 0. -1.
          1    1    1    2  502    0 -0.28444222237E+02  0.11331071252E+03  0.60491398206E+03  0.61609197125E+03  0.00000000000E+00 0. -1.
         22    1    3    3    0    0  0.56309030965E+02 -0.64744287880E+01 -0.13812478205E+03  0.14930197793E+03  0.00000000000E+00 0. -1.
         22    1    3    3    0    0 -0.58278304347E+02 -0.62836253838E+02 -0.17124966856E+03  0.19149727031E+03  0.00000000000E+00 0. -1.
</event>
<event>
 7    1  0.6146596E-006  0.1051607E+03  0.7818608E-02  0.1405684E+00
          2   -1    0    0  502    0  0.00000000000E+00  0.00000000000E+00  0.15747499156E+04  0.15747499156E+04  0.00000000000E+00 0. -1.
          1   -1    0    0  501    0 -0.00000000000E+00 -0.00000000000E+00 -0.32728135915E+02  0.32728135915E+02  0.00000000000E+00 0. -1.
         25    2    1    2    0    0 -0.13209514737E+03 -0.21773292419E+02  0.91780404276E+03  0.93590170976E+03  0.12499818082E+03 0.  0.
          2    1    1    2  501    0  0.10042444090E+03  0.16099360337E+02  0.88286719882E+02  0.13468037214E+03  0.00000000000E+00 0. -1.
          1    1    1    2  502    0  0.31670706475E+02  0.56739320825E+01  0.53593101705E+03  0.53689596962E+03  0.00000000000E+00 0. -1.
         22    1    3    3    0    0  0.65593788612E+01 -0.77646355574E+01  0.30773972261E+01  0.10620046613E+02  0.00000000000E+00 0.  1.
         22    1    3    3    0    0 -0.13865452623E+03 -0.14008656862E+02  0.91472664553E+03  0.92528166315E+03  0.00000000000E+00 0.  1.
</event>
<event>
 7    1  0.6146596E-006  0.1034156E+03  0.7818608E-02  0.1339266E+00
          2   -1    0    0  502    0  0.00000000000E+00  0.00000000000E+00  0.24887328785E+04  0.24887328785E+04  0.00000000000E+00 0. -1.
          1   -1    0    0  501    0 -0.00000000000E+00 -0.00000000000E+00 -0.15008792182E+03  0.15008792182E+03  0.00000000000E+00 0. -1.
         25    2    1    2    0    0  0.68547641603E+02  0.29885837051E+02  0.51412138071E+03  0.53434406984E+03  0.12494338098E+03 0.  0.
          2    1    1    2  501    0  0.39958075809E+02 -0.40086655930E+02 -0.13267629536E+03  0.14424488607E+03  0.00000000000E+00 0. -1.
          1    1    1    2  502    0 -0.10850571741E+03  0.10200818879E+02  0.19571998713E+04  0.19602318444E+04  0.00000000000E+00 0. -1.
         22    1    3    3    0    0  0.79903598880E+02  0.62361505618E+02  0.45304121013E+03  0.46424118793E+03  0.00000000000E+00 0.  1.
         22    1    3    3    0    0 -0.11355957277E+02 -0.32475668567E+02  0.61080170577E+02  0.70102881911E+02  0.00000000000E+00 0.  1.
</event>
<event>
 7    1  0.6146596E-006  0.1631011E+03  0.7818608E-02  0.1275969E+00
          2   -1    0    0  502    0  0.00000000000E+00  0.00000000000E+00  0.10099577142E+04  0.10099577142E+04  0.00000000000E+00 0. -1.
          1   -1    0    0  501    0 -0.00000000000E+00 -0.00000000000E+00 -0.52861789910E+03  0.52861789910E+03  0.00000000000E+00 0. -1.
         25    2    1    2    0    0  0.10905129655E+03  0.10107840219E+03  0.51184085682E+02  0.20088163819E+03  0.12499837305E+03 0.  0.
          2    1    1    2  501    0 -0.15580772354E+03 -0.57528229107E+02 -0.43735667515E+03  0.46783159914E+03  0.00000000000E+00 0. -1.
          1    1    1    2  502    0  0.46756426982E+02 -0.43550173081E+02  0.86751240458E+03  0.86986237598E+03  0.00000000000E+00 0. -1.
         22    1    3    3    0    0  0.68522020492E+02  0.55003941563E+02  0.91972105745E+02  0.12719893520E+03  0.00000000000E+00 0.  1.
         22    1    3    3    0    0  0.40529276062E+02  0.46074460625E+02 -0.40788020064E+02  0.73682702995E+02  0.00000000000E+00 0.  1.
</event>
<event>
 7    1  0.6146596E-006  0.3952339E+02  0.7818608E-02  0.1593683E+00
          2   -1    0    0  502    0  0.00000000000E+00  0.00000000000E+00  0.39792174248E+03  0.39792174248E+03  0.00000000000E+00 0. -1.
          1   -1    0    0  501    0 -0.00000000000E+00 -0.00000000000E+00 -0.37943383489E+03  0.37943383489E+03  0.00000000000E+00 0. -1.
         25    2    1    2    0    0  0.71161637478E+01 -0.16789354517E+02  0.45207092543E+02  0.13417024437E+03  0.12500180417E+03 0.  0.
          2    1    1    2  501    0 -0.30831783047E+01 -0.23182175106E+02 -0.33323164088E+03  0.33405126211E+03  0.00000000000E+00 0. -1.
          1    1    1    2  502    0 -0.40329854430E+01  0.39971529623E+02  0.30651245592E+03  0.30913407090E+03  0.00000000000E+00 0. -1.
         22    1    3    3    0    0  0.30443861095E+02  0.57526197063E+00  0.81884550888E+02  0.87362688139E+02  0.00000000000E+00 0. -1.
         22    1    3    3    0    0 -0.23327697347E+02 -0.17364616487E+02 -0.36677458345E+02  0.46807556227E+02  0.00000000000E+00 0. -1.
</event>
<event>
 7    1  0.6146596E-006  0.7971769E+02  0.7818608E-02  0.1343889E+00
          2   -1    0    0  502    0  0.00000000000E+00  0.00000000000E+00  0.42661615696E+03  0.42661615696E+03  0.00000000000E+00 0. -1.
          1   -1    0    0  501    0 -0.00000000000E+00 -0.00000000000E+00 -0.88363075525E+03  0.88363075525E+03  0.00000000000E+00 0. -1.
         25    2    1    2    0    0  0.90440389316E+02  0.74954866586E+02 -0.19788567484E+03  0.26188042088E+03  0.12499967396E+03 0.  0.
          2    1    1    2  501    0 -0.70524024193E+02  0.19455334461E+01 -0.64781528310E+03  0.65164565839E+03  0.00000000000E+00 0. -1.
          1    1    1    2  502    0 -0.19916365123E+02 -0.76900400032E+02  0.38868635963E+03  0.39672083294E+03  0.00000000000E+00 0. -1.
         22    1    3    3    0    0  0.11877253447E+03  0.79360741302E+02 -0.16591938089E+03  0.21893899415E+03  0.00000000000E+00 0. -1.
         22    1    3    3    0    0 -0.28332145152E+02 -0.44058747160E+01 -0.31966293943E+02  0.42941426727E+02  0.00000000000E+00 0. -1.
</event>
<event>
 7    1  0.6146596E-006  0.9937070E+02  0.7818608E-02  0.1317513E+00
          2   -1    0    0  502    0  0.00000000000E+00  0.00000000000E+00  0.36622881760E+03  0.36622881760E+03  0.00000000000E+00 0. -1.
          1   -1    0    0  501    0 -0.00000000000E+00 -0.00000000000E+00 -0.13339739072E+03  0.13339739072E+03  0.00000000000E+00 0. -1.
         25    2    1    2    0    0 -0.67518339952E+02  0.38779439948E+02  0.10554801630E+03  0.18118676660E+03  0.12500275778E+03 0.  0.
          2    1    1    2  501    0 -0.45017007756E+02 -0.55370728434E+02 -0.64021172975E+02  0.95870533240E+02  0.00000000000E+00 0. -1.
          1    1    1    2  502    0  0.11253534771E+03  0.16591288486E+02  0.19130458354E+03  0.22256890848E+03  0.00000000000E+00 0. -1.
         22    1    3    3    0    0 -0.14117593149E+02  0.39363169993E+01  0.11569684035E+03  0.11662143840E+03  0.00000000000E+00 0.  1.
         22    1    3    3    0    0 -0.53400746803E+02  0.34843122948E+02 -0.10148824044E+02  0.64565328199E+02  0.00000000000E+00 0.  1.
</event>
<event>
 7    1  0.6146596E-006  0.6993881E+02  0.7818608E-02  0.1381229E+00
          2   -1    0    0  502    0  0.00000000000E+00  0.00000000000E+00  0.19093588156E+03  0.19093588156E+03  0.00000000000E+00 0. -1.
          1   -1    0    0  501    0 -0.00000000000E+00 -0.00000000000E+00 -0.28384617723E+03  0.28384617723E+03  0.00000000000E+00 0. -1.
         25    2    1    2    0    0 -0.27207650781E+02  0.46131783060E+02 -0.22612523377E+02  0.13787725614E+03  0.12502165363E+03 0.  0.
          2    1    1    2  501    0 -0.46732571380E+02 -0.35727806754E+02 -0.18829332657E+03  0.19726831026E+03  0.00000000000E+00 0. -1.
          1    1    1    2  502    0  0.73940222161E+02 -0.10403976307E+02  0.11799555428E+03  0.13963649239E+03  0.00000000000E+00 0. -1.
         22    1    3    3    0    0  0.69550458675E+01  0.61438980531E+02 -0.59149276898E+02  0.85567271484E+02  0.00000000000E+00 0. -1.
         22    1    3    3    0    0 -0.34162696649E+02 -0.15307197470E+02  0.36536753521E+02  0.52309984655E+02  0.00000000000E+00 0. -1.
</event>
<event>
 7    1  0.6146596E-006  0.1257489E+03  0.7818608E-02  0.1374843E+00
          2   -1    0    0  502    0  0.00000000000E+00  0.00000000000E+00  0.47166185409E+03  0.47166185409E+03  0.00000000000E+00 0. -1.
          1   -1    0    0  501    0 -0.00000000000E+00 -0.00000000000E+00 -0.30645839232E+03  0.30645839232E+03  0.00000000000E+00 0. -1.
         25    2    1    2    0    0  0.29355459171E+02 -0.14920118738E+03  0.37236405358E+03  0.42119201972E+03  0.12499996712E+03 0.  0.
          2    1    1    2  501    0 -0.50304919715E+01  0.12477587395E+03 -0.26309353435E+03  0.29122591297E+03  0.00000000000E+00 0. -1.
          1    1    1    2  502    0 -0.24324967199E+02  0.24425313428E+02  0.55932942552E+02  0.65702313717E+02  0.00000000000E+00 0. -1.
         22    1    3    3    0    0  0.22359830408E+02 -0.15712037031E+03  0.37745580572E+03  0.40946264549E+03  0.00000000000E+00 0. -1.
         22    1    3    3    0    0  0.69956287627E+01  0.79191829246E+01 -0.50917521402E+01  0.11729374230E+02  0.00000000000E+00 0. -1.
</event>
<event>
 7    1  0.6146596E-006  0.5593128E+02  0.7818608E-02  0.1462505E+00
          2   -1    0    0  502    0  0.00000000000E+00  0.00000000000E+00  0.25623053243E+03  0.25623053243E+03  0.00000000000E+00 0. -1.
          1   -1    0    0  501    0 -0.00000000000E+00 -0.00000000000E+00 -0.58268724187E+02  0.58268724187E+02  0.00000000000E+00 0. -1.
         25    2    1    2    0    0  0.12587399176E+02 -0.27515557723E+02  0.97247125973E+02  0.16123544870E+03  0.12499727147E+03 0.  0.
          2    1    1    2  501    0 -0.78381060640E+01  0.66644400130E+02  0.32685789892E+02  0.74640959508E+02  0.00000000000E+00 0. -1.
          1    1    1    2  502    0 -0.47492931119E+01 -0.39128842408E+02  0.68028892376E+02  0.78622848404E+02  0.00000000000E+00 0. -1.
         22    1    3    3    0    0 -0.30387719886E+02 -0.17168480557E+02 -0.16936369229E+02  0.38794469286E+02  0.00000000000E+00 0. -1.
         22    1    3    3    0    0  0.42975119062E+02 -0.10347077165E+02  0.11418349520E+03  0.12244097942E+03  0.00000000000E+00 0. -1.
</event>
<event>
 7    1  0.6146596E-006  0.5050975E+02  0.7818608E-02  0.1448129E+00
          2   -1    0    0  502    0  0.00000000000E+00  0.00000000000E+00  0.14212720397E+03  0.14212720397E+03  0.00000000000E+00 0. -1.
          1   -1    0    0  501    0 -0.00000000000E+00 -0.00000000000E+00 -0.21975821917E+03  0.21975821917E+03  0.00000000000E+00 0. -1.
         25    2    1    2    0    0  0.36515434955E+02 -0.61676571802E+01 -0.11745033502E+03  0.17547240376E+03  0.12499826519E+03 0.  0.
          2    1    1    2  501    0 -0.58257277657E+01  0.48133358509E+02 -0.58024085408E+02  0.75614507820E+02  0.00000000000E+00 0. -1.
          1    1    1    2  502    0 -0.30689707189E+02 -0.41965701329E+02  0.97843405233E+02  0.11079851156E+03  0.00000000000E+00 0. -1.
         22    1    3    3    0    0  0.58357100361E+02 -0.52118062818E+02 -0.59087309739E+02  0.98046691972E+02  0.00000000000E+00 0. -1.
         22    1    3    3    0    0 -0.21841665406E+02  0.45950405638E+02 -0.58363025286E+02  0.77425711792E+02  0.00000000000E+00 0. -1.
</event>
<event>
 7    1  0.6540043E-006  0.6393003E+02  0.7818608E-02  0.1430572E+00
          2   -1    0    0  502    0  0.00000000000E+00  0.00000000000E+00  0.42827487781E+03  0.42827487781E+03  0.00000000000E+00 0. -1.
          1   -1    0    0  501    0 -0.00000000000E+00 -0.00000000000E+00 -0.19973231772E+04  0.19973231772E+04  0.00000000000E+00 0. -1.
         25    2    1    2    0    0  0.20180277007E+02  0.40632927686E+01 -0.38375626807E+03  0.40412285313E+03  0.12499061250E+03 0.  0.
          2    1    1    2  501    0  0.41783899993E+02  0.12738419093E+02 -0.16006191940E+04  0.16012151529E+04  0.00000000000E+00 0. -1.
          1    1    1    2  502    0 -0.61964177000E+02 -0.16801711862E+02  0.41532716266E+03  0.42026004901E+03  0.00000000000E+00 0. -1.
         22    1    3    3    0    0 -0.40198414238E+02  0.28655228548E+02 -0.25574713384E+03  0.26046809997E+03  0.00000000000E+00 0. -1.
         22    1    3    3    0    0  0.60378691245E+02 -0.24591935779E+02 -0.12800913423E+03  0.14365475317E+03  0.00000000000E+00 0. -1.
</event>
<event>
 7    1  0.6146596E-006  0.6401992E+02  0.7818608E-02  0.1404456E+00
          2   -1    0    0  502    0  0.00000000000E+00  0.00000000000E+00  0.20269419458E+03  0.20269419458E+03  0.00000000000E+00 0. -1.
          1   -1    0    0  501    0 -0.00000000000E+00 -0.00000000000E+00 -0.20193894093E+04  0.20193894093E+04  0.00000000000E+00 0. -1.
         25    2    1    2    0    0  0.38955619908E+02 -0.30645011106E+02 -0.14018610702E+04  0.14082949111E+04  0.12499375781E+03 0.  0.
          2    1    1    2  501    0 -0.41578739097E+02 -0.33450287789E+02 -0.60795490854E+03  0.61029245785E+03  0.00000000000E+00 0. -1.
          1    1    1    2  502    0  0.26231191893E+01  0.64095298895E+02  0.19312076406E+03  0.20349623487E+03  0.00000000000E+00 0. -1.
         22    1    3    3    0    0  0.61404938514E+02  0.24063963975E+02 -0.99196768715E+03  0.99415770036E+03  0.00000000000E+00 0.  1.
         22    1    3    3    0    0 -0.22449318606E+02 -0.54708975081E+02 -0.40989338305E+03  0.41413721075E+03  0.00000000000E+00 0.  1.
</event>
<event>
 7    1  0.6146596E-006  0.1326650E+03  0.7818608E-02  0.1224065E+00
          2   -1    0    0  502    0  0.00000000000E+00  0.00000000000E+00  0.12365125940E+04  0.12365125940E+04  0.00000000000E+00 0. -1.
          1   -1    0    0  501    0 -0.00000000000E+00 -0.00000000000E+00 -0.16578509605E+04  0.16578509605E+04  0.00000000000E+00 0. -1.
         25    2    1    2    0    0  0.10332743151E+03 -0.73737056069E+02  0.82948381601E+03  0.84840019210E+03  0.12500309350E+03 0.  0.
          2    1    1    2  501    0  0.74415662860E+02  0.10897553987E+03 -0.16249313660E+04  0.16302807437E+04  0.00000000000E+00 0. -1.
          1    1    1    2  502    0 -0.17774309437E+03 -0.35238483797E+02  0.37410918343E+03  0.41568261866E+03  0.00000000000E+00 0. -1.
         22    1    3    3    0    0  0.16586795078E+02 -0.68884657636E+02  0.18529376865E+03  0.19837842254E+03  0.00000000000E+00 0. -1.
         22    1    3    3    0    0  0.86740636432E+02 -0.48523984321E+01  0.64419004736E+03  0.65002176956E+03  0.00000000000E+00 0. -1.
</event>
<event>
 7    1  0.6146596E-006  0.1576225E+03  0.7818608E-02  0.1337652E+00
          2   -1    0    0  502    0  0.00000000000E+00  0.00000000000E+00  0.15598525375E+04  0.15598525375E+04  0.00000000000E+00 0. -1.
          1   -1    0    0  501    0 -0.00000000000E+00 -0.00000000000E+00 -0.12605715981E+04  0.12605715981E+04  0.00000000000E+00 0. -1.
         25    2    1    2    0    0  0.18439019186E+03 -0.35104801255E+02 -0.42847849414E+03  0.48420157722E+03  0.12500103005E+03 0.  0.
          2    1    1    2  501    0 -0.14762372158E+03  0.26951860801E+02 -0.79699682529E+03  0.81100129808E+03  0.00000000000E+00 0. -1.
          1    1    1    2  502    0 -0.36766470281E+02  0.81529404548E+01  0.15247562589E+04  0.15252212603E+04  0.00000000000E+00 0. -1.
         22    1    3    3    0    0  0.99189899105E+02 -0.12876204123E+02 -0.90319134552E+02  0.13476638596E+03  0.00000000000E+00 0. -1.
         22    1    3    3    0    0  0.85200292753E+02 -0.22228597132E+02 -0.33815935959E+03  0.34943519126E+03  0.00000000000E+00 0. -1.
</event>
<event>
 7    1  0.6146596E-006  0.1108925E+03  0.7818608E-02  0.1310361E+00
          2   -1    0    0  502    0  0.00000000000E+00  0.00000000000E+00  0.14342777462E+03  0.14342777462E+03  0.00000000000E+00 0. -1.
          1   -1    0    0  501    0 -0.00000000000E+00 -0.00000000000E+00 -0.10375134725E+04  0.10375134725E+04  0.00000000000E+00 0. -1.
         25    2    1    2    0    0  0.45961148749E+02  0.14910044521E+03 -0.92327755750E+02  0.22021099855E+03  0.12500039777E+03 0.  0.
          2    1    1    2  501    0 -0.68586577048E+02 -0.84755286101E+02 -0.86251974308E+03  0.86938362319E+03  0.00000000000E+00 0. -1.
          1    1    1    2  502    0  0.22625428299E+02 -0.64345159109E+02  0.60761800970E+02  0.91346625354E+02  0.00000000000E+00 0. -1.
         22    1    3    3    0    0  0.49529802279E+01 -0.12072856986E+02 -0.45646643241E+02  0.47475277020E+02  0.00000000000E+00 0.  1.
         22    1    3    3    0    0  0.41008168521E+02  0.16117330220E+03 -0.46681112509E+02  0.17273572153E+03  0.00000000000E+00 0.  1.
</event>
<event>
 7    1  0.6146596E-006  0.1180844E+03  0.7818608E-02  0.1436649E+00
          2   -1    0    0  502    0  0.00000000000E+00  0.00000000000E+00  0.95622860866E+03  0.95622860866E+03  0.00000000000E+00 0. -1.
          1   -1    0    0  501    0 -0.00000000000E+00 -0.00000000000E+00 -0.54896014376E+02  0.54896014376E+02  0.00000000000E+00 0. -1.
         25    2    1    2    0    0  0.42914968296E+02 -0.88965865223E+02  0.16777189563E+03  0.23136258332E+03  0.12499846526E+03 0.  0.
          2    1    1    2  501    0  0.59601148479E+01 -0.21789676890E+02 -0.11208549228E+02  0.25217941307E+02  0.00000000000E+00 0. -1.
          1    1    1    2  502    0 -0.48875083144E+02  0.11075554211E+03  0.74476924788E+03  0.75454409841E+03  0.00000000000E+00 0. -1.
         22    1    3    3    0    0 -0.29988880817E+02 -0.73089423234E+02  0.55460087145E+02  0.96525737643E+02  0.00000000000E+00 0. -1.
         22    1    3    3    0    0  0.72903849113E+02 -0.15876441989E+02  0.11231180849E+03  0.13483684568E+03  0.00000000000E+00 0. -1.
</event>
<event>
 7    1  0.6146596E-006  0.5006251E+02  0.7818608E-02  0.1466686E+00
          2   -1    0    0  502    0  0.00000000000E+00  0.00000000000E+00  0.31338660876E+03  0.31338660876E+03  0.00000000000E+00 0. -1.
          1   -1    0    0  501    0 -0.00000000000E+00 -0.00000000000E+00 -0.13428572952E+03  0.13428572952E+03  0.00000000000E+00 0. -1.
         25    2    1    2    0    0  0.22368632280E+02  0.68864662957E+02  0.20135068572E+03  0.24780690263E+03  0.12499385921E+03 0.  0.
          2    1    1    2  501    0  0.14689815735E+02 -0.47596362391E+02 -0.99677434881E+02  0.11143067542E+03  0.00000000000E+00 0. -1.
          1    1    1    2  502    0 -0.37058448015E+02 -0.21268300566E+02  0.77427628403E+02  0.88434760238E+02  0.00000000000E+00 0. -1.
         22    1    3    3    0    0  0.32783418002E+02  0.53041551574E+02  0.21538628890E+03  0.22423071184E+03  0.00000000000E+00 0. -1.
         22    1    3    3    0    0 -0.10414785722E+02  0.15823111383E+02 -0.14035603181E+02  0.23576190789E+02  0.00000000000E+00 0. -1.
</event>
<event>
 7    1  0.6146596E-006  0.5836820E+02  0.7818608E-02  0.1493332E+00
          2   -1    0    0  502    0  0.00000000000E+00  0.00000000000E+00  0.90994245580E+03  0.90994245580E+03  0.00000000000E+00 0. -1.
          1   -1    0    0  501    0 -0.00000000000E+00 -0.00000000000E+00 -0.70429302975E+03  0.70429302975E+03  0.00000000000E+00 0. -1.
         25    2    1    2    0    0 -0.46686924237E+01 -0.29307484434E+02  0.11533082955E+03  0.17264843119E+03  0.12500222084E+03 0.  0.
          2    1    1    2  501    0  0.21613253396E+02  0.54498719994E+02 -0.67406046297E+03  0.67660531401E+03  0.00000000000E+00 0. -1.
          1    1    1    2  502    0 -0.16944560972E+02 -0.25191235560E+02  0.76437905948E+03  0.76498174035E+03  0.00000000000E+00 0. -1.
         22    1    3    3    0    0  0.15830356157E+02  0.28271385713E+02 -0.94088040600E+01  0.33740139597E+02  0.00000000000E+00 0. -1.
         22    1    3    3    0    0 -0.20499048580E+02 -0.57578870147E+02  0.12473963361E+03  0.13890829159E+03  0.00000000000E+00 0. -1.
</event>
<event>
 7    1  0.6146596E-006  0.3222012E+02  0.7818608E-02  0.1577664E+00
          2   -1    0    0  502    0  0.00000000000E+00  0.00000000000E+00  0.37339768970E+02  0.37339768970E+02  0.00000000000E+00 0. -1.
          1   -1    0    0  501    0 -0.00000000000E+00 -0.00000000000E+00 -0.19495091793E+04  0.19495091793E+04  0.00000000000E+00 0. -1.
         25    2    1    2    0    0 -0.10934520115E+01 -0.55978094346E+01 -0.96011834468E+03  0.96823835483E+03  0.12500297945E+03 0.  0.
          2    1    1    2  501    0  0.30661988081E+02 -0.78331384636E+01 -0.97709028695E+03  0.97760265161E+03  0.00000000000E+00 0. -1.
          1    1    1    2  502    0 -0.29568536069E+02  0.13430947898E+02  0.25039221325E+02  0.41007941807E+02  0.00000000000E+00 0. -1.
         22    1    3    3    0    0 -0.50446596184E+02 -0.26072485983E+02 -0.26225341760E+03  0.26833093119E+03  0.00000000000E+00 0.  1.
         22    1    3    3    0    0  0.49353144173E+02  0.20474676549E+02 -0.69786492708E+03  0.69990742364E+03  0.00000000000E+00 0.  1.
</event>
<event>
 7    1  0.6146596E-006  0.1201774E+03  0.7818608E-02  0.1445202E+00
          2   -1    0    0  502    0  0.00000000000E+00  0.00000000000E+00  0.52651596639E+03  0.52651596639E+03  0.00000000000E+00 0. -1.
          1   -1    0    0  501    0 -0.00000000000E+00 -0.00000000000E+00 -0.12126718143E+03  0.12126718143E+03  0.00000000000E+00 0. -1.
         25    2    1    2    0    0 -0.11789127151E+03 -0.42363823444E+01  0.30765278150E+03  0.35240834884E+03  0.12500044614E+03 0.  0.
          2    1    1    2  501    0  0.11797195761E+03  0.25060369404E+02 -0.61183067987E+02  0.13523598894E+03  0.00000000000E+00 0. -1.
          1    1    1    2  502    0 -0.80686097714E-01 -0.20823987060E+02  0.15877907146E+03  0.16013881004E+03  0.00000000000E+00 0. -1.
         22    1    3    3    0    0  0.85167687039E+01  0.16835936693E+02  0.14060978616E+03  0.14186999711E+03  0.00000000000E+00 0.  1.
         22    1    3    3    0    0 -0.12640804022E+03 -0.21072319038E+02  0.16704299534E+03  0.21053835174E+03  0.00000000000E+00 0.  1.
</event>
<event>
 7    1  0.6146596E-006  0.8941688E+02  0.7818608E-02  0.1401154E+00
          2   -1    0    0  502    0  0.00000000000E+00  0.00000000000E+00  0.59736459881E+03  0.59736459881E+03  0.00000000000E+00 0. -1.
          1   -1    0    0  501    0 -0.00000000000E+00 -0.00000000000E+00 -0.25188823233E+04  0.25188823233E+04  0.00000000000E+00 0. -1.
         25    2    1    2    0    0  0.47207757291E+02  0.64816682686E+02 -0.58634248769E+03  0.60485642175E+03  0.12499601334E+03 0.  0.
          2    1    1    2  501    0  0.31864770921E+02 -0.22856967767E+02 -0.19196751611E+04  0.19200756570E+04  0.00000000000E+00 0. -1.
          1    1    1    2  502    0 -0.79072528212E+02 -0.41959714919E+02  0.58449992432E+03  0.59131484331E+03  0.00000000000E+00 0. -1.
         22    1    3    3    0    0 -0.34736511020E+02  0.53348651830E+02 -0.30631053747E+03  0.31285595602E+03  0.00000000000E+00 0.  1.
         22    1    3    3    0    0  0.81944268311E+02  0.11468030855E+02 -0.28003195022E+03  0.29200046573E+03  0.00000000000E+00 0.  1.
</event>
<event>
 7    1  0.6146596E-006  0.2494151E+03  0.7818608E-02  0.1191214E+00
          2   -1    0    0  502    0  0.00000000000E+00  0.00000000000E+00  0.81251205940E+03  0.81251205940E+03  0.00000000000E+00 0. -1.
          1   -1    0    0  501    0 -0.00000000000E+00 -0.00000000000E+00 -0.86713109156E+03  0.86713109156E+03  0.00000000000E+00 0. -1.
         25    2    1    2    0    0  0.79292269585E+02  0.19593833433E+03  0.89092079109E+02  0.26123064224E+03  0.12499982004E+03 0.  0.
          2    1    1    2  501    0  0.99823776641E+02 -0.50098999895E+00 -0.75004455359E+03  0.75665835734E+03  0.00000000000E+00 0. -1.
          1    1    1    2  502    0 -0.17911604623E+03 -0.19543734433E+03  0.60633344232E+03  0.66175415137E+03  0.00000000000E+00 0. -1.
         22    1    3    3    0    0 -0.76238982471E+01 -0.11075858228E+02 -0.90391562287E+01  0.16202000040E+02  0.00000000000E+00 0. -1.
         22    1    3    3    0    0  0.86916167832E+02  0.20701419256E+03  0.98131235337E+02  0.24502864220E+03  0.00000000000E+00 0. -1.
</event>
<event>
 7    1  0.6146596E-006  0.9295566E+02  0.7818608E-02  0.1458253E+00
          2   -1    0    0  502    0  0.00000000000E+00  0.00000000000E+00  0.42890315209E+02  0.42890315209E+02  0.00000000000E+00 0. -1.
          1   -1    0    0  501    0 -0.00000000000E+00 -0.00000000000E+00 -0.13530882689E+04  0.13530882689E+04  0.00000000000E+00 0. -1.
         25    2    1    2    0    0 -0.34380559204E+02 -0.60792979519E+02 -0.12336636007E+03  0.18900259319E+03  0.12499964890E+03 0.  0.
          2    1    1    2  501    0  0.45473247905E+02  0.82593244577E+02 -0.11767476802E+04  0.11805187687E+04  0.00000000000E+00 0. -1.
          1    1    1    2  502    0 -0.11092688701E+02 -0.21800265057E+02 -0.10083913411E+02  0.26457222244E+02  0.00000000000E+00 0. -1.
         22    1    3    3    0    0 -0.20722831389E+00  0.36043185767E+02 -0.54567538674E+02  0.65397021803E+02  0.00000000000E+00 0. -1.
         22    1    3    3    0    0 -0.34173330890E+02 -0.96836165286E+02 -0.68798821399E+02  0.12360557138E+03  0.00000000000E+00 0. -1.
</event>
<event>
 7    1  0.6146596E-006  0.6982208E+02  0.7818608E-02  0.1430188E+00
          2   -1    0    0  502    0  0.00000000000E+00  0.00000000000E+00  0.21959152468E+04  0.21959152468E+04  0.00000000000E+00 0. -1.
          1   -1    0    0  501    0 -0.00000000000E+00 -0.00000000000E+00 -0.34400246256E+02  0.34400246256E+02  0.00000000000E+00 0. -1.
         25    2    1    2    0    0 -0.20606143885E+02  0.25431732893E+02  0.11475975085E+04  0.11548491165E+04  0.12500021652E+03 0.  0.
          2    1    1    2  501    0  0.30635351552E+02 -0.64270814735E+02  0.11351199005E+02  0.72097934161E+02  0.00000000000E+00 0. -1.
          1    1    1    2  502    0 -0.10029207666E+02  0.38839081842E+02  0.10025662930E+04  0.10033684424E+04  0.00000000000E+00 0. -1.
         22    1    3    3    0    0  0.10678873906E+02  0.67985818425E+02  0.44734991130E+03  0.45261247552E+03  0.00000000000E+00 0.  1.
         22    1    3    3    0    0 -0.31285017792E+02 -0.42554085533E+02  0.70024759721E+03  0.70223664097E+03  0.00000000000E+00 0.  1.
</event>
<event>
 7    1  0.6146596E-006  0.1031524E+03  0.7818608E-02  0.1395742E+00
          2   -1    0    0  502    0  0.00000000000E+00  0.00000000000E+00  0.57994234005E+03  0.57994234005E+03  0.00000000000E+00 0. -1.
          1   -1    0    0  501    0 -0.00000000000E+00 -0.00000000000E+00 -0.40765278764E+03  0.40765278764E+03  0.00000000000E+00 0. -1.
         25    2    1    2    0    0  0.40152939213E+02 -0.11238878076E+03 -0.10205955172E+02  0.17311969647E+03  0.12499108455E+03 0.  0.
          2    1    1    2  501    0 -0.34018330076E+02  0.10095648923E+02 -0.30969939339E+03  0.31172565370E+03  0.00000000000E+00 0. -1.
          1    1    1    2  502    0 -0.61346091370E+01  0.10229313184E+03  0.49219490097E+03  0.50274977752E+03  0.00000000000E+00 0. -1.
         22    1    3    3    0    0 -0.30517596844E+02 -0.74401535853E+02 -0.37013801004E+02  0.88526457735E+02  0.00000000000E+00 0. -1.
         22    1    3    3    0    0  0.70670536057E+02 -0.37987244906E+02  0.26807845832E+02  0.84593238739E+02  0.00000000000E+00 0. -1.
</event>
<event>
 7    1  0.6146596E-006  0.1065804E+03  0.7818608E-02  0.1362243E+00
          2   -1    0    0  502    0  0.00000000000E+00  0.00000000000E+00  0.11618840237E+04  0.11618840237E+04  0.00000000000E+00 0. -1.
          1   -1    0    0  501    0 -0.00000000000E+00 -0.00000000000E+00 -0.27059720427E+03  0.27059720427E+03  0.00000000000E+00 0. -1.
         25    2    1    2    0    0  0.13983827564E+02  0.63587147362E+02  0.29908621319E+03  0.33062952745E+03  0.12499779502E+03 0.  0.
          2    1    1    2  501    0 -0.57079082982E+01 -0.10797518104E+03 -0.24271816699E+03  0.26571286858E+03  0.00000000000E+00 0. -1.
          1    1    1    2  502    0 -0.82759192657E+01  0.44388033679E+02  0.83491877326E+03  0.83613883196E+03  0.00000000000E+00 0. -1.
         22    1    3    3    0    0 -0.50269802179E+02  0.54823623398E+02  0.13394514223E+03  0.15321221825E+03  0.00000000000E+00 0. -1.
         22    1    3    3    0    0  0.64253629743E+02  0.87635239642E+01  0.16514107096E+03  0.17741730920E+03  0.00000000000E+00 0. -1.
</event>
<event>
 7    1  0.6146596E-006  0.4742703E+02  0.7818608E-02  0.1467941E+00
          2   -1    0    0  502    0  0.00000000000E+00  0.00000000000E+00  0.10372514947E+04  0.10372514947E+04  0.00000000000E+00 0. -1.
          1   -1    0    0  501    0 -0.00000000000E+00 -0.00000000000E+00 -0.27440055111E+03  0.27440055111E+03  0.00000000000E+00 0. -1.
         25    2    1    2    0    0  0.46247769062E+02  0.48362152947E+02  0.21669590594E+03  0.25896774412E+03  0.12501769019E+03 0.  0.
          2    1    1    2  501    0  0.93297926580E+00 -0.44687166859E+02 -0.25058499126E+03  0.25454007775E+03  0.00000000000E+00 0. -1.
          1    1    1    2  502    0 -0.47180748328E+02 -0.36749860880E+01  0.79674002894E+03  0.79814422397E+03  0.00000000000E+00 0. -1.
         22    1    3    3    0    0 -0.33215022904E+02 -0.87117448762E+01  0.10505351701E+03  0.11052318165E+03  0.00000000000E+00 0.  1.
         22    1    3    3    0    0  0.79462791967E+02  0.57073897823E+02  0.11164238893E+03  0.14844456247E+03  0.00000000000E+00 0.  1.
</event>
<event>
 7    1  0.6146596E-006  0.8321623E+02  0.7818608E-02  0.1416861E+00
          2   -1    0    0  502    0  0.00000000000E+00  0.00000000000E+00  0.10046338222E+04  0.10046338222E+04  0.00000000000E+00 0. -1.
          1   -1    0    0  501    0 -0.00000000000E+00 -0.00000000000E+00 -0.84039651258E+03  0.84039651258E+03  0.00000000000E+00 0. -1.
         25    2    1    2    0    0  0.34154690728E+02  0.34285704465E+02  0.47208559239E+02  0.14211130068E+03  0.12499968515E+03 0.  0.
          2    1    1    2  501    0  0.17122643167E+02  0.33103679855E+02 -0.79053513574E+03  0.79141319130E+03  0.00000000000E+00 0. -1.
          1    1    1    2  502    0 -0.51277333895E+02 -0.67389384320E+02  0.90756388606E+03  0.91150584276E+03  0.00000000000E+00 0. -1.
         22    1    3    3    0    0 -0.22717633405E+02 -0.35340506761E+02  0.35287777109E+01  0.42160343426E+02  0.00000000000E+00 0. -1.
         22    1    3    3    0    0  0.56872324133E+02  0.69626211226E+02  0.43679781528E+02  0.99950957256E+02  0.00000000000E+00 0. -1.
</event>
<event>
 7    1  0.6146596E-006  0.1100176E+03  0.7818608E-02  0.1365693E+00
          2   -1    0    0  502    0  0.00000000000E+00  0.00000000000E+00  0.16122019783E+04  0.16122019783E+04  0.00000000000E+00 0. -1.
          1   -1    0    0  501    0 -0.00000000000E+00 -0.00000000000E+00 -0.12453356341E+04  0.12453356341E+04  0.00000000000E+00 0. -1.
         25    2    1    2    0    0 -0.86926879018E+01  0.14910899158E+03 -0.95017939442E+02  0.21670867482E+03  0.12500074694E+03 0.  0.
          2    1    1    2  501    0  0.15587875953E+02 -0.10717220528E+03 -0.10864886173E+04  0.10918728768E+04  0.00000000000E+00 0. -1.
          1    1    1    2  502    0 -0.68951880511E+01 -0.41936786298E+02  0.15483729010E+04  0.15489560607E+04  0.00000000000E+00 0. -1.
         22    1    3    3    0    0 -0.66556570024E+02  0.89514073806E+02 -0.50160775843E+02  0.12230555938E+03  0.00000000000E+00 0. -1.
         22    1    3    3    0    0  0.57863882122E+02  0.59594917770E+02 -0.44857163599E+02  0.94403115438E+02  0.00000000000E+00 0. -1.
</event>
<event>
 7    1  0.6146596E-006  0.7144248E+02  0.7818608E-02  0.1385071E+00
          2   -1    0    0  502    0  0.00000000000E+00  0.00000000000E+00  0.29576724595E+03  0.29576724595E+03  0.00000000000E+00 0. -1.
          1   -1    0    0  501    0 -0.00000000000E+00 -0.00000000000E+00 -0.29747335492E+03  0.29747335492E+03  0.00000000000E+00 0. -1.
         25    2    1    2    0    0  0.12403182257E+02 -0.13057010507E+02 -0.93850891581E+02  0.15734406281E+03  0.12499935919E+03 0.  0.
          2    1    1    2  501    0  0.31926101444E+02 -0.45787371493E+02 -0.16196945521E+03  0.17131801938E+03  0.00000000000E+00 0. -1.
          1    1    1    2  502    0 -0.44329283701E+02  0.58844382000E+02  0.25411423782E+03  0.26457851868E+03  0.00000000000E+00 0. -1.
         22    1    3    3    0    0 -0.43216395878E+02 -0.23517401569E+02 -0.87513187066E+02  0.10039563217E+03  0.00000000000E+00 0. -1.
         22    1    3    3    0    0  0.55619578135E+02  0.10460391062E+02 -0.63377045150E+01  0.56948430633E+02  0.00000000000E+00 0. -1.
</event>
<event>
 7    1  0.6146596E-006  0.5744219E+02  0.7818608E-02  0.1463767E+00
          2   -1    0    0  502    0  0.00000000000E+00  0.00000000000E+00  0.24032952020E+03  0.24032952020E+03  0.00000000000E+00 0. -1.
          1   -1    0    0  501    0 -0.00000000000E+00 -0.00000000000E+00 -0.13996552849E+04  0.13996552849E+04  0.00000000000E+00 0. -1.
         25    2    1    2    0    0  0.65855731707E+02  0.15888457280E+02 -0.85990258673E+03  0.87157794114E+03  0.12500491325E+03 0.  0.
          2    1    1    2  501    0 -0.53469963203E+02  0.20068763752E+02 -0.53083114770E+03  0.53389465217E+03  0.00000000000E+00 0. -1.
          1    1    1    2  502    0 -0.12385768503E+02 -0.35957221032E+02  0.23140796975E+03  0.23451221177E+03  0.00000000000E+00 0. -1.
         22    1    3    3    0    0  0.12441662866E+02  0.13815123922E+02 -0.74076167485E+03  0.74099494705E+03  0.00000000000E+00 0.  1.
         22    1    3    3    0    0  0.53414068841E+02  0.20733333581E+01 -0.11914091188E+03  0.13058299409E+03  0.00000000000E+00 0.  1.
</event>
<event>
 7    1  0.6146596E-006  0.1082371E+03  0.7818608E-02  0.1281068E+00
          2   -1    0    0  502    0  0.00000000000E+00  0.00000000000E+00  0.44998186850E+04  0.44998186850E+04  0.00000000000E+00 0. -1.
          1   -1    0    0  501    0 -0.00000000000E+00 -0.00000000000E+00 -0.20829816816E+02  0.20829816816E+02  0.00000000000E+00 0. -1.
         25    2    1    2    0    0  0.91328860774E+01 -0.25915021446E+02  0.30069294633E+03  0.32679711955E+03  0.12500044572E+03 0.  0.
          2    1    1    2  501    0 -0.35090837874E+02 -0.84735809402E+02  0.29579497941E+03  0.30968725215E+03  0.00000000000E+00 0. -1.
          1    1    1    2  502    0  0.25957951796E+02  0.11065083085E+03  0.38825009424E+04  0.38841641301E+04  0.00000000000E+00 0. -1.
         22    1    3    3    0    0  0.33282292993E+01  0.26387632609E+02  0.57691143195E+01  0.27215196950E+02  0.00000000000E+00 0. -1.
         22    1    3    3    0    0  0.58046567780E+01 -0.52302654055E+02  0.29492383201E+03  0.29958192260E+03  0.00000000000E+00 0. -1.
</event>
<event>
 7    1  0.6146596E-006  0.4496131E+02  0.7818608E-02  0.1536599E+00
          2   -1    0    0  502    0  0.00000000000E+00  0.00000000000E+00  0.17519826585E+04  0.17519826585E+04  0.00000000000E+00 0. -1.
          1   -1    0    0  501    0 -0.00000000000E+00 -0.00000000000E+00 -0.22541033462E+04  0.22541033462E+04  0.00000000000E+00 0. -1.
         25    2    1    2    0    0 -0.13669021047E+02  0.67169153367E+02 -0.98615573374E+01  0.14290483816E+03  0.12500402056E+03 0.  0.
          2    1    1    2  501    0  0.22242662503E+02 -0.38993323706E+02 -0.21773601156E+04  0.21778228322E+04  0.00000000000E+00 0. -1.
          1    1    1    2  502    0 -0.85736414551E+01 -0.28175829661E+02  0.16851009853E+04  0.16853583344E+04  0.00000000000E+00 0. -1.
         22    1    3    3    0    0 -0.48224438861E+02  0.78060109162E+02  0.22336017736E+02  0.94434500233E+02  0.00000000000E+00 0. -1.
         22    1    3    3    0    0  0.34555417813E+02 -0.10890955796E+02 -0.32197575073E+02  0.48470337930E+02  0.00000000000E+00 0. -1.
</event>
<event>
 7    1  0.6146596E-006  0.6840820E+02  0.7818608E-02  0.1498990E+00
          2   -1    0    0  502    0  0.00000000000E+00  0.00000000000E+00  0.53463525008E+03  0.53463525008E+03  0.00000000000E+00 0. -1.
          1   -1    0    0  501    0 -0.00000000000E+00 -0.00000000000E+00 -0.44991581386E+03  0.44991581386E+03  0.00000000000E+00 0. -1.
         25    2    1    2    0    0 -0.42701878567E+02 -0.21136009130E+02 -0.64786570647E+02  0.14863566391E+03  0.12500031814E+03 0.  0.
          2    1    1    2  501    0  0.67546333429E+02  0.19314354997E+02 -0.33928898597E+03  0.34648602781E+03  0.00000000000E+00 0. -1.
          1    1    1    2  502    0 -0.24844454862E+02  0.18216541329E+01  0.48879499284E+03  0.48942937221E+03  0.00000000000E+00 0. -1.
         22    1    3    3    0    0 -0.28933512058E+02 -0.16821808493E+02 -0.10272851992E+03  0.10804290891E+03  0.00000000000E+00 0.  1.
         22    1    3    3    0    0 -0.13768366509E+02 -0.43142006372E+01  0.37941949277E+02  0.40592754999E+02  0.00000000000E+00 0.  1.
</event>
<event>
 7    1  0.6146596E-006  0.5278108E+02  0.7818608E-02  0.1437352E+00
          2   -1    0    0  502    0  0.00000000000E+00  0.00000000000E+00  0.43512867130E+03  0.43512867130E+03  0.00000000000E+00 0. -1.
          1   -1    0    0  501    0 -0.00000000000E+00 -0.00000000000E+00 -0.12856313738E+04  0.12856313738E+04  0.00000000000E+00 0. -1.
         25    2    1    2    0    0  0.91731667969E+02  0.43867874665E+02 -0.11680480683E+04  0.11791100845E+04  0.12500084803E+03 0.  0.
          2    1    1    2  501    0 -0.48277636786E+02 -0.14025530039E+02 -0.10469066993E+03  0.11613604986E+03  0.00000000000E+00 0. -1.
          1    1    1    2  502    0 -0.43454031183E+02 -0.29842344626E+02  0.42223603577E+03  0.42551391077E+03  0.00000000000E+00 0. -1.
         22    1    3    3    0    0  0.12005365523E+03  0.21015131663E+02 -0.79457111645E+03  0.80386427648E+03  0.00000000000E+00 0. -1.
         22    1    3    3    0    0 -0.28321987265E+02  0.22852743002E+02 -0.37347695189E+03  0.37524580800E+03  0.00000000000E+00 0. -1.
</event>
<event>
 7    1  0.6146596E-006  0.9116023E+02  0.7818608E-02  0.1389868E+00
          2   -1    0    0  502    0  0.00000000000E+00  0.00000000000E+00  0.99884713345E+03  0.99884713345E+03  0.00000000000E+00 0. -1.
          1   -1    0    0  501    0 -0.00000000000E+00 -0.00000000000E+00 -0.16589878714E+04  0.16589878714E+04  0.00000000000E+00 0. -1.
         25    2    1    2    0    0 -0.39029332188E+02  0.10891057073E+03 -0.73581989573E+02  0.18553671365E+03  0.12499904693E+03 0.  0.
          2    1    1    2  501    0  0.38010856202E+02 -0.18065456737E+02 -0.15269494166E+04  0.15275292818E+04  0.00000000000E+00 0. -1.
          1    1    1    2  502    0  0.10184759865E+01 -0.90845113992E+02  0.94039066828E+03  0.94476900934E+03  0.00000000000E+00 0. -1.
         22    1    3    3    0    0  0.17927908665E+02  0.94184889823E+02 -0.61848163500E+01  0.96075258695E+02  0.00000000000E+00 0. -1.
         22    1    3    3    0    0 -0.56957240853E+02  0.14725680906E+02 -0.67397173223E+02  0.89461454952E+02  0.00000000000E+00 0. -1.
</event>
<event>
 7    1  0.6146596E-006  0.8302257E+02  0.7818608E-02  0.1449297E+00
          2   -1    0    0  502    0  0.00000000000E+00  0.00000000000E+00  0.55633918971E+03  0.55633918971E+03  0.00000000000E+00 0. -1.
          1   -1    0    0  501    0 -0.00000000000E+00 -0.00000000000E+00 -0.59836120245E+03  0.59836120245E+03  0.00000000000E+00 0. -1.
         25    2    1    2    0    0 -0.84398433358E+02  0.31513389032E+02  0.22836258900E+03  0.27548178223E+03  0.12499820416E+03 0.  0.
          2    1    1    2  501    0  0.82963436434E+02 -0.23044777120E+01 -0.57109265068E+03  0.57709189742E+03  0.00000000000E+00 0. -1.
          1    1    1    2  502    0  0.14349969243E+01 -0.29208911320E+02  0.30070804894E+03  0.30212671252E+03  0.00000000000E+00 0. -1.
         22    1    3    3    0    0 -0.37193721792E+02  0.22251549073E+02  0.22289215687E+03  0.22706699005E+03  0.00000000000E+00 0.  1.
         22    1    3    3    0    0 -0.47204711566E+02  0.92618399587E+01  0.54704321263E+01  0.48414792173E+02  0.00000000000E+00 0.  1.
</event>
<event>
 7    1  0.6146596E-006  0.1329899E+03  0.7818608E-02  0.1261155E+00
          2   -1    0    0  502    0  0.00000000000E+00  0.00000000000E+00  0.19447531771E+03  0.19447531771E+03  0.00000000000E+00 0. -1.
          1   -1    0    0  501    0 -0.00000000000E+00 -0.00000000000E+00 -0.13909150069E+04  0.13909150069E+04  0.00000000000E+00 0. -1.
         25    2    1    2    0    0  0.86282096194E+01 -0.13418227250E+03 -0.34829836852E+03  0.39372054354E+03  0.12499913854E+03 0.  0.
          2    1    1    2  501    0 -0.93071569646E+02  0.10173367067E+03 -0.10029412436E+04  0.10123750268E+04  0.00000000000E+00 0. -1.
          1    1    1    2  502    0  0.84443360027E+02  0.32448601835E+02  0.15479992285E+03  0.17929475432E+03  0.00000000000E+00 0. -1.
         22    1    3    3    0    0  0.40021356462E+02 -0.81134636128E+01 -0.32327631855E+02  0.52082751907E+02  0.00000000000E+00 0. -1.
         22    1    3    3    0    0 -0.31393146843E+02 -0.12606880889E+03 -0.31597073666E+03  0.34163779163E+03  0.00000000000E+00 0. -1.
</event>
<event>
 7    1  0.6146596E-006  0.4344776E+02  0.7818608E-02  0.1496474E+00
          2   -1    0    0  502    0  0.00000000000E+00  0.00000000000E+00  0.13242880080E+04  0.13242880080E+04  0.00000000000E+00 0. -1.
          1   -1    0    0  501    0 -0.00000000000E+00 -0.00000000000E+00 -0.92498488299E+01  0.92498488299E+01  0.00000000000E+00 0. -1.
         25    2    1    2    0    0 -0.14241779779E+02  0.83210181810E+01  0.69842949934E+03  0.70971903491E+03  0.12500110129E+03 0.  0.
          2    1    1    2  501    0 -0.17695438819E+02  0.35770968311E+02  0.28199569400E+03  0.28480565683E+03  0.00000000000E+00 0. -1.
          1    1    1    2  502    0  0.31937218597E+02 -0.44091986492E+02  0.33461296582E+03  0.33901316508E+03  0.00000000000E+00 0. -1.
         22    1    3    3    0    0  0.29878474323E+02 -0.18748553607E+02  0.63145217748E+02  0.72329454682E+02  0.00000000000E+00 0.  1.
         22    1    3    3    0    0 -0.44120254101E+02  0.27069571788E+02  0.63528428160E+03  0.63738958023E+03  0.00000000000E+00 0.  1.
</event>
<event>
 7    1  0.6146596E-006  0.1003493E+03  0.7818608E-02  0.1306909E+00
          2   -1    0    0  502    0  0.00000000000E+00  0.00000000000E+00  0.61513952339E+03  0.61513952339E+03  0.00000000000E+00 0. -1.
          1   -1    0    0  501    0 -0.00000000000E+00 -0.00000000000E+00 -0.77478161003E+03  0.77478161003E+03  0.00000000000E+00 0. -1.
         25    2    1    2    0    0  0.71751400934E+02  0.11403698341E+03 -0.40982241322E+02  0.18830109343E+03  0.12500024225E+03 0.  0.
          2    1    1    2  501    0  0.20238808314E+02 -0.75098005711E+02 -0.65320611456E+03  0.65782030063E+03  0.00000000000E+00 0. -1.
          1    1    1    2  502    0 -0.91990209248E+02 -0.38938977696E+02  0.53454626924E+03  0.54379973937E+03  0.00000000000E+00 0. -1.
         22    1    3    3    0    0  0.88940783615E+02  0.39100917392E+02  0.74400092094E+01  0.97440743367E+02  0.00000000000E+00 0. -1.
         22    1    3    3    0    0 -0.17189382681E+02  0.74936066015E+02 -0.48422250531E+02  0.90860350061E+02  0.00000000000E+00 0. -1.
</event>
<event>
 7    1  0.6146596E-006  0.1217803E+03  0.7818608E-02  0.1264387E+00
          2   -1    0    0  502    0  0.00000000000E+00  0.00000000000E+00  0.49044284110E+03  0.49044284110E+03  0.00000000000E+00 0. -1.
          1   -1    0    0  501    0 -0.00000000000E+00 -0.00000000000E+00 -0.38272381390E+04  0.38272381390E+04  0.00000000000E+00 0. -1.
         25    2    1    2    0    0  0.12801793745E+03 -0.13640481515E+03 -0.81900586215E+03  0.84934682864E+03  0.12499826872E+03 0.  0.
          2    1    1    2  501    0 -0.11018081989E+03  0.42365826565E+02 -0.29870650715E+04  0.29893966645E+04  0.00000000000E+00 0. -1.
          1    1    1    2  502    0 -0.17837117558E+02  0.94038988585E+02  0.46927563573E+03  0.47893748698E+03  0.00000000000E+00 0. -1.
         22    1    3    3    0    0  0.55103207326E+02 -0.13809395328E+03 -0.47633901327E+03  0.49900416727E+03  0.00000000000E+00 0. -1.
         22    1    3    3    0    0  0.72914730121E+02  0.16891381254E+01 -0.34266684887E+03  0.35034266136E+03  0.00000000000E+00 0. -1.
</event>
<event>
 7    1  0.6146596E-006  0.8826867E+02  0.7818608E-02  0.1434754E+00
          2   -1    0    0  502    0  0.00000000000E+00  0.00000000000E+00  0.40874500671E+03  0.40874500671E+03  0.00000000000E+00 0. -1.
          1   -1    0    0  501    0 -0.00000000000E+00 -0.00000000000E+00 -0.12403445501E+04  0.12403445501E+04  0.00000000000E+00 0. -1.
         25    2    1    2    0    0 -0.61506553441E+02  0.32342586472E+02 -0.20387823108E+03  0.24903201476E+03  0.12498604821E+03 0.  0.
          2    1    1    2  501    0  0.88424280910E+02 -0.17675341780E+02 -0.10112717264E+04  0.10152840863E+04  0.00000000000E+00 0. -1.
          1    1    1    2  502    0 -0.26917727470E+02 -0.14667244691E+02  0.38355041411E+03  0.38477345579E+03  0.00000000000E+00 0. -1.
         22    1    3    3    0    0 -0.77893797701E+02 -0.21395135916E+02 -0.83442797473E+02  0.11613740143E+03  0.00000000000E+00 0. -1.
         22    1    3    3    0    0  0.16387244260E+02  0.53737722388E+02 -0.12043543361E+03  0.13289461332E+03  0.00000000000E+00 0. -1.
</event>
<event>
 7    1  0.6146596E-006  0.1837920E+03  0.7818608E-02  0.1317731E+00
          2   -1    0    0  502    0  0.00000000000E+00  0.00000000000E+00  0.10606425871E+04  0.10606425871E+04  0.00000000000E+00 0. -1.
          1   -1    0    0  501    0 -0.00000000000E+00 -0.00000000000E+00 -0.47074135656E+03  0.47074135656E+03  0.00000000000E+00 0. -1.
         25    2    1    2    0    0  0.62372147263E+01 -0.14854714204E+03  0.50138604538E+01  0.19430621352E+03  0.12499843823E+03 0.  0.
          2    1    1    2  501    0  0.25078167540E+01 -0.38425653505E+02 -0.36596096616E+03  0.36798131575E+03  0.00000000000E+00 0. -1.
          1    1    1    2  502    0 -0.87450314802E+01  0.18697279554E+03  0.95084833628E+03  0.96909641442E+03  0.00000000000E+00 0. -1.
         22    1    3    3    0    0  0.90670697933E+01  0.62373388682E+01  0.34937975488E+02  0.36630291863E+02  0.00000000000E+00 0. -1.
         22    1    3    3    0    0 -0.28298550670E+01 -0.15478448091E+03 -0.29924115034E+02  0.15767592165E+03  0.00000000000E+00 0. -1.
</event>
<event>
 7    1  0.6146596E-006  0.1249645E+03  0.7818608E-02  0.1310940E+00
          2   -1    0    0  502    0  0.00000000000E+00  0.00000000000E+00  0.10140609921E+04  0.10140609921E+04  0.00000000000E+00 0. -1.
          1   -1    0    0  501    0 -0.00000000000E+00 -0.00000000000E+00 -0.27928592619E+04  0.27928592619E+04  0.00000000000E+00 0. -1.
         25    2    1    2    0    0  0.55920455162E+02 -0.15085058740E+03 -0.20645446465E+03  0.29005507388E+03  0.12500201151E+03 0.  0.
          2    1    1    2  501    0 -0.54147243486E+02  0.26330193592E+02 -0.25402585689E+04  0.25409720187E+04  0.00000000000E+00 0. -1.
          1    1    1    2  502    0 -0.17732116754E+01  0.12452039381E+03  0.96791476376E+03  0.97589316149E+03  0.00000000000E+00 0. -1.
         22    1    3    3    0    0 -0.59605462089E+01 -0.12902548723E+03 -0.93603009409E+02  0.15951372304E+03  0.00000000000E+00 0.  1.
         22    1    3    3    0    0  0.61881001370E+02 -0.21825100165E+02 -0.11285145524E+03  0.13054135084E+03  0.00000000000E+00 0.  1.
</event>
<event>
 7    1  0.6146596E-006  0.2476046E+02  0.7818608E-02  0.1681583E+00
          2   -1    0    0  502    0  0.00000000000E+00  0.00000000000E+00  0.44241232924E+02  0.44241232924E+02  0.00000000000E+00 0. -1.
          1   -1    0    0  501    0 -0.00000000000E+00 -0.00000000000E+00 -0.93484729366E+03  0.93484729366E+03  0.00000000000E+00 0. -1.
         25    2    1    2    0    0 -0.39454097746E+02  0.24679398396E+02 -0.44492118695E+03  0.46448873016E+03  0.12501687610E+03 0.  0.
          2    1    1    2  501    0  0.21145921073E+02 -0.11530576752E+02 -0.47611878284E+03  0.47672759470E+03  0.00000000000E+00 0. -1.
          1    1    1    2  502    0  0.18308176674E+02 -0.13148821644E+02  0.30433909051E+02  0.37872201730E+02  0.00000000000E+00 0. -1.
         22    1    3    3    0    0 -0.61632139606E+02  0.55534531291E+02 -0.38264453293E+03  0.39153472819E+03  0.00000000000E+00 0.  1.
         22    1    3    3    0    0  0.22178041860E+02 -0.30855132895E+02 -0.62276654024E+02  0.72954001968E+02  0.00000000000E+00 0.  1.
</event>
<event>
 7    1  0.6146596E-006  0.8958848E+02  0.7818608E-02  0.1306472E+00
          2   -1    0    0  502    0  0.00000000000E+00  0.00000000000E+00  0.22251480352E+04  0.22251480352E+04  0.00000000000E+00 0. -1.
          1   -1    0    0  501    0 -0.00000000000E+00 -0.00000000000E+00 -0.15040164342E+02  0.15040164342E+02  0.00000000000E+00 0. -1.
         25    2    1    2    0    0  0.31856190400E+01  0.41780837999E+02  0.72389053567E+03  0.73580067868E+03  0.12501737684E+03 0.  0.
          2    1    1    2  501    0 -0.27490954023E+02 -0.12580313717E+03  0.58875176840E+03  0.60266974926E+03  0.00000000000E+00 0. -1.
          1    1    1    2  502    0  0.24305334983E+02  0.84022299176E+02  0.89746556674E+03  0.90171777157E+03  0.00000000000E+00 0. -1.
         22    1    3    3    0    0  0.46693275673E+02  0.46480610601E+02  0.21100463886E+03  0.22105127635E+03  0.00000000000E+00 0.  1.
         22    1    3    3    0    0 -0.43507656633E+02 -0.46997726020E+01  0.51288589681E+03  0.51474940233E+03  0.00000000000E+00 0.  1.
</event>
<event>
 7    1  0.6146596E-006  0.5800888E+02  0.7818608E-02  0.1492018E+00
          2   -1    0    0  502    0  0.00000000000E+00  0.00000000000E+00  0.47429995773E+03  0.47429995773E+03  0.00000000000E+00 0. -1.
          1   -1    0    0  501    0 -0.00000000000E+00 -0.00000000000E+00 -0.17422699681E+04  0.17422699681E+04  0.00000000000E+00 0. -1.
         25    2    1    2    0    0 -0.26448339326E+02  0.22397448099E+02  0.97878760560E+02  0.16250115295E+03  0.12500085042E+03 0.  0.
          2    1    1    2  501    0  0.56259989699E+02 -0.14547999801E+02 -0.17087734398E+04  0.17097612405E+04  0.00000000000E+00 0. -1.
          1    1    1    2  502    0 -0.29811650374E+02 -0.78494482978E+01  0.34292466890E+03  0.34430753242E+03  0.00000000000E+00 0. -1.
         22    1    3    3    0    0  0.81245214064E+01  0.65951944649E+02  0.80195784439E+02  0.10414907917E+03  0.00000000000E+00 0. -1.
         22    1    3    3    0    0 -0.34572860732E+02 -0.43554496550E+02  0.17682976122E+02  0.58352073771E+02  0.00000000000E+00 0. -1.
</event>
<event>
 7    1  0.6146596E-006  0.1136101E+03  0.7818608E-02  0.1279816E+00
          2   -1    0    0  502    0  0.00000000000E+00  0.00000000000E+00  0.17048852766E+04  0.17048852766E+04  0.00000000000E+00 0. -1.
          1   -1    0    0  501    0 -0.00000000000E+00 -0.00000000000E+00 -0.27871225294E+03  0.27871225294E+03  0.00000000000E+00 0. -1.
         25    2    1    2    0    0 -0.47591317489E+02 -0.29253466284E+02  0.11283399330E+03  0.17742228709E+03  0.12500583635E+03 0.  0.
          2    1    1    2  501    0  0.19674127308E+02 -0.86206390031E+02 -0.23613868920E+03  0.25215093398E+03  0.00000000000E+00 0. -1.
          1    1    1    2  502    0  0.27917190181E+02  0.11545985631E+03  0.15494777196E+04  0.15540243085E+04  0.00000000000E+00 0. -1.
         22    1    3    3    0    0 -0.67061633440E+02 -0.44526249452E+02  0.22245491422E+02  0.83514737972E+02  0.00000000000E+00 0. -1.
         22    1    3    3    0    0  0.19470315951E+02  0.15272783168E+02  0.90588501880E+02  0.93907549121E+02  0.00000000000E+00 0. -1.
</event>
<event>
 7    1  0.6146596E-006  0.5746507E+02  0.7818608E-02  0.1462131E+00
          2   -1    0    0  502    0  0.00000000000E+00  0.00000000000E+00  0.53872063639E+03  0.53872063639E+03  0.00000000000E+00 0. -1.
          1   -1    0    0  501    0 -0.00000000000E+00 -0.00000000000E+00 -0.36303671965E+04  0.36303671965E+04  0.00000000000E+00 0. -1.
         25    2    1    2    0    0  0.43585183387E+02 -0.82218214499E+02 -0.13506218302E+04  0.13595822432E+04  0.12500017869E+03 0.  0.
          2    1    1    2  501    0 -0.28677368585E+02  0.46756291595E+02 -0.22742415855E+04  0.22749029279E+04  0.00000000000E+00 0. -1.
          1    1    1    2  502    0 -0.14907814802E+02  0.35461922904E+02  0.53321685560E+03  0.53460266181E+03  0.00000000000E+00 0. -1.
         22    1    3    3    0    0  0.76781368498E+02 -0.19138789463E+02 -0.88569303347E+03  0.88922090695E+03  0.00000000000E+00 0.  1.
         22    1    3    3    0    0 -0.33196185112E+02 -0.63079425036E+02 -0.46492879676E+03  0.47036133624E+03  0.00000000000E+00 0.  1.
</event>
<event>
 7    1  0.6146596E-006  0.7930513E+02  0.7818608E-02  0.1340796E+00
          2   -1    0    0  502    0  0.00000000000E+00  0.00000000000E+00  0.15849343609E+04  0.15849343609E+04  0.00000000000E+00 0. -1.
          1   -1    0    0  501    0 -0.00000000000E+00 -0.00000000000E+00 -0.34705361540E+04  0.34705361540E+04  0.00000000000E+00 0. -1.
         25    2    1    2    0    0 -0.11380328207E+03 -0.34604185625E+02 -0.26146305593E+03  0.31326748708E+03  0.12499980869E+03 0.  0.
          2    1    1    2  501    0  0.74363494463E+02 -0.26630393408E+02 -0.31818297613E+04  0.31828100379E+04  0.00000000000E+00 0. -1.
          1    1    1    2  502    0  0.39439787612E+02  0.61234579033E+02  0.15576910241E+04  0.15593929899E+04  0.00000000000E+00 0. -1.
         22    1    3    3    0    0 -0.81061350734E+02 -0.81158407498E+02 -0.18957093091E+03  0.22157339086E+03  0.00000000000E+00 0.  1.
         22    1    3    3    0    0 -0.32741931341E+02  0.46554221873E+02 -0.71892125024E+02  0.91694096226E+02  0.00000000000E+00 0.  1.
</event>
<event>
 7    1  0.6146596E-006  0.8094093E+02  0.7818608E-02  0.1428695E+00
          2   -1    0    0  502    0  0.00000000000E+00  0.00000000000E+00  0.13960565703E+04  0.13960565703E+04  0.00000000000E+00 0. -1.
          1   -1    0    0  501    0 -0.00000000000E+00 -0.00000000000E+00 -0.67464480043E+03  0.67464480043E+03  0.00000000000E+00 0. -1.
         25    2    1    2    0    0  0.11019623540E+03 -0.33186604567E+02  0.39655453482E+02  0.17447486392E+03  0.12499744849E+03 0.  0.
          2    1    1    2  501    0 -0.32418277144E+02  0.13184207739E+02 -0.60547844137E+03  0.60648900319E+03  0.00000000000E+00 0. -1.
          1    1    1    2  502    0 -0.77777958253E+02  0.20002396828E+02  0.12872347578E+04  0.12897375036E+04  0.00000000000E+00 0. -1.
         22    1    3    3    0    0  0.10372880962E+03 -0.73161789939E+02  0.42551152976E+02  0.13387648812E+03  0.00000000000E+00 0.  1.
         22    1    3    3    0    0  0.64674257802E+01  0.39975185372E+02 -0.28956994943E+01  0.40598375797E+02  0.00000000000E+00 0.  1.
</event>
<event>
 7    1  0.6146596E-006  0.2827030E+02  0.7818608E-02  0.1634751E+00
          2   -1    0    0  502    0  0.00000000000E+00  0.00000000000E+00  0.63058026642E+03  0.63058026642E+03  0.00000000000E+00 0. -1.
          1   -1    0    0  501    0 -0.00000000000E+00 -0.00000000000E+00 -0.21008142034E+02  0.21008142034E+02  0.00000000000E+00 0. -1.
         25    2    1    2    0    0 -0.35909284041E+02 -0.36488871837E+02  0.26395390269E+03  0.29650840969E+03  0.12499863929E+03 0.  0.
          2    1    1    2  501    0  0.12236372824E+02  0.22544037953E+02  0.35772692084E+02  0.44018722903E+02  0.00000000000E+00 0. -1.
          1    1    1    2  502    0  0.23672911216E+02  0.13944833885E+02  0.30984552962E+03  0.31106127586E+03  0.00000000000E+00 0. -1.
         22    1    3    3    0    0  0.35744081333E+02 -0.37266114752E+02  0.54236140537E+02  0.74886324515E+02  0.00000000000E+00 0.  1.
         22    1    3    3    0    0 -0.71653365374E+02  0.77724291442E+00  0.20971776215E+03  0.22162208517E+03  0.00000000000E+00 0.  1.
</event>
<event>
 7    1  0.6146596E-006  0.1215316E+03  0.7818608E-02  0.1334239E+00
          2   -1    0    0  502    0  0.00000000000E+00  0.00000000000E+00  0.86420881191E+02  0.86420881191E+02  0.00000000000E+00 0. -1.
          1   -1    0    0  501    0 -0.00000000000E+00 -0.00000000000E+00 -0.33427037353E+04  0.33427037353E+04  0.00000000000E+00 0. -1.
         25    2    1    2    0    0 -0.26848636209E+02 -0.15402527497E+03 -0.42411265378E+03  0.46897890917E+03  0.12500015821E+03 0.  0.
          2    1    1    2  501    0 -0.20211707523E+02  0.46080113734E+02 -0.28415682825E+04  0.28420137568E+04  0.00000000000E+00 0. -1.
          1    1    1    2  502    0  0.47060343731E+02  0.10794516123E+03  0.93980821273E+01  0.11813195052E+03  0.00000000000E+00 0. -1.
         22    1    3    3    0    0  0.22044757776E+01 -0.12304191691E+03 -0.40334285488E+03  0.42169850795E+03  0.00000000000E+00 0.  1.
         22    1    3    3    0    0 -0.29053111987E+02 -0.30983358055E+02 -0.20769798904E+02  0.47280401214E+02  0.00000000000E+00 0.  1.
</event>
<event>
 7    1  0.6146596E-006  0.9168881E+02  0.7818608E-02  0.1304066E+00
          2   -1    0    0  502    0  0.00000000000E+00  0.00000000000E+00  0.27334659808E+04  0.27334659808E+04  0.00000000000E+00 0. -1.
          1   -1    0    0  501    0 -0.00000000000E+00 -0.00000000000E+00 -0.84762471901E+02  0.84762471901E+02  0.00000000000E+00 0. -1.
         25    2    1    2    0    0  0.59098495962E+02 -0.90333394273E+01  0.49540412729E+02  0.14714256293E+03  0.12498979113E+03 0.  0.
          2    1    1    2  501    0 -0.86148061605E+01  0.86938869702E+02  0.19195374892E+02  0.89448557101E+02  0.00000000000E+00 0. -1.
          1    1    1    2  502    0 -0.50483689802E+02 -0.77905530275E+02  0.25799677212E+04  0.25816373326E+04  0.00000000000E+00 0. -1.
         22    1    3    3    0    0  0.65849034682E+02 -0.74960806172E+01  0.86820565827E+02  0.10922498452E+03  0.00000000000E+00 0.  1.
         22    1    3    3    0    0 -0.67505387192E+01 -0.15372588101E+01 -0.37280153098E+02  0.37917578412E+02  0.00000000000E+00 0.  1.
</event>
<event>
 7    1  0.6146596E-006  0.8100290E+02  0.7818608E-02  0.1399781E+00
          2   -1    0    0  502    0  0.00000000000E+00  0.00000000000E+00  0.23496460927E+04  0.23496460927E+04  0.00000000000E+00 0. -1.
          1   -1    0    0  501    0 -0.00000000000E+00 -0.00000000000E+00 -0.65059008535E+03  0.65059008535E+03  0.00000000000E+00 0. -1.
         25    2    1    2    0    0  0.10428856327E+03 -0.50944281282E+02  0.17530756652E+03  0.24459867108E+03  0.12499737113E+03 0.  0.
          2    1    1    2  501    0 -0.60584440408E+02  0.53178231630E+02 -0.61308197066E+03  0.61835903930E+03  0.00000000000E+00 0. -1.
          1    1    1    2  502    0 -0.43704122865E+02 -0.22339503476E+01  0.21368304115E+04  0.21372784677E+04  0.00000000000E+00 0. -1.
         22    1    3    3    0    0 -0.87834939947E+01 -0.48843937607E+02  0.90596969203E+02  0.10329903599E+03  0.00000000000E+00 0.  1.
         22    1    3    3    0    0  0.11307205727E+03 -0.21003436755E+01  0.84710597317E+02  0.14129963509E+03  0.00000000000E+00 0.  1.
</event>
<event>
 7    1  0.6146596E-006  0.7332251E+02  0.7818608E-02  0.1406730E+00
          2   -1    0    0  502    0  0.00000000000E+00  0.00000000000E+00  0.80736476503E+03  0.80736476503E+03  0.00000000000E+00 0. -1.
          1   -1    0    0  501    0 -0.00000000000E+00 -0.00000000000E+00 -0.12152964485E+04  0.12152964485E+04  0.00000000000E+00 0. -1.
         25    2    1    2    0    0  0.27671698526E+02 -0.30015077667E+02 -0.13029417360E+02  0.13214284414E+03  0.12500135101E+03 0.  0.
          2    1    1    2  501    0  0.44299683140E+02  0.11502539144E+02 -0.11404038913E+04  0.11413219552E+04  0.00000000000E+00 0. -1.
          1    1    1    2  502    0 -0.71971381666E+02  0.18512538522E+02  0.74550162515E+03  0.74919641414E+03  0.00000000000E+00 0. -1.
         22    1    3    3    0    0 -0.34119921308E+02  0.13850514514E+02  0.27730624484E+02  0.46097649795E+02  0.00000000000E+00 0. -1.
         22    1    3    3    0    0  0.61791619834E+02 -0.43865592180E+02 -0.40760041844E+02  0.86045194347E+02  0.00000000000E+00 0. -1.
</event>
<event>
 7    1  0.6146596E-006  0.8115071E+02  0.7818608E-02  0.1496377E+00
          2   -1    0    0  502    0  0.00000000000E+00  0.00000000000E+00  0.24030475010E+03  0.24030475010E+03  0.00000000000E+00 0. -1.
          1   -1    0    0  501    0 -0.00000000000E+00 -0.00000000000E+00 -0.78966930061E+03  0.78966930061E+03  0.00000000000E+00 0. -1.
         25    2    1    2    0    0 -0.15725664811E+02  0.60745409504E+02  0.13600609091E+03  0.19508852123E+03  0.12499829216E+03 0.  0.
          2    1    1    2  501    0  0.31672924384E+02 -0.74987660484E+02 -0.75636941205E+03  0.76073714964E+03  0.00000000000E+00 0. -1.
          1    1    1    2  502    0 -0.15947259574E+02  0.14242250981E+02  0.70998770628E+02  0.74148379831E+02  0.00000000000E+00 0. -1.
         22    1    3    3    0    0 -0.42879552288E+02  0.49360397009E+02  0.14914376890E+03  0.16284645713E+03  0.00000000000E+00 0.  1.
         22    1    3    3    0    0  0.27153887478E+02  0.11385012495E+02 -0.13137677994E+02  0.32242064105E+02  0.00000000000E+00 0.  1.
</event>
<event>
 7    1  0.6146596E-006  0.1157836E+03  0.7818608E-02  0.1295122E+00
          2   -1    0    0  502    0  0.00000000000E+00  0.00000000000E+00  0.16775797644E+04  0.16775797644E+04  0.00000000000E+00 0. -1.
          1   -1    0    0  501    0 -0.00000000000E+00 -0.00000000000E+00 -0.44315175165E+04  0.44315175165E+04  0.00000000000E+00 0. -1.
         25    2    1    2    0    0 -0.64611915721E+02  0.95231879076E+02 -0.34326657347E+02  0.17335654634E+03  0.12502144740E+03 0.  0.
          2    1    1    2  501    0  0.11043685332E+03 -0.35691111151E+02 -0.43260195796E+04  0.43275761757E+04  0.00000000000E+00 0. -1.
          1    1    1    2  502    0 -0.45824937604E+02 -0.59540767924E+02  0.16064084849E+04  0.16081645588E+04  0.00000000000E+00 0. -1.
         22    1    3    3    0    0  0.54535180408E+01  0.74215828086E+02  0.25702068485E+02  0.78729450156E+02  0.00000000000E+00 0. -1.
         22    1    3    3    0    0 -0.70065433762E+02  0.21016050990E+02 -0.60028725831E+02  0.94627096185E+02  0.00000000000E+00 0. -1.
</event>
<event>
 7    1  0.6146596E-006  0.7421277E+02  0.7818608E-02  0.1376766E+00
          2   -1    0    0  502    0  0.00000000000E+00  0.00000000000E+00  0.18359553661E+04  0.18359553661E+04  0.00000000000E+00 0. -1.
          1   -1    0    0  501    0 -0.00000000000E+00 -0.00000000000E+00 -0.22018385334E+03  0.22018385334E+03  0.00000000000E+00 0. -1.
         25    2    1    2    0    0 -0.47903513684E+02  0.11242494607E+03  0.62625757903E+03  0.65019566574E+03  0.12498693263E+03 0.  0.
          2    1    1    2  501    0  0.49247412803E+02 -0.54945251755E+02 -0.20096229349E+03  0.21407973225E+03  0.00000000000E+00 0. -1.
          1    1    1    2  502    0 -0.13438991198E+01 -0.57479694310E+02  0.11904762272E+04  0.11918638215E+04  0.00000000000E+00 0. -1.
         22    1    3    3    0    0 -0.46990760045E+02  0.12436888974E+03  0.62399992444E+03  0.63800600151E+03  0.00000000000E+00 0. -1.
         22    1    3    3    0    0 -0.91275363843E+00 -0.11943943672E+02  0.22576545910E+01  0.12189664224E+02  0.00000000000E+00 0. -1.
</event>
<event>
 7    1  0.6146596E-006  0.8413410E+02  0.7818608E-02  0.1470083E+00
          2   -1    0    0  502    0  0.00000000000E+00  0.00000000000E+00  0.96232973329E+03  0.96232973329E+03  0.00000000000E+00 0. -1.
          1   -1    0    0  501    0 -0.00000000000E+00 -0.00000000000E+00 -0.63262712323E+02  0.63262712323E+02  0.00000000000E+00 0. -1.
         25    2    1    2    0    0 -0.14923798018E+02 -0.82368717876E+02  0.12409284694E+03  0.19501747189E+03  0.12500181699E+03 0.  0.
          2    1    1    2  501    0 -0.97676606854E+01  0.84810548920E+02  0.38445486753E+02  0.93628477799E+02  0.00000000000E+00 0. -1.
          1    1    1    2  502    0  0.24691458703E+02 -0.24418310438E+01  0.73652868728E+03  0.73694649592E+03  0.00000000000E+00 0. -1.
         22    1    3    3    0    0 -0.67411633933E+02 -0.45264427121E+02  0.93481108847E+02  0.12382210814E+03  0.00000000000E+00 0. -1.
         22    1    3    3    0    0  0.52487835915E+02 -0.37104290755E+02  0.30611738092E+02  0.71195363757E+02  0.00000000000E+00 0. -1.
</event>
<event>
 7    1  0.6146596E-006  0.9895878E+02  0.7818608E-02  0.1325533E+00
          2   -1    0    0  502    0  0.00000000000E+00  0.00000000000E+00  0.15693815118E+03  0.15693815118E+03  0.00000000000E+00 0. -1.
          1   -1    0    0  501    0 -0.00000000000E+00 -0.00000000000E+00 -0.28464891193E+04  0.28464891193E+04  0.00000000000E+00 0. -1.
         25    2    1    2    0    0  0.11145763693E+03 -0.18870463538E+01 -0.43536075887E+03  0.46646467591E+03  0.12499575086E+03 0.  0.
          2    1    1    2  501    0 -0.81143038445E+02 -0.57543056018E+02 -0.23866120677E+04  0.23886842733E+04  0.00000000000E+00 0. -1.
          1    1    1    2  502    0 -0.30314598490E+02  0.59430102372E+02  0.13242185846E+03  0.14827832123E+03  0.00000000000E+00 0. -1.
         22    1    3    3    0    0  0.12366464550E+03 -0.37109009036E+02 -0.31402048544E+03  0.33952744863E+03  0.00000000000E+00 0. -1.
         22    1    3    3    0    0 -0.12207008563E+02  0.35221962682E+02 -0.12134027343E+03  0.12693722728E+03  0.00000000000E+00 0. -1.
</event>
<event>
 7    1  0.6146596E-006  0.6136483E+02  0.7818608E-02  0.1486421E+00
          2   -1    0    0  502    0  0.00000000000E+00  0.00000000000E+00  0.65024341896E+03  0.65024341896E+03  0.00000000000E+00 0. -1.
          1   -1    0    0  501    0 -0.00000000000E+00 -0.00000000000E+00 -0.44668121670E+02  0.44668121670E+02  0.00000000000E+00 0. -1.
         25    2    1    2    0    0 -0.53331176084E+02  0.19316549261E+02  0.27225497557E+03  0.30490431061E+03  0.12500609380E+03 0.  0.
          2    1    1    2  501    0 -0.91591434627E+01 -0.28884555155E+02 -0.16511934365E+02  0.34508715015E+02  0.00000000000E+00 0. -1.
          1    1    1    2  502    0  0.62490319547E+02  0.95680058945E+01  0.34983225609E+03  0.35549851501E+03  0.00000000000E+00 0. -1.
         22    1    3    3    0    0  0.14133902614E+02  0.47200474877E+02  0.46913098728E+02  0.68033013045E+02  0.00000000000E+00 0. -1.
         22    1    3    3    0    0 -0.67465078698E+02 -0.27883925616E+02  0.22534187684E+03  0.23687129756E+03  0.00000000000E+00 0. -1.
</event>
<event>
 7    1  0.6146596E-006  0.1296003E+03  0.7818608E-02  0.1299566E+00
          2   -1    0    0  502    0  0.00000000000E+00  0.00000000000E+00  0.24584188344E+04  0.24584188344E+04  0.00000000000E+00 0. -1.
          1   -1    0    0  501    0 -0.00000000000E+00 -0.00000000000E+00 -0.11001586680E+03  0.11001586680E+03  0.00000000000E+00 0. -1.
         25    2    1    2    0    0  0.61297743671E+02 -0.59688396683E+02  0.30179174379E+03  0.33767469274E+03  0.12500329364E+03 0.  0.
          2    1    1    2  501    0 -0.12560452568E+03  0.55908246203E+02 -0.39975504875E+02  0.14317915301E+03  0.00000000000E+00 0. -1.
          1    1    1    2  502    0  0.64306782013E+02  0.37801504800E+01  0.20865867287E+04  0.20875808555E+04  0.00000000000E+00 0. -1.
         22    1    3    3    0    0  0.47306804638E+02  0.31786261594E+02  0.89714341709E+02  0.10628717373E+03  0.00000000000E+00 0. -1.
         22    1    3    3    0    0  0.13990939033E+02 -0.91474658276E+02  0.21207740208E+03  0.23138751901E+03  0.00000000000E+00 0. -1.
</event>
<event>
 7    1  0.6146596E-006  0.5339541E+02  0.7818608E-02  0.1493697E+00
          2   -1    0    0  502    0  0.00000000000E+00  0.00000000000E+00  0.88673919921E+03  0.88673919921E+03  0.00000000000E+00 0. -1.
          1   -1    0    0  501    0 -0.00000000000E+00 -0.00000000000E+00 -0.20642199043E+04  0.20642199043E+04  0.00000000000E+00 0. -1.
         25    2    1    2    0    0 -0.19203774253E+02 -0.74830128195E+02 -0.12751824951E+03  0.19456078971E+03  0.12499865561E+03 0.  0.
          2    1    1    2  501    0  0.24880334481E+02  0.21836094725E+02 -0.19022039150E+04  0.19024919396E+04  0.00000000000E+00 0. -1.
          1    1    1    2  502    0 -0.56765602280E+01  0.52994033470E+02  0.85224145936E+03  0.85390637424E+03  0.00000000000E+00 0. -1.
         22    1    3    3    0    0  0.64799698230E+01  0.33266830274E+02 -0.17270585450E+02  0.38038731934E+02  0.00000000000E+00 0. -1.
         22    1    3    3    0    0 -0.25683744076E+02 -0.10809695847E+03 -0.11024766406E+03  0.15652205778E+03  0.00000000000E+00 0. -1.
</event>
<event>
 7    1  0.6634555E-006  0.5980901E+02  0.7818608E-02  0.1458894E+00
          2   -1    0    0  502    0  0.00000000000E+00  0.00000000000E+00  0.11657398349E+04  0.11657398349E+04  0.00000000000E+00 0. -1.
          1   -1    0    0  501    0 -0.00000000000E+00 -0.00000000000E+00 -0.17718699098E+04  0.17718699098E+04  0.00000000000E+00 0. -1.
         25    2    1    2    0    0 -0.11064397997E+02 -0.24293057655E+02 -0.10648263738E+03  0.16636263929E+03  0.12500160854E+03 0.  0.
          2    1    1    2  501    0  0.12524708345E+02 -0.35706196174E+02 -0.16344352997E+04  0.16348732519E+04  0.00000000000E+00 0. -1.
          1    1    1    2  502    0 -0.14603103472E+01  0.59999253829E+02  0.11347878622E+04  0.11363738536E+04  0.00000000000E+00 0. -1.
         22    1    3    3    0    0  0.10386243733E+02  0.32110359646E+02  0.99814443462E+01  0.35193443803E+02  0.00000000000E+00 0. -1.
         22    1    3    3    0    0 -0.21450641730E+02 -0.56403417301E+02 -0.11646408172E+03  0.13116919549E+03  0.00000000000E+00 0. -1.
</event>
<event>
 7    1  0.6146596E-006  0.9058232E+02  0.7818608E-02  0.1410732E+00
          2   -1    0    0  502    0  0.00000000000E+00  0.00000000000E+00  0.27944227795E+04  0.27944227795E+04  0.00000000000E+00 0. -1.
          1   -1    0    0  501    0 -0.00000000000E+00 -0.00000000000E+00 -0.11288483986E+03  0.11288483986E+03  0.00000000000E+00 0. -1.
         25    2    1    2    0    0  0.11362054804E+02  0.11665021301E+03  0.30459380905E+03  0.34948501076E+03  0.12500406294E+03 0.  0.
          2    1    1    2  501    0 -0.27545945282E+02 -0.84597469211E+02 -0.68394756533E+02  0.11222011237E+03  0.00000000000E+00 0. -1.
          1    1    1    2  502    0  0.16183890478E+02 -0.32052743797E+02  0.24453388871E+04  0.24456024963E+04  0.00000000000E+00 0. -1.
         22    1    3    3    0    0 -0.50536218900E+01  0.91305132680E+01  0.19430971734E+03  0.19458975209E+03  0.00000000000E+00 0.  1.
         22    1    3    3    0    0  0.16415676694E+02  0.10751969974E+03  0.11028409171E+03  0.15489525867E+03  0.00000000000E+00 0.  1.
</event>
<event>
 7    1  0.6146596E-006  0.7643645E+02  0.7818608E-02  0.1377417E+00
          2   -1    0    0  502    0  0.00000000000E+00  0.00000000000E+00  0.58540973741E+03  0.58540973741E+03  0.00000000000E+00 0. -1.
          1   -1    0    0  501    0 -0.00000000000E+00 -0.00000000000E+00 -0.97731069734E+03  0.97731069734E+03  0.00000000000E+00 0. -1.
         25    2    1    2    0    0  0.16735066115E+02  0.13636209793E+02 -0.19929859296E+03  0.23624511120E+03  0.12500325896E+03 0.  0.
          2    1    1    2  501    0  0.41451758348E+02  0.36944280307E+02 -0.75589465982E+03  0.75793130616E+03  0.00000000000E+00 0. -1.
          1    1    1    2  502    0 -0.58186824463E+02 -0.50580490100E+02  0.56329229286E+03  0.56854401739E+03  0.00000000000E+00 0. -1.
         22    1    3    3    0    0  0.44224965336E+02  0.15834870943E+02 -0.20305058459E+03  0.20841336473E+03  0.00000000000E+00 0. -1.
         22    1    3    3    0    0 -0.27489899220E+02 -0.21986611506E+01  0.37519916267E+01  0.27831746463E+02  0.00000000000E+00 0. -1.
</event>
<event>
 7    1  0.6146596E-006  0.8149701E+02  0.7818608E-02  0.1346005E+00
          2   -1    0    0  502    0  0.00000000000E+00  0.00000000000E+00  0.40934443643E+03  0.40934443643E+03  0.00000000000E+00 0. -1.
          1   -1    0    0  501    0 -0.00000000000E+00 -0.00000000000E+00 -0.64952343138E+02  0.64952343138E+02  0.00000000000E+00 0. -1.
         25    2    1    2    0    0  0.38831015777E+02  0.85824578289E+02  0.20623519653E+03  0.25890475955E+03  0.12500004881E+03 0.  0.
          2    1    1    2  501    0 -0.67418953761E+02 -0.68492875996E+01  0.20436273854E+02  0.70780430600E+02  0.00000000000E+00 0. -1.
          1    1    1    2  502    0  0.28587937984E+02 -0.78975290689E+02  0.11772062290E+03  0.14461158942E+03  0.00000000000E+00 0. -1.
         22    1    3    3    0    0  0.54977071136E+02  0.90096743909E+02  0.21538907011E+03  0.23985902763E+03  0.00000000000E+00 0.  1.
         22    1    3    3    0    0 -0.16146055359E+02 -0.42721656206E+01 -0.91538735762E+01  0.19045731916E+02  0.00000000000E+00 0.  1.
</event>
<event>
 7    1  0.6146596E-006  0.4902442E+02  0.7818608E-02  0.1555040E+00
          2   -1    0    0  502    0  0.00000000000E+00  0.00000000000E+00  0.11267882910E+04  0.11267882910E+04  0.00000000000E+00 0. -1.
          1   -1    0    0  501    0 -0.00000000000E+00 -0.00000000000E+00 -0.10548653362E+03  0.10548653362E+03  0.00000000000E+00 0. -1.
         25    2    1    2    0    0 -0.28735895714E+02 -0.56597297942E+02  0.11206359160E+03  0.17948209824E+03  0.12500627661E+03 0.  0.
          2    1    1    2  501    0  0.22545304268E+02  0.81627120018E+01 -0.69148856584E+02  0.73188011168E+02  0.00000000000E+00 0. -1.
          1    1    1    2  502    0  0.61905914458E+01  0.48434585940E+02  0.97838702232E+03  0.97960471517E+03  0.00000000000E+00 0. -1.
         22    1    3    3    0    0 -0.76081388714E+02 -0.39759506642E+02  0.48992841368E+02  0.98840753651E+02  0.00000000000E+00 0.  1.
         22    1    3    3    0    0  0.47345493000E+02 -0.16837791300E+02  0.63070750227E+02  0.80641344591E+02  0.00000000000E+00 0.  1.
</event>
<event>
 7    1  0.6146596E-006  0.1665856E+03  0.7818608E-02  0.1364730E+00
          2   -1    0    0  502    0  0.00000000000E+00  0.00000000000E+00  0.68899915006E+03  0.68899915006E+03  0.00000000000E+00 0. -1.
          1   -1    0    0  501    0 -0.00000000000E+00 -0.00000000000E+00 -0.91312501102E+02  0.91312501102E+02  0.00000000000E+00 0. -1.
         25    2    1    2    0    0 -0.61146233817E+02 -0.17501903625E+03  0.38797802181E+03  0.44779720216E+03  0.12499945557E+03 0.  0.
          2    1    1    2  501    0  0.39344181399E+02  0.15698497617E+03  0.48656999564E+02  0.16899630457E+03  0.00000000000E+00 0. -1.
          1    1    1    2  502    0  0.21802052418E+02  0.18034060083E+02  0.16105162758E+03  0.16351814443E+03  0.00000000000E+00 0. -1.
         22    1    3    3    0    0 -0.30627611029E+02  0.29382311760E+01  0.12548618177E+03  0.12920319491E+03  0.00000000000E+00 0. -1.
         22    1    3    3    0    0 -0.30518622788E+02 -0.17795726742E+03  0.26249184004E+03  0.31859400725E+03  0.00000000000E+00 0. -1.
</event>
<event>
 7    1  0.6146596E-006  0.7686301E+02  0.7818608E-02  0.1376342E+00
          2   -1    0    0  502    0  0.00000000000E+00  0.00000000000E+00  0.45235690517E+03  0.45235690517E+03  0.00000000000E+00 0. -1.
          1   -1    0    0  501    0 -0.00000000000E+00 -0.00000000000E+00 -0.27476444680E+03  0.27476444680E+03  0.00000000000E+00 0. -1.
         25    2    1    2    0    0  0.82677081508E+02 -0.30313175489E+02 -0.10790210472E+03  0.18714390623E+03  0.12500235607E+03 0.  0.
          2    1    1    2  501    0 -0.73892469833E+02 -0.24696306454E+02 -0.11319449841E+03  0.13741542534E+03  0.00000000000E+00 0. -1.
          1    1    1    2  502    0 -0.87846116755E+01  0.55009481942E+02  0.39868906150E+03  0.40256202040E+03  0.00000000000E+00 0. -1.
         22    1    3    3    0    0  0.99770281777E+02  0.17781903252E+02 -0.64354921323E+02  0.12004941111E+03  0.00000000000E+00 0. -1.
         22    1    3    3    0    0 -0.17093200269E+02 -0.48095078741E+02 -0.43547183393E+02  0.67094495124E+02  0.00000000000E+00 0. -1.
</event>
<event>
 7    1  0.6146596E-006  0.4534720E+02  0.7818608E-02  0.1508690E+00
          2   -1    0    0  502    0  0.00000000000E+00  0.00000000000E+00  0.54741056195E+03  0.54741056195E+03  0.00000000000E+00 0. -1.
          1   -1    0    0  501    0 -0.00000000000E+00 -0.00000000000E+00 -0.28058163448E+03  0.28058163448E+03  0.00000000000E+00 0. -1.
         25    2    1    2    0    0  0.24705879125E+02 -0.23892637054E+02  0.21792080426E+03  0.25356561769E+03  0.12499922791E+03 0.  0.
          2    1    1    2  501    0 -0.45307542221E+02 -0.46102952596E+01 -0.25977991856E+03  0.26374160516E+03  0.00000000000E+00 0. -1.
          1    1    1    2  502    0  0.20601663096E+02  0.28502932314E+02  0.30868804178E+03  0.31068497358E+03  0.00000000000E+00 0. -1.
         22    1    3    3    0    0  0.68262616453E+02  0.80172254712E+01  0.16126605771E+03  0.17530203101E+03  0.00000000000E+00 0. -1.
         22    1    3    3    0    0 -0.43556737328E+02 -0.31909862526E+02  0.56654746552E+02  0.78263586679E+02  0.00000000000E+00 0. -1.
</event>
<event>
 7    1  0.6146596E-006  0.7440951E+02  0.7818608E-02  0.1358260E+00
          2   -1    0    0  502    0  0.00000000000E+00  0.00000000000E+00  0.72405564352E+03  0.72405564352E+03  0.00000000000E+00 0. -1.
          1   -1    0    0  501    0 -0.00000000000E+00 -0.00000000000E+00 -0.19859887195E+03  0.19859887195E+03  0.00000000000E+00 0. -1.
         25    2    1    2    0    0 -0.26834528752E+01 -0.19855393333E+02  0.79831075713E+02  0.14966453982E+03  0.12500014507E+03 0.  0.
          2    1    1    2  501    0 -0.48178100676E+02  0.63276732812E+02 -0.15204529308E+03  0.17158917637E+03  0.00000000000E+00 0. -1.
          1    1    1    2  502    0  0.50861553552E+02 -0.43421339479E+02  0.59767098893E+03  0.60140079927E+03  0.00000000000E+00 0. -1.
         22    1    3    3    0    0 -0.54157472771E+02 -0.37294783388E+02  0.66886437947E+02  0.93796206246E+02  0.00000000000E+00 0.  1.
         22    1    3    3    0    0  0.51474019896E+02  0.17439390055E+02  0.12944637766E+02  0.55868333577E+02  0.00000000000E+00 0.  1.
</event>
<event>
 7    1  0.6146596E-006  0.8115521E+02  0.7818608E-02  0.1363856E+00
          2   -1    0    0  502    0  0.00000000000E+00  0.00000000000E+00  0.84318331636E+02  0.84318331636E+02  0.00000000000E+00 0. -1.
          1   -1    0    0  501    0 -0.00000000000E+00 -0.00000000000E+00 -0.91377575475E+03  0.91377575475E+03  0.00000000000E+00 0. -1.
         25    2    1    2    0    0  0.30537597758E+02  0.80640819783E+00 -0.48897082090E+03  0.50561781054E+03  0.12499484578E+03 0.  0.
          2    1    1    2  501    0 -0.25456807218E+02  0.80189601848E+02 -0.38895433654E+03  0.39794961640E+03  0.00000000000E+00 0. -1.
          1    1    1    2  502    0 -0.50807905392E+01 -0.80996010046E+02  0.48467734326E+02  0.94526659449E+02  0.00000000000E+00 0. -1.
         22    1    3    3    0    0  0.30790361554E+02 -0.60222590967E+02 -0.25444366165E+03  0.26328004820E+03  0.00000000000E+00 0.  1.
         22    1    3    3    0    0 -0.25276379610E+00  0.61028999165E+02 -0.23452715925E+03  0.24233776234E+03  0.00000000000E+00 0.  1.
</event>
<event>
 7    1  0.6146596E-006  0.2965486E+03  0.7818608E-02  0.1090139E+00
          2   -1    0    0  502    0  0.00000000000E+00  0.00000000000E+00  0.58644543662E+03  0.58644543662E+03  0.00000000000E+00 0. -1.
          1   -1    0    0  501    0 -0.00000000000E+00 -0.00000000000E+00 -0.16584039438E+04  0.16584039438E+04  0.00000000000E+00 0. -1.
         25    2    1    2    0    0 -0.90645433433E+02 -0.15504701575E+03  0.55456008045E+01  0.21888798192E+03  0.12500009298E+03 0.  0.
          2    1    1    2  501    0 -0.29346520607E+03  0.42652657750E+02 -0.14495217060E+04  0.14795452858E+04  0.00000000000E+00 0. -1.
          1    1    1    2  502    0  0.38411063951E+03  0.11239435799E+03  0.37201759799E+03  0.54641611278E+03  0.00000000000E+00 0. -1.
         22    1    3    3    0    0 -0.12095098814E+03 -0.10644894043E+03  0.10066238561E+02  0.16143682235E+03  0.00000000000E+00 0.  1.
         22    1    3    3    0    0  0.30305554706E+02 -0.48598075312E+02 -0.45206377564E+01  0.57451159569E+02  0.00000000000E+00 0.  1.
</event>
<event>
 7    1  0.6146596E-006  0.7568908E+02  0.7818608E-02  0.1494701E+00
          2   -1    0    0  502    0  0.00000000000E+00  0.00000000000E+00  0.14062278522E+03  0.14062278522E+03  0.00000000000E+00 0. -1.
          1   -1    0    0  501    0 -0.00000000000E+00 -0.00000000000E+00 -0.52214322808E+03  0.52214322808E+03  0.00000000000E+00 0. -1.
         25    2    1    2    0    0 -0.54575829266E+02  0.31716296930E+02 -0.23144047115E+03  0.27050361365E+03  0.12499227448E+03 0.  0.
          2    1    1    2  501    0  0.58307052642E+02 -0.54605430187E+02 -0.26409515287E+03  0.27591251361E+03  0.00000000000E+00 0. -1.
          1    1    1    2  502    0 -0.37312233754E+01  0.22889133257E+02  0.11401518116E+03  0.11634988605E+03  0.00000000000E+00 0. -1.
         22    1    3    3    0    0 -0.37677876471E+02  0.80052495790E+02 -0.15560420760E+03  0.17899914492E+03  0.00000000000E+00 0.  1.
         22    1    3    3    0    0 -0.16897952796E+02 -0.48336198860E+02 -0.75836263549E+02  0.91504468732E+02  0.00000000000E+00 0.  1.
</event>
<event>
 7    1  0.6146596E-006  0.8859825E+02  0.7818608E-02  0.1306402E+00
          2   -1    0    0  502    0  0.00000000000E+00  0.00000000000E+00  0.19732213283E+04  0.19732213283E+04  0.00000000000E+00 0. -1.
          1   -1    0    0  501    0 -0.00000000000E+00 -0.00000000000E+00 -0.20363727859E+04  0.20363727859E+04  0.00000000000E+00 0. -1.
         25    2    1    2    0    0 -0.21665220284E+02 -0.11849176702E+02 -0.47048380020E+02  0.13582552010E+03  0.12500094835E+03 0.  0.
          2    1    1    2  501    0 -0.24980043746E+02  0.87060711922E+02 -0.19428650573E+04  0.19449751158E+04  0.00000000000E+00 0. -1.
          1    1    1    2  502    0  0.46645264031E+02 -0.75211535221E+02  0.19267619797E+04  0.19287934783E+04  0.00000000000E+00 0. -1.
         22    1    3    3    0    0 -0.41926947840E+02  0.39888652331E+02 -0.54829119035E+02  0.79719544869E+02  0.00000000000E+00 0.  1.
         22    1    3    3    0    0  0.20261727556E+02 -0.51737829033E+02  0.77807390147E+01  0.56105975227E+02  0.00000000000E+00 0.  1.
</event>
<event>
 7    1  0.6146596E-006  0.4515343E+02  0.7818608E-02  0.1509168E+00
          2   -1    0    0  502    0  0.00000000000E+00  0.00000000000E+00  0.49287064097E+03  0.49287064097E+03  0.00000000000E+00 0. -1.
          1   -1    0    0  501    0 -0.00000000000E+00 -0.00000000000E+00 -0.31040328261E+03  0.31040328261E+03  0.00000000000E+00 0. -1.
         25    2    1    2    0    0 -0.16578428438E+02  0.65642163280E+02 -0.98262545341E+02  0.17280975833E+03  0.12499578740E+03 0.  0.
          2    1    1    2  501    0  0.27518359259E+02 -0.21958000248E+02 -0.17196660882E+03  0.17553326870E+03  0.00000000000E+00 0. -1.
          1    1    1    2  502    0 -0.10939930821E+02 -0.43684163033E+02  0.45269651253E+03  0.45493089655E+03  0.00000000000E+00 0. -1.
         22    1    3    3    0    0  0.48184437336E+01 -0.12485067319E+02 -0.90444363985E+02  0.91429083352E+02  0.00000000000E+00 0. -1.
         22    1    3    3    0    0 -0.21396872171E+02  0.78127230600E+02 -0.78181813566E+01  0.81380674976E+02  0.00000000000E+00 0. -1.
</event>
<event>
 7    1  0.6146596E-006  0.7326427E+02  0.7818608E-02  0.1360811E+00
          2   -1    0    0  502    0  0.00000000000E+00  0.00000000000E+00  0.42512504930E+03  0.42512504930E+03  0.00000000000E+00 0. -1.
          1   -1    0    0  501    0 -0.00000000000E+00 -0.00000000000E+00 -0.27731250982E+03  0.27731250982E+03  0.00000000000E+00 0. -1.
         25    2    1    2    0    0 -0.54041135839E+02 -0.19758665093E+02 -0.37904452675E+02  0.14273509837E+03  0.12500284623E+03 0.  0.
          2    1    1    2  501    0 -0.48594240452E+01  0.66301231320E+02 -0.17711790370E+03  0.18918303066E+03  0.00000000000E+00 0. -1.
          1    1    1    2  502    0  0.58900559885E+02 -0.46542566227E+02  0.36283489586E+03  0.37051943010E+03  0.00000000000E+00 0. -1.
         22    1    3    3    0    0  0.52148952679E+00 -0.43609745103E+02 -0.64221982772E+02  0.77630824357E+02  0.00000000000E+00 0.  1.
         22    1    3    3    0    0 -0.54562625366E+02  0.23851080010E+02  0.26317530097E+02  0.65104274014E+02  0.00000000000E+00 0.  1.
</event>
<event>
 7    1  0.6146596E-006  0.1334539E+03  0.7818608E-02  0.1326276E+00
          2   -1    0    0  502    0  0.00000000000E+00  0.00000000000E+00  0.39311964873E+03  0.39311964873E+03  0.00000000000E+00 0. -1.
          1   -1    0    0  501    0 -0.00000000000E+00 -0.00000000000E+00 -0.44469933201E+03  0.44469933201E+03  0.00000000000E+00 0. -1.
         25    2    1    2    0    0  0.68192961606E+01  0.17998255987E+03 -0.26710445806E+03  0.34555904467E+03  0.12500414867E+03 0.  0.
          2    1    1    2  501    0 -0.84275427981E+01 -0.48418077570E+02 -0.12117662434E+03  0.13076355762E+03  0.00000000000E+00 0. -1.
          1    1    1    2  502    0  0.16082466375E+01 -0.13156448230E+03  0.33670139912E+03  0.36149637845E+03  0.00000000000E+00 0. -1.
         22    1    3    3    0    0 -0.48054143727E+02  0.14374970059E+03 -0.16440240059E+03  0.22360976381E+03  0.00000000000E+00 0. -1.
         22    1    3    3    0    0  0.54873439888E+02  0.36232859277E+02 -0.10270205746E+03  0.12194928087E+03  0.00000000000E+00 0. -1.
</event>
<event>
 7    1  0.6146596E-006  0.1433224E+03  0.7818608E-02  0.1285461E+00
          2   -1    0    0  502    0  0.00000000000E+00  0.00000000000E+00  0.26975829869E+04  0.26975829869E+04  0.00000000000E+00 0. -1.
          1   -1    0    0  501    0 -0.00000000000E+00 -0.00000000000E+00 -0.37032048043E+03  0.37032048043E+03  0.00000000000E+00 0. -1.
         25    2    1    2    0    0  0.29964474988E+02  0.77929805015E+02  0.11864880393E+04  0.11959722842E+04  0.12499965146E+03 0.  0.
          2    1    1    2  501    0 -0.16894995304E+02 -0.14307328377E+03 -0.35061641530E+03  0.37906104531E+03  0.00000000000E+00 0. -1.
          1    1    1    2  502    0 -0.13069479684E+02  0.65143478753E+02  0.14913908825E+04  0.14928701379E+04  0.00000000000E+00 0. -1.
         22    1    3    3    0    0  0.44772574257E+02  0.28097703432E+02  0.16713565891E+03  0.17529515915E+03  0.00000000000E+00 0.  1.
         22    1    3    3    0    0 -0.14808099270E+02  0.49832101583E+02  0.10193523804E+04  0.10206771250E+04  0.00000000000E+00 0.  1.
</event>
<event>
 7    1  0.6146596E-006  0.1129439E+03  0.7818608E-02  0.1280961E+00
          2   -1    0    0  502    0  0.00000000000E+00  0.00000000000E+00  0.26015196267E+04  0.26015196267E+04  0.00000000000E+00 0. -1.
          1   -1    0    0  501    0 -0.00000000000E+00 -0.00000000000E+00 -0.10162853237E+04  0.10162853237E+04  0.00000000000E+00 0. -1.
         25    2    1    2    0    0 -0.11617219657E+03  0.84894733441E+01  0.60993922892E+03  0.63341832998E+03  0.12499946946E+03 0.  0.
          2    1    1    2  501    0  0.38828910481E+02  0.78950089094E+02 -0.10008935397E+04  0.10047530436E+04  0.00000000000E+00 0. -1.
          1    1    1    2  502    0  0.77343286089E+02 -0.87439562438E+02  0.19761886138E+04  0.19796335767E+04  0.00000000000E+00 0. -1.
         22    1    3    3    0    0  0.18944347759E-01  0.99392740850E+01  0.33222987204E+03  0.33237851525E+03  0.00000000000E+00 0.  1.
         22    1    3    3    0    0 -0.11619114092E+03 -0.14498007409E+01  0.27770935688E+03  0.30103981473E+03  0.00000000000E+00 0.  1.
</event>
<event>
 7    1  0.6146596E-006  0.9731854E+02  0.7818608E-02  0.1308552E+00
          2   -1    0    0  502    0  0.00000000000E+00  0.00000000000E+00  0.46100618444E+03  0.46100618444E+03  0.00000000000E+00 0. -1.
          1   -1    0    0  501    0 -0.00000000000E+00 -0.00000000000E+00 -0.41763938980E+03  0.41763938980E+03  0.00000000000E+00 0. -1.
         25    2    1    2    0    0  0.22394731854E+02 -0.16802531150E+02 -0.16379339360E+03  0.20793678582E+03  0.12500232813E+03 0.  0.
          2    1    1    2  501    0  0.56271970663E+01 -0.78807466363E+02 -0.21912594296E+03  0.23293445640E+03  0.00000000000E+00 0. -1.
          1    1    1    2  502    0 -0.28021928920E+02  0.95609997513E+02  0.42628613120E+03  0.43777433203E+03  0.00000000000E+00 0. -1.
         22    1    3    3    0    0  0.38027732779E+02  0.13311978227E+02  0.38159442218E+00  0.40292218094E+02  0.00000000000E+00 0. -1.
         22    1    3    3    0    0 -0.15633000925E+02 -0.30114509377E+02 -0.16417498803E+03  0.16764456772E+03  0.00000000000E+00 0. -1.
</event>
<event>
 7    1  0.6146596E-006  0.1887269E+03  0.7818608E-02  0.1260520E+00
          2   -1    0    0  502    0  0.00000000000E+00  0.00000000000E+00  0.63020275019E+03  0.63020275019E+03  0.00000000000E+00 0. -1.
          1   -1    0    0  501    0 -0.00000000000E+00 -0.00000000000E+00 -0.12720784751E+04  0.12720784751E+04  0.00000000000E+00 0. -1.
         25    2    1    2    0    0  0.73953083381E+02  0.22652832131E+03  0.35582738957E+03  0.44611883020E+03  0.12499896239E+03 0.  0.
          2    1    1    2  501    0 -0.90652412082E+02 -0.16459514027E+03 -0.12150774470E+04  0.12295212980E+04  0.00000000000E+00 0. -1.
          1    1    1    2  502    0  0.16699328700E+02 -0.61933181037E+02  0.21737433248E+03  0.22664109714E+03  0.00000000000E+00 0. -1.
         22    1    3    3    0    0  0.77120492920E+02  0.24126470402E+03  0.32738061764E+03  0.41392547233E+03  0.00000000000E+00 0.  1.
         22    1    3    3    0    0 -0.31674095388E+01 -0.14736382706E+02  0.28446771922E+02  0.32193357875E+02  0.00000000000E+00 0.  1.
</event>
<event>
 7    1  0.6146596E-006  0.1120968E+03  0.7818608E-02  0.1295630E+00
          2   -1    0    0  502    0  0.00000000000E+00  0.00000000000E+00  0.49315780227E+03  0.49315780227E+03  0.00000000000E+00 0. -1.
          1   -1    0    0  501    0 -0.00000000000E+00 -0.00000000000E+00 -0.19001900120E+03  0.19001900120E+03  0.00000000000E+00 0. -1.
         25    2    1    2    0    0 -0.12652840127E+03 -0.27540266179E+02 -0.43806956448E+02  0.18523443484E+03  0.12499937531E+03 0.  0.
          2    1    1    2  501    0  0.10105006910E+03 -0.45375372562E+02 -0.28708288196E+02  0.11442992052E+03  0.00000000000E+00 0. -1.
          1    1    1    2  502    0  0.25478332173E+02  0.72915638741E+02  0.37565404572E+03  0.38351244810E+03  0.00000000000E+00 0. -1.
         22    1    3    3    0    0 -0.21585338869E+02 -0.49858331273E+02 -0.55064396574E+02  0.77355464070E+02  0.00000000000E+00 0.  1.
         22    1    3    3    0    0 -0.10494306240E+03  0.22318065094E+02  0.11257440126E+02  0.10787897077E+03  0.00000000000E+00 0.  1.
</event>
<event>
 7    1  0.6146596E-006  0.1411968E+03  0.7818608E-02  0.1218666E+00
          2   -1    0    0  502    0  0.00000000000E+00  0.00000000000E+00  0.53847083989E+03  0.53847083989E+03  0.00000000000E+00 0. -1.
          1   -1    0    0  501    0 -0.00000000000E+00 -0.00000000000E+00 -0.16555290852E+04  0.16555290852E+04  0.00000000000E+00 0. -1.
         25    2    1    2    0    0  0.12134810548E+03  0.10583431309E+03  0.29130452434E+02  0.20590878938E+03  0.12499432688E+03 0.  0.
          2    1    1    2  501    0  0.22490524118E+02 -0.12925709335E+03 -0.15516748206E+04  0.15572116005E+04  0.00000000000E+00 0. -1.
          1    1    1    2  502    0 -0.14383862960E+03  0.23422780260E+02  0.40548612288E+03  0.43087953519E+03  0.00000000000E+00 0. -1.
         22    1    3    3    0    0  0.13631236093E+03  0.51064616942E+02  0.32075287367E+02  0.14905528808E+03  0.00000000000E+00 0. -1.
         22    1    3    3    0    0 -0.14964255443E+02  0.54769696150E+02 -0.29448349330E+01  0.56853501300E+02  0.00000000000E+00 0. -1.
</event>
<event>
 7    1  0.6146596E-006  0.9152536E+02  0.7818608E-02  0.1315817E+00
          2   -1    0    0  502    0  0.00000000000E+00  0.00000000000E+00  0.62880914252E+03  0.62880914252E+03  0.00000000000E+00 0. -1.
          1   -1    0    0  501    0 -0.00000000000E+00 -0.00000000000E+00 -0.15297115391E+04  0.15297115391E+04  0.00000000000E+00 0. -1.
         25    2    1    2    0    0  0.11480723946E+02  0.90939087847E+02 -0.35047980815E+03  0.38322630994E+03  0.12499833592E+03 0.  0.
          2    1    1    2  501    0  0.66374188605E+02 -0.42226296924E+02 -0.11580735911E+04  0.11607424501E+04  0.00000000000E+00 0. -1.
          1    1    1    2  502    0 -0.77854912551E+02 -0.48712790923E+02  0.60765100262E+03  0.61455192164E+03  0.00000000000E+00 0. -1.
         22    1    3    3    0    0 -0.25325259650E+02  0.44766414641E+02 -0.30334119242E+03  0.30767073256E+03  0.00000000000E+00 0.  1.
         22    1    3    3    0    0  0.36805983596E+02  0.46172673205E+02 -0.47138615737E+02  0.75555577378E+02  0.00000000000E+00 0.  1.
</event>
<event>
 7    1  0.6146596E-006  0.1084079E+03  0.7818608E-02  0.1300279E+00
          2   -1    0    0  502    0  0.00000000000E+00  0.00000000000E+00  0.66028020890E+03  0.66028020890E+03  0.00000000000E+00 0. -1.
          1   -1    0    0  501    0 -0.00000000000E+00 -0.00000000000E+00 -0.15466961308E+03  0.15466961308E+03  0.00000000000E+00 0. -1.
         25    2    1    2    0    0 -0.99955863096E+01  0.80831000775E+02  0.16075311745E+03  0.21931474701E+03  0.12499532412E+03 0.  0.
          2    1    1    2  501    0  0.86340931427E+02 -0.75865243916E+02 -0.95036086521E+02  0.14913802136E+03  0.00000000000E+00 0. -1.
          1    1    1    2  502    0 -0.76345345117E+02 -0.49657568586E+01  0.43989356489E+03  0.44649705362E+03  0.00000000000E+00 0. -1.
         22    1    3    3    0    0 -0.35452531641E+02 -0.11651790797E+02  0.68132678989E+01  0.37935034572E+02  0.00000000000E+00 0. -1.
         22    1    3    3    0    0  0.25456945331E+02  0.92482791572E+02  0.15393984955E+03  0.18137971243E+03  0.00000000000E+00 0. -1.
</event>
<event>
 7    1  0.6146596E-006  0.4283637E+02  0.7818608E-02  0.1504555E+00
          2   -1    0    0  502    0  0.00000000000E+00  0.00000000000E+00  0.38283998960E+03  0.38283998960E+03  0.00000000000E+00 0. -1.
          1   -1    0    0  501    0 -0.00000000000E+00 -0.00000000000E+00 -0.25812149011E+03  0.25812149011E+03  0.00000000000E+00 0. -1.
         25    2    1    2    0    0 -0.79172220684E+02  0.85677411006E+01  0.16765420961E+03  0.22377468176E+03  0.12500210991E+03 0.  0.
          2    1    1    2  501    0  0.42418493805E+02  0.21815688095E+01 -0.22610377686E+03  0.23005870071E+03  0.00000000000E+00 0. -1.
          1    1    1    2  502    0  0.36753726880E+02 -0.10749309910E+02  0.18316806674E+03  0.18712809724E+03  0.00000000000E+00 0. -1.
         22    1    3    3    0    0 -0.66621604096E+02 -0.37346776768E+02  0.37290414808E+02  0.84992910903E+02  0.00000000000E+00 0.  1.
         22    1    3    3    0    0 -0.12550616589E+02  0.45914517868E+02  0.13036379480E+03  0.13878177086E+03  0.00000000000E+00 0.  1.
</event>
<event>
 7    1  0.6146596E-006  0.9685516E+02  0.7818608E-02  0.1301041E+00
          2   -1    0    0  502    0  0.00000000000E+00  0.00000000000E+00  0.17102749100E+04  0.17102749100E+04  0.00000000000E+00 0. -1.
          1   -1    0    0  501    0 -0.00000000000E+00 -0.00000000000E+00 -0.73216136545E+03  0.73216136545E+03  0.00000000000E+00 0. -1.
         25    2    1    2    0    0 -0.40159777008E+01  0.32545002507E+02  0.56067795505E+03  0.57537834964E+03  0.12500068278E+03 0.  0.
          2    1    1    2  501    0  0.88724052010E+02 -0.39978299736E+02 -0.71995044344E+03  0.72649766887E+03  0.00000000000E+00 0. -1.
          1    1    1    2  502    0 -0.84708074309E+02  0.74332972287E+01  0.11373860330E+04  0.11405602570E+04  0.00000000000E+00 0. -1.
         22    1    3    3    0    0 -0.65192289402E+01 -0.94555934222E+01 -0.15402264079E+01  0.11587963166E+02  0.00000000000E+00 0.  1.
         22    1    3    3    0    0  0.25032512395E+01  0.42000595929E+02  0.56221818146E+03  0.56379038648E+03  0.00000000000E+00 0.  1.
</event>
<event>
 7    1  0.6146596E-006  0.1344640E+03  0.7818608E-02  0.1241503E+00
          2   -1    0    0  502    0  0.00000000000E+00  0.00000000000E+00  0.82106873821E+02  0.82106873821E+02  0.00000000000E+00 0. -1.
          1   -1    0    0  501    0 -0.00000000000E+00 -0.00000000000E+00 -0.38165042687E+04  0.38165042687E+04  0.00000000000E+00 0. -1.
         25    2    1    2    0    0  0.79448637200E+02 -0.41178868151E+01 -0.11454875661E+04  0.11550310833E+04  0.12500398557E+03 0.  0.
          2    1    1    2  501    0 -0.51754265578E+02 -0.12746322596E+03 -0.26045759500E+04  0.26082065212E+04  0.00000000000E+00 0. -1.
          1    1    1    2  502    0 -0.27694371622E+02  0.13158111277E+03  0.15666121136E+02  0.13537353807E+03  0.00000000000E+00 0. -1.
         22    1    3    3    0    0 -0.29061104504E+02  0.19508635570E+02 -0.19947326905E+03  0.20252091182E+03  0.00000000000E+00 0.  1.
         22    1    3    3    0    0  0.10850974170E+03 -0.23626522385E+02 -0.94601429703E+03  0.95251017149E+03  0.00000000000E+00 0.  1.
</event>
<event>
 7    1  0.6146596E-006  0.7479043E+02  0.7818608E-02  0.1473995E+00
          2   -1    0    0  502    0  0.00000000000E+00  0.00000000000E+00  0.11488343114E+04  0.11488343114E+04  0.00000000000E+00 0. -1.
          1   -1    0    0  501    0 -0.00000000000E+00 -0.00000000000E+00 -0.59846934523E+02  0.59846934523E+02  0.00000000000E+00 0. -1.
         25    2    1    2    0    0 -0.60014254542E+02 -0.35732252148E+02  0.26187288546E+03  0.29846487230E+03  0.12500146904E+03 0.  0.
          2    1    1    2  501    0  0.74805219000E+02  0.12973713900E+02 -0.64635374347E+01  0.76196557390E+02  0.00000000000E+00 0. -1.
          1    1    1    2  502    0 -0.14790964458E+02  0.22758538248E+02  0.83357802883E+03  0.83401981621E+03  0.00000000000E+00 0. -1.
         22    1    3    3    0    0  0.17796534561E+02  0.89965507817E+01  0.16578797318E+03  0.16698295308E+03  0.00000000000E+00 0. -1.
         22    1    3    3    0    0 -0.77810789103E+02 -0.44728802930E+02  0.96084912280E+02  0.13148191921E+03  0.00000000000E+00 0. -1.
</event>
<event>
 7    1  0.6146596E-006  0.1129489E+03  0.7818608E-02  0.1343016E+00
          2   -1    0    0  502    0  0.00000000000E+00  0.00000000000E+00  0.51817382026E+03  0.51817382026E+03  0.00000000000E+00 0. -1.
          1   -1    0    0  501    0 -0.00000000000E+00 -0.00000000000E+00 -0.14875186129E+04  0.14875186129E+04  0.00000000000E+00 0. -1.
         25    2    1    2    0    0 -0.64272592756E+02  0.70593563501E+02  0.29679531641E+03  0.33589669520E+03  0.12499885045E+03 0.  0.
          2    1    1    2  501    0  0.10521263103E+03 -0.41595459504E+02 -0.14626315265E+04  0.14670006347E+04  0.00000000000E+00 0. -1.
          1    1    1    2  502    0 -0.40940038273E+02 -0.28998103997E+02  0.19649141744E+03  0.20279510324E+03  0.00000000000E+00 0. -1.
         22    1    3    3    0    0 -0.87255879498E+02  0.35034830838E+02  0.26972149853E+03  0.28564088406E+03  0.00000000000E+00 0.  1.
         22    1    3    3    0    0  0.22983286742E+02  0.35558732663E+02  0.27073817884E+02  0.50255811136E+02  0.00000000000E+00 0.  1.
</event>
<event>
 7    1  0.6146596E-006  0.8448610E+02  0.7818608E-02  0.1424837E+00
          2   -1    0    0  502    0  0.00000000000E+00  0.00000000000E+00  0.31418605390E+03  0.31418605390E+03  0.00000000000E+00 0. -1.
          1   -1    0    0  501    0 -0.00000000000E+00 -0.00000000000E+00 -0.10490679019E+04  0.10490679019E+04  0.00000000000E+00 0. -1.
         25    2    1    2    0    0 -0.36673620921E+02  0.46544461704E+02  0.10542458312E+03  0.17392453700E+03  0.12499624177E+03 0.  0.
          2    1    1    2  501    0 -0.21092661958E+02  0.27336613906E+02 -0.10018990538E+04  0.10024938428E+04  0.00000000000E+00 0. -1.
          1    1    1    2  502    0  0.57766282879E+02 -0.73881075610E+02  0.16159262265E+03  0.18683557602E+03  0.00000000000E+00 0. -1.
         22    1    3    3    0    0  0.34826788916E+01 -0.40491142876E+02  0.18999610472E+02  0.44862533386E+02  0.00000000000E+00 0.  1.
         22    1    3    3    0    0 -0.40156299813E+02  0.87035604580E+02  0.86424972650E+02  0.12906200361E+03  0.00000000000E+00 0.  1.
</event>
<event>
 7    1  0.6146596E-006  0.1268495E+03  0.7818608E-02  0.1371463E+00
          2   -1    0    0  502    0  0.00000000000E+00  0.00000000000E+00  0.28501973905E+03  0.28501973905E+03  0.00000000000E+00 0. -1.
          1   -1    0    0  501    0 -0.00000000000E+00 -0.00000000000E+00 -0.62277595221E+03  0.62277595221E+03  0.00000000000E+00 0. -1.
         25    2    1    2    0    0  0.66643387899E+02  0.98656460246E+02  0.29941474584E+01  0.17267429874E+03  0.12503203680E+03 0.  0.
          2    1    1    2  501    0 -0.39938887582E+02 -0.12149337392E+03 -0.52868332875E+03  0.54393181259E+03  0.00000000000E+00 0. -1.
          1    1    1    2  502    0 -0.26704500317E+02  0.22836913678E+02  0.18793296813E+03  0.19118957993E+03  0.00000000000E+00 0. -1.
         22    1    3    3    0    0  0.93636242393E+02  0.10659254764E+03  0.13770237384E+02  0.14254591028E+03  0.00000000000E+00 0.  1.
         22    1    3    3    0    0 -0.26992854494E+02 -0.79360873905E+01 -0.10776089925E+02  0.30128388455E+02  0.00000000000E+00 0.  1.
</event>
<event>
 7    1  0.6146596E-006  0.1004634E+03  0.7818608E-02  0.1411306E+00
          2   -1    0    0  502    0  0.00000000000E+00  0.00000000000E+00  0.26379674248E+04  0.26379674248E+04  0.00000000000E+00 0. -1.
          1   -1    0    0  501    0 -0.00000000000E+00 -0.00000000000E+00 -0.12866197624E+04  0.12866197624E+04  0.00000000000E+00 0. -1.
         25    2    1    2    0    0 -0.74508362173E+02  0.17362850922E+02  0.31402508702E+03  0.34653911193E+03  0.12499854476E+03 0.  0.
          2    1    1    2  501    0  0.89562247390E+02 -0.45861768698E+02 -0.12682574564E+04  0.12722427731E+04  0.00000000000E+00 0. -1.
          1    1    1    2  502    0 -0.15053885217E+02  0.28498917776E+02  0.23055800319E+04  0.23058053021E+04  0.00000000000E+00 0. -1.
         22    1    3    3    0    0 -0.70980248440E+02 -0.44976240522E+02  0.17434966817E+03  0.19354292721E+03  0.00000000000E+00 0.  1.
         22    1    3    3    0    0 -0.35281137331E+01  0.62339091445E+02  0.13967541885E+03  0.15299618472E+03  0.00000000000E+00 0.  1.
</event>
<event>
 7    1  0.6146596E-006  0.6657434E+02  0.7818608E-02  0.1397774E+00
          2   -1    0    0  502    0  0.00000000000E+00  0.00000000000E+00  0.83553112627E+02  0.83553112627E+02  0.00000000000E+00 0. -1.
          1   -1    0    0  501    0 -0.00000000000E+00 -0.00000000000E+00 -0.87443067091E+03  0.87443067091E+03  0.00000000000E+00 0. -1.
         25    2    1    2    0    0 -0.10863058991E+01 -0.57956161348E+02 -0.52015484686E+02  0.14727583181E+03  0.12499785314E+03 0.  0.
          2    1    1    2  501    0 -0.51183420909E+02  0.44005138590E+02 -0.75201034350E+03  0.75503360954E+03  0.00000000000E+00 0. -1.
          1    1    1    2  502    0  0.52269726808E+02  0.13951022758E+02  0.13148269907E+02  0.55674342188E+02  0.00000000000E+00 0. -1.
         22    1    3    3    0    0  0.34002008909E+02  0.60247453480E+01  0.23885221168E+02  0.41987354723E+02  0.00000000000E+00 0. -1.
         22    1    3    3    0    0 -0.35088314809E+02 -0.63980906696E+02 -0.75900705854E+02  0.10528847709E+03  0.00000000000E+00 0. -1.
</event>
<event>
 7    1  0.6146596E-006  0.8337026E+02  0.7818608E-02  0.1419239E+00
          2   -1    0    0  502    0  0.00000000000E+00  0.00000000000E+00  0.28364249942E+03  0.28364249942E+03  0.00000000000E+00 0. -1.
          1   -1    0    0  501    0 -0.00000000000E+00 -0.00000000000E+00 -0.27676769221E+03  0.27676769221E+03  0.00000000000E+00 0. -1.
         25    2    1    2    0    0  0.15300917990E+02  0.49822266700E+02 -0.16282784894E+03  0.21178732505E+03  0.12499834523E+03 0.  0.
          2    1    1    2  501    0  0.28931602097E+02  0.22294214709E+02 -0.78401108804E+02  0.86491638157E+02  0.00000000000E+00 0. -1.
          1    1    1    2  502    0 -0.44232520087E+02 -0.72116481409E+02  0.24810376496E+03  0.26213122841E+03  0.00000000000E+00 0. -1.
         22    1    3    3    0    0  0.20581162848E+01  0.86406238385E+02 -0.14541366747E+03  0.16916089549E+03  0.00000000000E+00 0.  1.
         22    1    3    3    0    0  0.13242801705E+02 -0.36583971685E+02 -0.17414181472E+02  0.42626429567E+02  0.00000000000E+00 0.  1.
</event>
<event>
 7    1  0.6146596E-006  0.9934572E+02  0.7818608E-02  0.1334398E+00
          2   -1    0    0  502    0  0.00000000000E+00  0.00000000000E+00  0.31612693309E+04  0.31612693309E+04  0.00000000000E+00 0. -1.
          1   -1    0    0  501    0 -0.00000000000E+00 -0.00000000000E+00 -0.15534825498E+03  0.15534825498E+03  0.00000000000E+00 0. -1.
         25    2    1    2    0    0  0.84551389279E+01 -0.85122663825E+02  0.74567813774E+03  0.76090636341E+03  0.12500100605E+03 0.  0.
          2    1    1    2  501    0 -0.68669878670E+02  0.72765974909E+02 -0.13035368641E+03  0.16432444402E+03  0.00000000000E+00 0. -1.
          1    1    1    2  502    0  0.60214739743E+02  0.12356688917E+02  0.23905966246E+04  0.23913867784E+04  0.00000000000E+00 0. -1.
         22    1    3    3    0    0 -0.27262065945E+02 -0.67141671650E+02  0.68114075601E+03  0.68498463765E+03  0.00000000000E+00 0. -1.
         22    1    3    3    0    0  0.35717204873E+02 -0.17980992175E+02  0.64537381725E+02  0.75921725767E+02  0.00000000000E+00 0. -1.
</event>
<event>
 7    1  0.6146596E-006  0.6928081E+02  0.7818608E-02  0.1370828E+00
          2   -1    0    0  502    0  0.00000000000E+00  0.00000000000E+00  0.38314817409E+03  0.38314817409E+03  0.00000000000E+00 0. -1.
          1   -1    0    0  501    0 -0.00000000000E+00 -0.00000000000E+00 -0.47482501319E+03  0.47482501319E+03  0.00000000000E+00 0. -1.
         25    2    1    2    0    0 -0.34005492604E+02  0.68267237272E+02 -0.35158005653E+02  0.15058946977E+03  0.12499725530E+03 0.  0.
          2    1    1    2  501    0  0.69085108041E+02 -0.13933871424E+02 -0.37542651896E+03  0.38198426154E+03  0.00000000000E+00 0. -1.
          1    1    1    2  502    0 -0.35079615437E+02 -0.54333365849E+02  0.31890768551E+03  0.32539945596E+03  0.00000000000E+00 0. -1.
         22    1    3    3    0    0  0.11458717302E+02  0.93367865754E+02 -0.28122021486E+02  0.98182017957E+02  0.00000000000E+00 0. -1.
         22    1    3    3    0    0 -0.45464209907E+02 -0.25100628482E+02 -0.70359841669E+01  0.52407451816E+02  0.00000000000E+00 0. -1.
</event>
<event>
 7    1  0.6146596E-006  0.7382794E+02  0.7818608E-02  0.1350504E+00
          2   -1    0    0  502    0  0.00000000000E+00  0.00000000000E+00  0.19257239786E+03  0.19257239786E+03  0.00000000000E+00 0. -1.
          1   -1    0    0  501    0 -0.00000000000E+00 -0.00000000000E+00 -0.56205404894E+03  0.56205404894E+03  0.00000000000E+00 0. -1.
         25    2    1    2    0    0 -0.94743250225E+02 -0.32057898686E+02  0.69614505495E+02  0.17456295855E+03  0.12498821860E+03 0.  0.
          2    1    1    2  501    0  0.65718752543E+02 -0.33812664074E+02 -0.48766180527E+03  0.49323046034E+03  0.00000000000E+00 0. -1.
          1    1    1    2  502    0  0.29024497682E+02  0.65870562759E+02  0.48565648689E+02  0.86833027913E+02  0.00000000000E+00 0. -1.
         22    1    3    3    0    0  0.22662965450E+02  0.14959935925E+02  0.33326171258E+02  0.42988875033E+02  0.00000000000E+00 0. -1.
         22    1    3    3    0    0 -0.11740621568E+03 -0.47017834611E+02  0.36288334238E+02  0.13157408351E+03  0.00000000000E+00 0. -1.
</event>
<event>
 7    1  0.6146596E-006  0.1994045E+03  0.7818608E-02  0.1290598E+00
          2   -1    0    0  502    0  0.00000000000E+00  0.00000000000E+00  0.14836783124E+04  0.14836783124E+04  0.00000000000E+00 0. -1.
          1   -1    0    0  501    0 -0.00000000000E+00 -0.00000000000E+00 -0.11045316738E+04  0.11045316738E+04  0.00000000000E+00 0. -1.
         25    2    1    2    0    0 -0.61373769926E+02 -0.23488681308E+03 -0.16025382402E+03  0.31661609091E+03  0.12500362521E+03 0.  0.
          2    1    1    2  501    0  0.35780815388E+01  0.45364003428E+02 -0.85850799334E+03  0.85971313245E+03  0.00000000000E+00 0. -1.
          1    1    1    2  502    0  0.57795688387E+02  0.18952280966E+03  0.13979084560E+04  0.14118807628E+04  0.00000000000E+00 0. -1.
         22    1    3    3    0    0 -0.79267850122E+02 -0.16607739427E+03 -0.59700943342E+02  0.19346652316E+03  0.00000000000E+00 0.  1.
         22    1    3    3    0    0  0.17894080196E+02 -0.68809418819E+02 -0.10055288068E+03  0.12314956775E+03  0.00000000000E+00 0.  1.
</event>
<event>
 7    1  0.6146596E-006  0.2576068E+03  0.7818608E-02  0.1349118E+00
          2   -1    0    0  502    0  0.00000000000E+00  0.00000000000E+00  0.14956791230E+04  0.14956791230E+04  0.00000000000E+00 0. -1.
          1   -1    0    0  501    0 -0.00000000000E+00 -0.00000000000E+00 -0.69270065660E+03  0.69270065660E+03  0.00000000000E+00 0. -1.
         25    2    1    2    0    0  0.20498892938E+03 -0.12368774983E+03  0.41157522309E+02  0.27319989174E+03  0.12500047431E+03 0.  0.
          2    1    1    2  501    0  0.20108845470E+02 -0.56023533320E+01 -0.56389863286E+03  0.56428487501E+03  0.00000000000E+00 0. -1.
          1    1    1    2  502    0 -0.22509777485E+03  0.12929010316E+03  0.13257195769E+04  0.13508950128E+04  0.00000000000E+00 0. -1.
         22    1    3    3    0    0  0.58682645568E+02 -0.34505886233E+02 -0.44808723575E+02  0.81499268610E+02  0.00000000000E+00 0.  1.
         22    1    3    3    0    0  0.14630628381E+03 -0.89181863599E+02  0.85966245883E+02  0.19170062313E+03  0.00000000000E+00 0.  1.
</event>
<event>
 7    1  0.6146596E-006  0.1293315E+03  0.7818608E-02  0.1284084E+00
          2   -1    0    0  502    0  0.00000000000E+00  0.00000000000E+00  0.16992318991E+03  0.16992318991E+03  0.00000000000E+00 0. -1.
          1   -1    0    0  501    0 -0.00000000000E+00 -0.00000000000E+00 -0.10104901826E+04  0.10104901826E+04  0.00000000000E+00 0. -1.
         25    2    1    2    0    0  0.12266518448E+03  0.98288773162E+02 -0.22321080969E+01  0.20084259727E+03  0.12500134463E+03 0.  0.
          2    1    1    2  501    0 -0.46531869564E+01 -0.74447468470E+02 -0.85480487046E+03  0.85805328754E+03  0.00000000000E+00 0. -1.
          1    1    1    2  502    0 -0.11801199752E+03 -0.23841304692E+02  0.16469985909E+02  0.12151748765E+03  0.00000000000E+00 0. -1.
         22    1    3    3    0    0  0.54775962270E+02 -0.21247210191E+02 -0.20366586290E+02  0.62182375482E+02  0.00000000000E+00 0. -1.
         22    1    3    3    0    0  0.67889222208E+02  0.11953598335E+03  0.18134478193E+02  0.13866022179E+03  0.00000000000E+00 0. -1.
</event>
<event>
 7    1  0.6146596E-006  0.3609135E+02  0.7818608E-02  0.1609243E+00
          2   -1    0    0  502    0  0.00000000000E+00  0.00000000000E+00  0.41644479062E+03  0.41644479062E+03  0.00000000000E+00 0. -1.
          1   -1    0    0  501    0 -0.00000000000E+00 -0.00000000000E+00 -0.94241198472E+03  0.94241198472E+03  0.00000000000E+00 0. -1.
         25    2    1    2    0    0 -0.21332385041E+02 -0.48060046408E+02 -0.17156031387E+03  0.21868500545E+03  0.12500140639E+03 0.  0.
          2    1    1    2  501    0  0.19972815328E+02  0.12048420273E+02 -0.74628033979E+03  0.74664477722E+03  0.00000000000E+00 0. -1.
          1    1    1    2  502    0  0.13595697127E+01  0.36011626135E+02  0.39187345957E+03  0.39352699268E+03  0.00000000000E+00 0. -1.
         22    1    3    3    0    0 -0.19543703703E+02 -0.77438578716E+02 -0.51410836793E+02  0.94982966724E+02  0.00000000000E+00 0. -1.
         22    1    3    3    0    0 -0.17886813377E+01  0.29378532308E+02 -0.12014947708E+03  0.12370203872E+03  0.00000000000E+00 0. -1.
</event>
<event>
 7    1  0.6772275E-006  0.1284930E+03  0.7818608E-02  0.1302845E+00
          2   -1    0    0  502    0  0.00000000000E+00  0.00000000000E+00  0.22367532407E+04  0.22367532407E+04  0.00000000000E+00 0. -1.
          1   -1    0    0  501    0 -0.00000000000E+00 -0.00000000000E+00 -0.13995189392E+04  0.13995189392E+04  0.00000000000E+00 0. -1.
         25    2    1    2    0    0  0.15521037214E+03 -0.73662673607E+02 -0.28226036063E+03  0.35328989422E+03  0.12500555618E+03 0.  0.
          2    1    1    2  501    0 -0.92899302965E+02  0.83236618773E+02 -0.10776944697E+04  0.10848889276E+04  0.00000000000E+00 0. -1.
          1    1    1    2  502    0 -0.62311069177E+02 -0.95739451658E+01  0.21971891318E+04  0.21980933580E+04  0.00000000000E+00 0. -1.
         22    1    3    3    0    0  0.55479418449E+01 -0.31571654033E+02 -0.11781755972E+01  0.32077049347E+02  0.00000000000E+00 0. -1.
         22    1    3    3    0    0  0.14966243030E+03 -0.42091019575E+02 -0.28108218503E+03  0.32121284488E+03  0.00000000000E+00 0. -1.
</event>
<event>
 7    1  0.6146596E-006  0.1844130E+03  0.7818608E-02  0.1351350E+00
          2   -1    0    0  502    0  0.00000000000E+00  0.00000000000E+00  0.24896451802E+03  0.24896451802E+03  0.00000000000E+00 0. -1.
          1   -1    0    0  501    0 -0.00000000000E+00 -0.00000000000E+00 -0.49531519950E+03  0.49531519950E+03  0.00000000000E+00 0. -1.
         25    2    1    2    0    0 -0.14227506665E+03 -0.72237053168E+02 -0.25022833423E+03  0.32202302822E+03  0.12499690001E+03 0.  0.
          2    1    1    2  501    0 -0.24012869791E+02 -0.15553691275E+02 -0.16624027257E+03  0.16868421222E+03  0.00000000000E+00 0. -1.
          1    1    1    2  502    0  0.16628793644E+03  0.87790744444E+02  0.17011792532E+03  0.25357247708E+03  0.00000000000E+00 0. -1.
         22    1    3    3    0    0 -0.73312406959E+02 -0.79875808095E+02 -0.70394106890E+02  0.12926787698E+03  0.00000000000E+00 0.  1.
         22    1    3    3    0    0 -0.68962659690E+02  0.76387549267E+01 -0.17983422734E+03  0.19275515125E+03  0.00000000000E+00 0.  1.
</event>
<event>
 7    1  0.6146596E-006  0.9366791E+02  0.7818608E-02  0.1464619E+00
          2   -1    0    0  502    0  0.00000000000E+00  0.00000000000E+00  0.20226809693E+03  0.20226809693E+03  0.00000000000E+00 0. -1.
          1   -1    0    0  501    0 -0.00000000000E+00 -0.00000000000E+00 -0.24763757092E+04  0.24763757092E+04  0.00000000000E+00 0. -1.
         25    2    1    2    0    0  0.46205764051E+02 -0.55944352997E+02  0.38713402537E+02  0.14962383565E+03  0.12499528548E+03 0.  0.
          2    1    1    2  501    0 -0.67387324978E+02  0.65358244726E+02 -0.24187568452E+04  0.24205779120E+04  0.00000000000E+00 0. -1.
          1    1    1    2  502    0  0.21181560927E+02 -0.94138917295E+01  0.10593583042E+03  0.10844205848E+03  0.00000000000E+00 0. -1.
         22    1    3    3    0    0  0.20685594799E+02  0.35857582113E+02 -0.10033797798E+02  0.42595036394E+02  0.00000000000E+00 0. -1.
         22    1    3    3    0    0  0.25520169252E+02 -0.91801935110E+02  0.48747200335E+02  0.10702879925E+03  0.00000000000E+00 0. -1.
</event>
<event>
 7    1  0.6146596E-006  0.1117223E+03  0.7818608E-02  0.1334985E+00
          2   -1    0    0  502    0  0.00000000000E+00  0.00000000000E+00  0.11928084644E+04  0.11928084644E+04  0.00000000000E+00 0. -1.
          1   -1    0    0  501    0 -0.00000000000E+00 -0.00000000000E+00 -0.49746211006E+02  0.49746211006E+02  0.00000000000E+00 0. -1.
         25    2    1    2    0    0  0.84949359879E+02  0.11072223993E+03  0.59080927677E+03  0.61980399494E+03  0.12500232988E+03 0.  0.
          2    1    1    2  501    0  0.28379707011E+01 -0.54306154723E+02 -0.61079789607E+01  0.54722206877E+02  0.00000000000E+00 0. -1.
          1    1    1    2  502    0 -0.87787330581E+02 -0.56416085206E+02  0.55836095561E+03  0.56802847361E+03  0.00000000000E+00 0. -1.
         22    1    3    3    0    0 -0.21480461299E+02  0.59578804768E+02  0.28586059874E+03  0.29279229175E+03  0.00000000000E+00 0. -1.
         22    1    3    3    0    0  0.10642982118E+03  0.51143435160E+02  0.30494867803E+03  0.32701170319E+03  0.00000000000E+00 0. -1.
</event>
<event>
 7    1  0.6146596E-006  0.9583460E+02  0.7818608E-02  0.1451742E+00
          2   -1    0    0  502    0  0.00000000000E+00  0.00000000000E+00  0.11918317645E+04  0.11918317645E+04  0.00000000000E+00 0. -1.
          1   -1    0    0  501    0 -0.00000000000E+00 -0.00000000000E+00 -0.69823040241E+03  0.69823040241E+03  0.00000000000E+00 0. -1.
         25    2    1    2    0    0  0.79883379742E+02  0.78747721083E+02  0.14096629634E+03  0.21926602258E+03  0.12499413594E+03 0.  0.
          2    1    1    2  501    0 -0.55008325615E+02 -0.78132440407E+02 -0.65546282911E+03  0.66239120954E+03  0.00000000000E+00 0. -1.
          1    1    1    2  502    0 -0.24875054127E+02 -0.61528067550E+00  0.10080978948E+04  0.10084049348E+04  0.00000000000E+00 0. -1.
         22    1    3    3    0    0  0.30235106250E+02  0.24174765133E+02 -0.18987454682E+02  0.43117332414E+02  0.00000000000E+00 0. -1.
         22    1    3    3    0    0  0.49648273492E+02  0.54572955949E+02  0.15995375102E+03  0.17614869017E+03  0.00000000000E+00 0. -1.
</event>
<event>
 7    1  0.6146596E-006  0.4853291E+02  0.7818608E-02  0.1517664E+00
          2   -1    0    0  502    0  0.00000000000E+00  0.00000000000E+00  0.24560812715E+03  0.24560812715E+03  0.00000000000E+00 0. -1.
          1   -1    0    0  501    0 -0.00000000000E+00 -0.00000000000E+00 -0.13932012417E+04  0.13932012417E+04  0.00000000000E+00 0. -1.
         25    2    1    2    0    0  0.14274778568E+02  0.36987084921E+02 -0.13321406842E+03  0.18693096941E+03  0.12500154217E+03 0.  0.
          2    1    1    2  501    0 -0.29457459311E+02  0.94275026020E+01 -0.12302064059E+04  0.12305951490E+04  0.00000000000E+00 0. -1.
          1    1    1    2  502    0  0.15182680743E+02 -0.46414587523E+02  0.21582735972E+03  0.22128325046E+03  0.00000000000E+00 0. -1.
         22    1    3    3    0    0  0.94385307043E+01 -0.45379769751E+02 -0.65235674388E+02  0.80025637001E+02  0.00000000000E+00 0.  1.
         22    1    3    3    0    0  0.48362478635E+01  0.82366854672E+02 -0.67978394035E+02  0.10690533241E+03  0.00000000000E+00 0.  1.
</event>
<event>
 7    1  0.6146596E-006  0.6778881E+02  0.7818608E-02  0.1373654E+00
          2   -1    0    0  502    0  0.00000000000E+00  0.00000000000E+00  0.56330099473E+03  0.56330099473E+03  0.00000000000E+00 0. -1.
          1   -1    0    0  501    0 -0.00000000000E+00 -0.00000000000E+00 -0.12512569767E+03  0.12512569767E+03  0.00000000000E+00 0. -1.
         25    2    1    2    0    0 -0.46201631614E+02  0.42217357205E+02  0.29690758822E+03  0.32816495506E+03  0.12498490217E+03 0.  0.
          2    1    1    2  501    0 -0.13096276617E+02 -0.67781289233E+02 -0.93811509756E+02  0.11647495436E+03  0.00000000000E+00 0. -1.
          1    1    1    2  502    0  0.59297908231E+02  0.25563932027E+02  0.23507921859E+03  0.24378678298E+03  0.00000000000E+00 0. -1.
         22    1    3    3    0    0  0.39006959975E+02  0.32755374752E+02  0.78980402722E+02  0.93980644368E+02  0.00000000000E+00 0.  1.
         22    1    3    3    0    0 -0.85208591590E+02  0.94619824538E+01  0.21792718550E+03  0.23418431069E+03  0.00000000000E+00 0.  1.
</event>
<event>
 7    1  0.6146596E-006  0.1052845E+03  0.7818608E-02  0.1406987E+00
          2   -1    0    0  502    0  0.00000000000E+00  0.00000000000E+00  0.26611964062E+04  0.26611964062E+04  0.00000000000E+00 0. -1.
          1   -1    0    0  501    0 -0.00000000000E+00 -0.00000000000E+00 -0.25149924964E+03  0.25149924964E+03  0.00000000000E+00 0. -1.
         25    2    1    2    0    0 -0.10052637712E+02  0.12372346614E+03  0.10311161994E+04  0.10460554769E+04  0.12499156922E+03 0.  0.
          2    1    1    2  501    0  0.31540940468E+02 -0.10026840274E+03 -0.23254642759E+03  0.25519879408E+03  0.00000000000E+00 0. -1.
          1    1    1    2  502    0 -0.21488302757E+02 -0.23455063405E+02  0.16111273847E+04  0.16114413848E+04  0.00000000000E+00 0. -1.
         22    1    3    3    0    0 -0.26467788609E+02  0.77507885926E+01  0.55711011264E+03  0.55779234143E+03  0.00000000000E+00 0.  1.
         22    1    3    3    0    0  0.16415150897E+02  0.11597267755E+03  0.47400608679E+03  0.48826313544E+03  0.00000000000E+00 0.  1.
</event>
<event>
 7    1  0.6146596E-006  0.1234465E+03  0.7818608E-02  0.1324334E+00
          2   -1    0    0  502    0  0.00000000000E+00  0.00000000000E+00  0.44839096469E+03  0.44839096469E+03  0.00000000000E+00 0. -1.
          1   -1    0    0  501    0 -0.00000000000E+00 -0.00000000000E+00 -0.49904790422E+03  0.49904790422E+03  0.00000000000E+00 0. -1.
         25    2    1    2    0    0 -0.17293433618E+03  0.28668300762E+02  0.14173630582E+03  0.25776445221E+03  0.12500070534E+03 0.  0.
          2    1    1    2  501    0  0.11939836927E+03 -0.21213163642E+02 -0.42959959838E+03  0.44638748171E+03  0.00000000000E+00 0. -1.
          1    1    1    2  502    0  0.53535966913E+02 -0.74551371198E+01  0.23720635302E+03  0.24328693499E+03  0.00000000000E+00 0. -1.
         22    1    3    3    0    0 -0.18204695164E+03 -0.31855586532E+01  0.11715725554E+03  0.21651111498E+03  0.00000000000E+00 0.  1.
         22    1    3    3    0    0  0.91126154516E+01  0.31853859415E+02  0.24579050286E+02  0.41253337234E+02  0.00000000000E+00 0.  1.
</event>
<event>
 7    1  0.6146596E-006  0.6718350E+02  0.7818608E-02  0.1463323E+00
          2   -1    0    0  502    0  0.00000000000E+00  0.00000000000E+00  0.50850262880E+03  0.50850262880E+03  0.00000000000E+00 0. -1.
          1   -1    0    0  501    0 -0.00000000000E+00 -0.00000000000E+00 -0.34255742508E+03  0.34255742508E+03  0.00000000000E+00 0. -1.
         25    2    1    2    0    0 -0.25439737279E+02 -0.35082442539E+02  0.35947323009E+02  0.13709591029E+03  0.12500048231E+03 0.  0.
          2    1    1    2  501    0 -0.32579226994E+02 -0.16482625001E+01 -0.28826351405E+03  0.29010338904E+03  0.00000000000E+00 0. -1.
          1    1    1    2  502    0  0.58018964274E+02  0.36730705039E+02  0.41826139476E+03  0.42386075456E+03  0.00000000000E+00 0. -1.
         22    1    3    3    0    0  0.40511505311E+02  0.13263148548E+02 -0.93128865478E+01  0.43632820535E+02  0.00000000000E+00 0. -1.
         22    1    3    3    0    0 -0.65951242590E+02 -0.48345591087E+02  0.45260209556E+02  0.93463089751E+02  0.00000000000E+00 0. -1.
</event>
<event>
 7    1  0.6146596E-006  0.8202977E+02  0.7818608E-02  0.1401050E+00
          2   -1    0    0  502    0  0.00000000000E+00  0.00000000000E+00  0.16837860056E+04  0.16837860056E+04  0.00000000000E+00 0. -1.
          1   -1    0    0  501    0 -0.00000000000E+00 -0.00000000000E+00 -0.59363414623E+02  0.59363414623E+02  0.00000000000E+00 0. -1.
         25    2    1    2    0    0  0.16376550090E+01 -0.50718968276E+02  0.11371374574E+03  0.17643755158E+03  0.12499719188E+03 0.  0.
          2    1    1    2  501    0  0.35494349809E+02 -0.23882960399E+02 -0.98259829674E+01  0.43895268618E+02  0.00000000000E+00 0. -1.
          1    1    1    2  502    0 -0.37132004818E+02  0.74601928674E+02  0.15205348282E+04  0.15228166000E+04  0.00000000000E+00 0. -1.
         22    1    3    3    0    0 -0.18491507199E+02  0.17177083545E+02  0.10148018845E+03  0.10457158642E+03  0.00000000000E+00 0.  1.
         22    1    3    3    0    0  0.20129162208E+02 -0.67896051820E+02  0.12233557286E+02  0.71865965157E+02  0.00000000000E+00 0.  1.
</event>
<event>
 7    1  0.6146596E-006  0.1806695E+03  0.7818608E-02  0.1183576E+00
          2   -1    0    0  502    0  0.00000000000E+00  0.00000000000E+00  0.11981724308E+04  0.11981724308E+04  0.00000000000E+00 0. -1.
          1   -1    0    0  501    0 -0.00000000000E+00 -0.00000000000E+00 -0.16731946639E+04  0.16731946639E+04  0.00000000000E+00 0. -1.
         25    2    1    2    0    0  0.70252360401E+02  0.38248854277E+02 -0.44857086126E+03  0.47248209684E+03  0.12500058107E+03 0.  0.
          2    1    1    2  501    0  0.95088385567E+02 -0.11600695504E+03 -0.12009390264E+04  0.12102702011E+04  0.00000000000E+00 0. -1.
          1    1    1    2  502    0 -0.16534074597E+03  0.77758100763E+02  0.11744876545E+04  0.11886147968E+04  0.00000000000E+00 0. -1.
         22    1    3    3    0    0  0.22024731586E+01  0.27300469053E+02 -0.10999143799E+02  0.29515210703E+02  0.00000000000E+00 0.  1.
         22    1    3    3    0    0  0.68049887243E+02  0.10948385224E+02 -0.43757171746E+03  0.44296688614E+03  0.00000000000E+00 0.  1.
</event>
<event>
 7    1  0.6146596E-006  0.2604273E+03  0.7818608E-02  0.1229817E+00
          2   -1    0    0  502    0  0.00000000000E+00  0.00000000000E+00  0.88552316346E+03  0.88552316346E+03  0.00000000000E+00 0. -1.
          1   -1    0    0  501    0 -0.00000000000E+00 -0.00000000000E+00 -0.21434570957E+04  0.21434570957E+04  0.00000000000E+00 0. -1.
         25    2    1    2    0    0  0.29859273347E+03  0.35893356819E+02 -0.61835449896E+03  0.69887853234E+03  0.12499185186E+03 0.  0.
          2    1    1    2  501    0 -0.24202427090E+03 -0.64358767025E+02 -0.14730712241E+04  0.14942076930E+04  0.00000000000E+00 0. -1.
          1    1    1    2  502    0 -0.56568462572E+02  0.28465410207E+02  0.83349179077E+03  0.83589403385E+03  0.00000000000E+00 0. -1.
         22    1    3    3    0    0  0.22025800581E+02  0.27146223650E+02 -0.21599133949E+02  0.41092285615E+02  0.00000000000E+00 0.  1.
         22    1    3    3    0    0  0.27656693289E+03  0.87471331684E+01 -0.59675536501E+03  0.65778624672E+03  0.00000000000E+00 0.  1.
</event>
<event>
 7    1  0.6146596E-006  0.6141587E+02  0.7818608E-02  0.1408271E+00
          2   -1    0    0  502    0  0.00000000000E+00  0.00000000000E+00  0.86905700268E+03  0.86905700268E+03  0.00000000000E+00 0. -1.
          1   -1    0    0  501    0 -0.00000000000E+00 -0.00000000000E+00 -0.79710882771E+03  0.79710882771E+03  0.00000000000E+00 0. -1.
         25    2    1    2    0    0 -0.21772571898E+02  0.11192273617E+03 -0.59728826340E+01  0.16929362082E+03  0.12499564378E+03 0.  0.
          2    1    1    2  501    0  0.16376406682E+02 -0.51442826488E+02 -0.70727472592E+03  0.70933214295E+03  0.00000000000E+00 0. -1.
          1    1    1    2  502    0  0.53961652159E+01 -0.60479909682E+02  0.78519578352E+03  0.78754006662E+03  0.00000000000E+00 0. -1.
         22    1    3    3    0    0 -0.31959710342E+02 -0.19616714521E-01  0.37056004404E+02  0.48934353294E+02  0.00000000000E+00 0.  1.
         22    1    3    3    0    0  0.10187138444E+02  0.11194235289E+03 -0.43028887038E+02  0.12035926752E+03  0.00000000000E+00 0.  1.
</event>
<event>
 7    1  0.1649628E-005  0.5677383E+02  0.7818608E-02  0.1449860E+00
          2   -1    0    0  502    0  0.00000000000E+00  0.00000000000E+00  0.11615851884E+04  0.11615851884E+04  0.00000000000E+00 0. -1.
          1   -1    0    0  501    0 -0.00000000000E+00 -0.00000000000E+00 -0.19986271051E+04  0.19986271051E+04  0.00000000000E+00 0. -1.
         25    2    1    2    0    0 -0.55381540736E+01  0.24717943393E+02 -0.50956020125E+03  0.52527666795E+03  0.12498932479E+03 0.  0.
          2    1    1    2  501    0  0.46084125875E+02 -0.37746712982E+02 -0.14802163630E+04  0.14814145410E+04  0.00000000000E+00 0. -1.
          1    1    1    2  502    0 -0.40545971802E+02  0.13028769589E+02  0.11527346475E+04  0.11535210845E+04  0.00000000000E+00 0. -1.
         22    1    3    3    0    0 -0.37873568107E+02  0.55284253505E+01 -0.44487828884E+02  0.58686775060E+02  0.00000000000E+00 0.  1.
         22    1    3    3    0    0  0.32335414034E+02  0.19189518042E+02 -0.46507237237E+03  0.46658989289E+03  0.00000000000E+00 0.  1.
</event>
<event>
 7    1  0.6146596E-006  0.4038074E+02  0.7818608E-02  0.1596452E+00
          2   -1    0    0  502    0  0.00000000000E+00  0.00000000000E+00  0.11031690740E+04  0.11031690740E+04  0.00000000000E+00 0. -1.
          1   -1    0    0  501    0 -0.00000000000E+00 -0.00000000000E+00 -0.32390150772E+03  0.32390150772E+03  0.00000000000E+00 0. -1.
         25    2    1    2    0    0  0.49538786245E+02  0.16007072911E+02  0.83473364560E+03  0.84564839743E+03  0.12502253902E+03 0.  0.
          2    1    1    2  501    0 -0.40125101348E+02  0.44390889538E+01 -0.31667871993E+03  0.31924150878E+03  0.00000000000E+00 0. -1.
          1    1    1    2  502    0 -0.94136848976E+01 -0.20446161865E+02  0.26121264059E+03  0.26218067549E+03  0.00000000000E+00 0. -1.
         22    1    3    3    0    0  0.41689427006E+02  0.65396554856E+02  0.63635098071E+03  0.64105950455E+03  0.00000000000E+00 0.  1.
         22    1    3    3    0    0  0.78493592398E+01 -0.49389481945E+02  0.19838266488E+03  0.20458889289E+03  0.00000000000E+00 0.  1.
</event>
<event>
 7    1  0.6146596E-006  0.5838233E+02  0.7818608E-02  0.1421544E+00
          2   -1    0    0  502    0  0.00000000000E+00  0.00000000000E+00  0.17348414848E+03  0.17348414848E+03  0.00000000000E+00 0. -1.
          1   -1    0    0  501    0 -0.00000000000E+00 -0.00000000000E+00 -0.20690017135E+03  0.20690017135E+03  0.00000000000E+00 0. -1.
         25    2    1    2    0    0 -0.19340722357E+02 -0.89405966380E+02 -0.49687617076E+02  0.16266845480E+03  0.12499870611E+03 0.  0.
          2    1    1    2  501    0  0.36582186626E+02  0.41152061117E+02 -0.86695707190E+02  0.10270294133E+03  0.00000000000E+00 0. -1.
          1    1    1    2  502    0 -0.17241464269E+02  0.48253905264E+02  0.10296730139E+03  0.11501292371E+03  0.00000000000E+00 0. -1.
         22    1    3    3    0    0 -0.66054710910E+02 -0.82512085845E+02 -0.22102211247E+02  0.10798137287E+03  0.00000000000E+00 0.  1.
         22    1    3    3    0    0  0.46713988553E+02 -0.68938805352E+01 -0.27585405828E+02  0.54687081930E+02  0.00000000000E+00 0.  1.
</event>
<event>
 7    1  0.6146596E-006  0.7816229E+02  0.7818608E-02  0.1413242E+00
          2   -1    0    0  502    0  0.00000000000E+00  0.00000000000E+00  0.12305286878E+03  0.12305286878E+03  0.00000000000E+00 0. -1.
          1   -1    0    0  501    0 -0.00000000000E+00 -0.00000000000E+00 -0.77292493726E+03  0.77292493726E+03  0.00000000000E+00 0. -1.
         25    2    1    2    0    0 -0.56231128972E+02  0.89497292634E+02 -0.12235003076E+03  0.20436863038E+03  0.12500120720E+03 0.  0.
          2    1    1    2  501    0  0.37457078351E+02 -0.16193387069E+02 -0.59126365255E+03  0.59267019946E+03  0.00000000000E+00 0. -1.
          1    1    1    2  502    0  0.18774050621E+02 -0.73303905565E+02  0.63741614840E+02  0.98938976193E+02  0.00000000000E+00 0. -1.
         22    1    3    3    0    0 -0.75763292273E+01  0.92881372757E+02 -0.12454133947E+03  0.15554708421E+03  0.00000000000E+00 0. -1.
         22    1    3    3    0    0 -0.48654799745E+02 -0.33840801236E+01  0.21913087095E+01  0.48821546169E+02  0.00000000000E+00 0. -1.
</event>
<event>
 7    1  0.6146596E-006  0.8706859E+02  0.7818608E-02  0.1315540E+00
          2   -1    0    0  502    0  0.00000000000E+00  0.00000000000E+00  0.20895934146E+04  0.20895934146E+04  0.00000000000E+00 0. -1.
          1   -1    0    0  501    0 -0.00000000000E+00 -0.00000000000E+00 -0.26032286813E+03  0.26032286813E+03  0.00000000000E+00 0. -1.
         25    2    1    2    0    0 -0.38385573721E+02 -0.58505878656E+02 -0.45700753808E+01  0.14333416032E+03  0.12500962290E+03 0.  0.
          2    1    1    2  501    0 -0.48983958005E+02  0.66880384150E+02 -0.17614668835E+03  0.19467940246E+03  0.00000000000E+00 0. -1.
          1    1    1    2  502    0  0.87369531726E+02 -0.83745054944E+01  0.20099873102E+04  0.20119027200E+04  0.00000000000E+00 0. -1.
         22    1    3    3    0    0  0.27211022295E+02 -0.51222219492E+02 -0.38010021053E+02  0.69346356822E+02  0.00000000000E+00 0.  1.
         22    1    3    3    0    0 -0.65596596016E+02 -0.72836591638E+01  0.33439945672E+02  0.73987803497E+02  0.00000000000E+00 0.  1.
</event>
<event>
 7    1  0.6146596E-006  0.1239172E+03  0.7818608E-02  0.1275254E+00
          2   -1    0    0  502    0  0.00000000000E+00  0.00000000000E+00  0.17177426316E+04  0.17177426316E+04  0.00000000000E+00 0. -1.
          1   -1    0    0  501    0 -0.00000000000E+00 -0.00000000000E+00 -0.80607864745E+02  0.80607864745E+02  0.00000000000E+00 0. -1.
         25    2    1    2    0    0 -0.92391888591E+02 -0.32257044145E+02  0.53465258848E+03  0.55772341351E+03  0.12500095054E+03 0.  0.
          2    1    1    2  501    0  0.14715621875E+02 -0.83391334835E+02 -0.37179345679E+02  0.92482257746E+02  0.00000000000E+00 0. -1.
          1    1    1    2  502    0  0.77676266716E+02  0.11564837898E+03  0.11396615241E+04  0.11481448251E+04  0.00000000000E+00 0. -1.
         22    1    3    3    0    0 -0.99652088113E+02 -0.28941989964E+02  0.22292579891E+03  0.24589446775E+03  0.00000000000E+00 0.  1.
         22    1    3    3    0    0  0.72601995214E+01 -0.33150541807E+01  0.31172678957E+03  0.31182894577E+03  0.00000000000E+00 0.  1.
</event>
<event>
 7    1  0.8225788E-006  0.5161597E+02  0.7818608E-02  0.1501379E+00
          2   -1    0    0  502    0  0.00000000000E+00  0.00000000000E+00  0.18572001812E+04  0.18572001812E+04  0.00000000000E+00 0. -1.
          1   -1    0    0  501    0 -0.00000000000E+00 -0.00000000000E+00 -0.10763162995E+04  0.10763162995E+04  0.00000000000E+00 0. -1.
         25    2    1    2    0    0  0.14808751045E+02 -0.37065471567E+02 -0.54036236572E+02  0.14191174212E+03  0.12500351754E+03 0.  0.
          2    1    1    2  501    0  0.30271374091E+02  0.11767825560E+02 -0.97770418385E+03  0.97824348141E+03  0.00000000000E+00 0. -1.
          1    1    1    2  502    0 -0.45080125136E+02  0.25297646007E+02  0.18126243021E+04  0.18133612572E+04  0.00000000000E+00 0. -1.
         22    1    3    3    0    0  0.55812470348E+02 -0.54947986013E+02 -0.57322554239E+02  0.97057654194E+02  0.00000000000E+00 0.  1.
         22    1    3    3    0    0 -0.41003719303E+02  0.17882514446E+02  0.32863176665E+01  0.44854087923E+02  0.00000000000E+00 0.  1.
</event>
<event>
 7    1  0.6146596E-006  0.7920210E+02  0.7818608E-02  0.1458626E+00
          2   -1    0    0  502    0  0.00000000000E+00  0.00000000000E+00  0.70128803135E+03  0.70128803135E+03  0.00000000000E+00 0. -1.
          1   -1    0    0  501    0 -0.00000000000E+00 -0.00000000000E+00 -0.89427958772E+03  0.89427958772E+03  0.00000000000E+00 0. -1.
         25    2    1    2    0    0  0.64000942040E+02  0.64534488990E+02 -0.52774302190E+00  0.15454710911E+03  0.12499483817E+03 0.  0.
          2    1    1    2  501    0 -0.70053185658E+02 -0.36551743289E+02 -0.81450104575E+03  0.81832477189E+03  0.00000000000E+00 0. -1.
          1    1    1    2  502    0  0.60522436176E+01 -0.27982745701E+02  0.62203723241E+03  0.62269573807E+03  0.00000000000E+00 0. -1.
         22    1    3    3    0    0 -0.14983236025E+01  0.10192421953E+02  0.53009548076E+02  0.54001320596E+02  0.00000000000E+00 0.  1.
         22    1    3    3    0    0  0.65499265643E+02  0.54342067037E+02 -0.53537291097E+02  0.10054578851E+03  0.00000000000E+00 0.  1.
</event>
<event>
 7    1  0.6146596E-006  0.2880887E+02  0.7818608E-02  0.1641225E+00
          2   -1    0    0  502    0  0.00000000000E+00  0.00000000000E+00  0.21156764501E+03  0.21156764501E+03  0.00000000000E+00 0. -1.
          1   -1    0    0  501    0 -0.00000000000E+00 -0.00000000000E+00 -0.45230976050E+02  0.45230976050E+02  0.00000000000E+00 0. -1.
         25    2    1    2    0    0  0.82230265583E+01  0.21953849939E+02  0.11583962834E+03  0.17202573253E+03  0.12499777384E+03 0.  0.
          2    1    1    2  501    0 -0.28892120149E+02 -0.92630429179E+01  0.18287458008E+01  0.30395770791E+02  0.00000000000E+00 0. -1.
          1    1    1    2  502    0  0.20669093590E+02 -0.12690807021E+02  0.48668294819E+02  0.54377117736E+02  0.00000000000E+00 0. -1.
         22    1    3    3    0    0  0.52315807029E+02  0.10006878479E+02  0.11454637450E+03  0.12632479247E+03  0.00000000000E+00 0. -1.
         22    1    3    3    0    0 -0.44092780470E+02  0.11946971459E+02  0.12932538367E+01  0.45700940058E+02  0.00000000000E+00 0. -1.
</event>
<event>
 7    1  0.6146596E-006  0.4821220E+02  0.7818608E-02  0.1492739E+00
          2   -1    0    0  502    0  0.00000000000E+00  0.00000000000E+00  0.19121385341E+04  0.19121385341E+04  0.00000000000E+00 0. -1.
          1   -1    0    0  501    0 -0.00000000000E+00 -0.00000000000E+00 -0.78604031429E+03  0.78604031429E+03  0.00000000000E+00 0. -1.
         25    2    1    2    0    0  0.43020825896E+02 -0.40665352473E+02  0.64342767991E+02  0.15254393051E+03  0.12500078636E+03 0.  0.
          2    1    1    2  501    0 -0.48050254251E+02  0.41029409332E+01 -0.74096701554E+03  0.74253469897E+03  0.00000000000E+00 0. -1.
          1    1    1    2  502    0  0.50294283554E+01  0.36562411540E+02  0.18027224673E+04  0.18031002189E+04  0.00000000000E+00 0. -1.
         22    1    3    3    0    0 -0.23089111300E+02  0.20841022329E+02  0.53114228941E+02  0.61551414186E+02  0.00000000000E+00 0. -1.
         22    1    3    3    0    0  0.66109937196E+02 -0.61506374802E+02  0.11228539050E+02  0.90992516322E+02  0.00000000000E+00 0. -1.
</event>
<event>
 7    1  0.6146596E-006  0.7830039E+02  0.7818608E-02  0.1383437E+00
          2   -1    0    0  502    0  0.00000000000E+00  0.00000000000E+00  0.16493614567E+03  0.16493614567E+03  0.00000000000E+00 0. -1.
          1   -1    0    0  501    0 -0.00000000000E+00 -0.00000000000E+00 -0.72924504728E+03  0.72924504728E+03  0.00000000000E+00 0. -1.
         25    2    1    2    0    0 -0.74224722347E+02 -0.45799706958E+02 -0.63863462266E+02  0.16525486969E+03  0.12499483021E+03 0.  0.
          2    1    1    2  501    0  0.43898612674E+02 -0.27137026510E+02 -0.59978981815E+03  0.60200608997E+03  0.00000000000E+00 0. -1.
          1    1    1    2  502    0  0.30326109673E+02  0.72936733468E+02  0.99344378807E+02  0.12692023329E+03  0.00000000000E+00 0. -1.
         22    1    3    3    0    0 -0.79510899798E+02  0.22240443769E+02 -0.22982091471E+02  0.85701791429E+02  0.00000000000E+00 0.  1.
         22    1    3    3    0    0  0.52861774507E+01 -0.68040150727E+02 -0.40881370795E+02  0.79553078262E+02  0.00000000000E+00 0.  1.
</event>
<event>
 7    1  0.6146596E-006  0.4503210E+02  0.7818608E-02  0.1585580E+00
          2   -1    0    0  502    0  0.00000000000E+00  0.00000000000E+00  0.14536807663E+04  0.14536807663E+04  0.00000000000E+00 0. -1.
          1   -1    0    0  501    0 -0.00000000000E+00 -0.00000000000E+00 -0.19844806956E+03  0.19844806956E+03  0.00000000000E+00 0. -1.
         25    2    1    2    0    0  0.49618551654E+02 -0.40185833330E+02  0.11143466722E+03  0.17922141860E+03  0.12500291979E+03 0.  0.
          2    1    1    2  501    0 -0.28959811449E+02  0.33999630152E+02 -0.16143361544E+03  0.16749763498E+03  0.00000000000E+00 0. -1.
          1    1    1    2  502    0 -0.20658740204E+02  0.61862031779E+01  0.13052316450E+04  0.13054097823E+04  0.00000000000E+00 0. -1.
         22    1    3    3    0    0 -0.28942328262E+02 -0.43904507822E+02  0.14804572741E+02  0.54630024220E+02  0.00000000000E+00 0. -1.
         22    1    3    3    0    0  0.78560879915E+02  0.37186744919E+01  0.96630094482E+02  0.12459139438E+03  0.00000000000E+00 0. -1.
</event>
<event>
 7    1  0.6146596E-006  0.8778936E+02  0.7818608E-02  0.1315648E+00
          2   -1    0    0  502    0  0.00000000000E+00  0.00000000000E+00  0.10487007555E+04  0.10487007555E+04  0.00000000000E+00 0. -1.
          1   -1    0    0  501    0 -0.00000000000E+00 -0.00000000000E+00 -0.36645844016E+03  0.36645844016E+03  0.00000000000E+00 0. -1.
         25    2    1    2    0    0 -0.30765309394E+02  0.24932228207E+02  0.89217580143E+02  0.15859639057E+03  0.12499967291E+03 0.  0.
          2    1    1    2  501    0 -0.53902087906E+02 -0.61979832833E+02 -0.32432737287E+03  0.33456715253E+03  0.00000000000E+00 0. -1.
          1    1    1    2  502    0  0.84667397300E+02  0.37047604626E+02  0.91735210808E+03  0.92199565258E+03  0.00000000000E+00 0. -1.
         22    1    3    3    0    0 -0.25108083280E+02 -0.17447849622E+02  0.10774464128E+03  0.11199888850E+03  0.00000000000E+00 0. -1.
         22    1    3    3    0    0 -0.56572261142E+01  0.42380077830E+02 -0.18527061134E+02  0.46597502062E+02  0.00000000000E+00 0. -1.
</event>
<event>
 7    1  0.6146596E-006  0.3166914E+02  0.7818608E-02  0.1626039E+00
          2   -1    0    0  502    0  0.00000000000E+00  0.00000000000E+00  0.31808960685E+03  0.31808960685E+03  0.00000000000E+00 0. -1.
          1   -1    0    0  501    0 -0.00000000000E+00 -0.00000000000E+00 -0.29003415443E+04  0.29003415443E+04  0.00000000000E+00 0. -1.
         25    2    1    2    0    0 -0.46177764583E+02 -0.10542649157E+02 -0.14164115758E+04  0.14227050928E+04  0.12499798307E+03 0.  0.
          2    1    1    2  501    0  0.23958093986E+02  0.19828428109E+02 -0.14801592827E+04  0.14804859537E+04  0.00000000000E+00 0. -1.
          1    1    1    2  502    0  0.22219670597E+02 -0.92857789524E+01  0.31431892105E+03  0.31524010465E+03  0.00000000000E+00 0. -1.
         22    1    3    3    0    0 -0.19998031493E+02 -0.56001254852E+02 -0.35089472826E+03  0.35589769897E+03  0.00000000000E+00 0.  1.
         22    1    3    3    0    0 -0.26179733091E+02  0.45458605696E+02 -0.10655168475E+04  0.10668073939E+04  0.00000000000E+00 0.  1.
</event>
<event>
 7    1  0.6146596E-006  0.6692251E+02  0.7818608E-02  0.1457532E+00
          2   -1    0    0  502    0  0.00000000000E+00  0.00000000000E+00  0.12780415417E+03  0.12780415417E+03  0.00000000000E+00 0. -1.
          1   -1    0    0  501    0 -0.00000000000E+00 -0.00000000000E+00 -0.91868268497E+03  0.91868268497E+03  0.00000000000E+00 0. -1.
         25    2    1    2    0    0 -0.58657301282E+02  0.45584009354E+02 -0.17103631975E+03  0.22449341682E+03  0.12500116247E+03 0.  0.
          2    1    1    2  501    0  0.65830240394E+02 -0.12191540082E+02 -0.71642662988E+03  0.71954803189E+03  0.00000000000E+00 0. -1.
          1    1    1    2  502    0 -0.71729391123E+01 -0.33392469272E+02  0.96584418826E+02  0.10244539043E+03  0.00000000000E+00 0. -1.
         22    1    3    3    0    0 -0.74982106925E+02  0.28567408504E+01 -0.16105518306E+03  0.17767737424E+03  0.00000000000E+00 0. -1.
         22    1    3    3    0    0  0.16324805644E+02  0.42727268504E+02 -0.99811366916E+01  0.46816042579E+02  0.00000000000E+00 0. -1.
</event>
<event>
 7    1  0.6146596E-006  0.9241202E+02  0.7818608E-02  0.1440336E+00
          2   -1    0    0  502    0  0.00000000000E+00  0.00000000000E+00  0.14002520464E+04  0.14002520464E+04  0.00000000000E+00 0. -1.
          1   -1    0    0  501    0 -0.00000000000E+00 -0.00000000000E+00 -0.45326128514E+03  0.45326128514E+03  0.00000000000E+00 0. -1.
         25    2    1    2    0    0 -0.25481787945E+02 -0.67951841777E+02 -0.30550414788E+02  0.14774509265E+03  0.12501404017E+03 0.  0.
          2    1    1    2  501    0 -0.26657362077E+02 -0.88230864245E+01 -0.36196422704E+03  0.36305173662E+03  0.00000000000E+00 0. -1.
          1    1    1    2  502    0  0.52139150022E+02  0.76774928201E+02  0.13395054031E+04  0.13427165022E+04  0.00000000000E+00 0. -1.
         22    1    3    3    0    0 -0.56788113344E+02 -0.87020583326E+02 -0.69389872749E+01  0.10414231265E+03  0.00000000000E+00 0. -1.
         22    1    3    3    0    0  0.31306325400E+02  0.19068741550E+02 -0.23611427513E+02  0.43602779998E+02  0.00000000000E+00 0. -1.
</event>
<event>
 7    1  0.6146596E-006  0.5197198E+02  0.7818608E-02  0.1481882E+00
          2   -1    0    0  502    0  0.00000000000E+00  0.00000000000E+00  0.22114007660E+04  0.22114007660E+04  0.00000000000E+00 0. -1.
          1   -1    0    0  501    0 -0.00000000000E+00 -0.00000000000E+00 -0.83627934228E+03  0.83627934228E+03  0.00000000000E+00 0. -1.
         25    2    1    2    0    0 -0.69691810129E+01 -0.25302992038E+02 -0.61966503885E+03  0.63269235078E+03  0.12500415781E+03 0.  0.
          2    1    1    2  501    0 -0.36839136845E+02 -0.26893489329E+01 -0.20816814580E+03  0.21141979928E+03  0.00000000000E+00 0. -1.
          1    1    1    2  502    0  0.43808317857E+02  0.27992340970E+02  0.22029546084E+04  0.22035679582E+04  0.00000000000E+00 0. -1.
         22    1    3    3    0    0 -0.38210546791E+02 -0.66049250925E+02 -0.38126920443E+03  0.38882998300E+03  0.00000000000E+00 0.  1.
         22    1    3    3    0    0  0.31241365779E+02  0.40746258888E+02 -0.23839583443E+03  0.24386236779E+03  0.00000000000E+00 0.  1.
</event>
<event>
 7    1  0.6146596E-006  0.1677159E+03  0.7818608E-02  0.1190559E+00
          2   -1    0    0  502    0  0.00000000000E+00  0.00000000000E+00  0.10249405291E+04  0.10249405291E+04  0.00000000000E+00 0. -1.
          1   -1    0    0  501    0 -0.00000000000E+00 -0.00000000000E+00 -0.46641451593E+03  0.46641451593E+03  0.00000000000E+00 0. -1.
         25    2    1    2    0    0 -0.59629640932E+02  0.22010237162E+02 -0.15690423604E+02  0.14111001321E+03  0.12500280724E+03 0.  0.
          2    1    1    2  501    0 -0.53535262844E+00  0.14952834663E+03 -0.36455794591E+03  0.39403237046E+03  0.00000000000E+00 0. -1.
          1    1    1    2  502    0  0.60164993560E+02 -0.17153858379E+03  0.93877438270E+03  0.95621266139E+03  0.00000000000E+00 0. -1.
         22    1    3    3    0    0 -0.87490109780E+02 -0.11841200543E+02  0.12232268854E+02  0.89131149106E+02  0.00000000000E+00 0.  1.
         22    1    3    3    0    0  0.27860468848E+02  0.33851437705E+02 -0.27922692457E+02  0.51978864101E+02  0.00000000000E+00 0.  1.
</event>
<event>
 7    1  0.6146596E-006  0.6190663E+02  0.7818608E-02  0.1442595E+00
          2   -1    0    0  502    0  0.00000000000E+00  0.00000000000E+00  0.14854898306E+03  0.14854898306E+03  0.00000000000E+00 0. -1.
          1   -1    0    0  501    0 -0.00000000000E+00 -0.00000000000E+00 -0.59306646643E+03  0.59306646643E+03  0.00000000000E+00 0. -1.
         25    2    1    2    0    0 -0.66120650699E+01  0.34712836860E+02  0.18015934946E+02  0.13117630127E+03  0.12503578550E+03 0.  0.
          2    1    1    2  501    0 -0.34062416174E+02  0.23205669647E+02 -0.51854628126E+03  0.52018169624E+03  0.00000000000E+00 0. -1.
          1    1    1    2  502    0  0.40674481244E+02 -0.57918506506E+02  0.56012862943E+02  0.90257451966E+02  0.00000000000E+00 0. -1.
         22    1    3    3    0    0  0.26139249077E+02 -0.34232014775E+02  0.31897075371E+02  0.53595844942E+02  0.00000000000E+00 0. -1.
         22    1    3    3    0    0 -0.32751314147E+02  0.68944851634E+02 -0.13881140425E+02  0.77580456332E+02  0.00000000000E+00 0. -1.
</event>
<event>
 7    1  0.6146596E-006  0.1812482E+03  0.7818608E-02  0.1365280E+00
          2   -1    0    0  502    0  0.00000000000E+00  0.00000000000E+00  0.74941541695E+03  0.74941541695E+03  0.00000000000E+00 0. -1.
          1   -1    0    0  501    0 -0.00000000000E+00 -0.00000000000E+00 -0.74973939673E+02  0.74973939673E+02  0.00000000000E+00 0. -1.
         25    2    1    2    0    0 -0.96228948771E+02 -0.16712634796E+03  0.42602291490E+03  0.48405511431E+03  0.12499041123E+03 0.  0.
          2    1    1    2  501    0  0.22695128268E+02  0.12450867317E+02 -0.12090418507E+02  0.28570459634E+02  0.00000000000E+00 0. -1.
          1    1    1    2  502    0  0.73533820504E+02  0.15467548065E+03  0.26050898088E+03  0.31176378268E+03  0.00000000000E+00 0. -1.
         22    1    3    3    0    0 -0.16940732415E+02 -0.31570140864E+02  0.69127872549E+01  0.36489023508E+02  0.00000000000E+00 0.  1.
         22    1    3    3    0    0 -0.79288216357E+02 -0.13555620710E+03  0.41911012765E+03  0.44756609080E+03  0.00000000000E+00 0.  1.
</event>
<event>
 7    1  0.6146596E-006  0.1257796E+03  0.7818608E-02  0.1282187E+00
          2   -1    0    0  502    0  0.00000000000E+00  0.00000000000E+00  0.16622102734E+04  0.16622102734E+04  0.00000000000E+00 0. -1.
          1   -1    0    0  501    0 -0.00000000000E+00 -0.00000000000E+00 -0.36601103422E+03  0.36601103422E+03  0.00000000000E+00 0. -1.
         25    2    1    2    0    0 -0.15040346468E+03 -0.80355024763E+02  0.41681042952E+03  0.46736915194E+03  0.12499943135E+03 0.  0.
          2    1    1    2  501    0  0.76320130546E+02 -0.16526928499E+02 -0.33315795600E+03  0.34218726647E+03  0.00000000000E+00 0. -1.
          1    1    1    2  502    0  0.74083334132E+02  0.96881953262E+02  0.12125467657E+04  0.12186648892E+04  0.00000000000E+00 0. -1.
         22    1    3    3    0    0 -0.11420995214E+03 -0.93516559357E+02  0.20811036228E+03  0.25514541526E+03  0.00000000000E+00 0.  1.
         22    1    3    3    0    0 -0.36193512533E+02  0.13161534595E+02  0.20870006724E+03  0.21222373668E+03  0.00000000000E+00 0.  1.
</event>
<event>
 7    1  0.6146596E-006  0.8897847E+02  0.7818608E-02  0.1437222E+00
          2   -1    0    0  502    0  0.00000000000E+00  0.00000000000E+00  0.22039424938E+04  0.22039424938E+04  0.00000000000E+00 0. -1.
          1   -1    0    0  501    0 -0.00000000000E+00 -0.00000000000E+00 -0.11744379245E+04  0.11744379245E+04  0.00000000000E+00 0. -1.
         25    2    1    2    0    0  0.26328673476E+02  0.70808743381E+02 -0.34809618282E+02  0.15014393099E+03  0.12499765318E+03 0.  0.
          2    1    1    2  501    0 -0.30379487643E+01 -0.89479946511E+02 -0.10800049228E+04  0.10837096120E+04  0.00000000000E+00 0. -1.
          1    1    1    2  502    0 -0.23290724711E+02  0.18671203130E+02  0.21443191104E+04  0.21445268753E+04  0.00000000000E+00 0. -1.
         22    1    3    3    0    0  0.32339306483E+02  0.31815222680E+02  0.43250957609E+02  0.62679218821E+02  0.00000000000E+00 0.  1.
         22    1    3    3    0    0 -0.60106330072E+01  0.38993520701E+02 -0.78060575891E+02  0.87464712166E+02  0.00000000000E+00 0.  1.
</event>
<event>
 7    1  0.6146596E-006  0.7630984E+02  0.7818608E-02  0.1383892E+00
          2   -1    0    0  502    0  0.00000000000E+00  0.00000000000E+00  0.47627204614E+03  0.47627204614E+03  0.00000000000E+00 0. -1.
          1   -1    0    0  501    0 -0.00000000000E+00 -0.00000000000E+00 -0.84595733828E+03  0.84595733828E+03  0.00000000000E+00 0. -1.
         25    2    1    2    0    0 -0.69674569985E+02 -0.10021259910E+03 -0.11479844121E+03  0.20904710493E+03  0.12499959702E+03 0.  0.
          2    1    1    2  501    0  0.26776308656E+02  0.69498226099E+02 -0.68037310339E+03  0.68443738497E+03  0.00000000000E+00 0. -1.
          1    1    1    2  502    0  0.42898261329E+02  0.30714372999E+02  0.42548625246E+03  0.42874489451E+03  0.00000000000E+00 0. -1.
         22    1    3    3    0    0 -0.20289822944E+02  0.21831330898E+02  0.59622343619E+01  0.30394607457E+02  0.00000000000E+00 0. -1.
         22    1    3    3    0    0 -0.49384747042E+02 -0.12204393000E+03 -0.12076067557E+03  0.17865249748E+03  0.00000000000E+00 0. -1.
</event>
<event>
 7    1  0.6146596E-006  0.8114527E+02  0.7818608E-02  0.1449647E+00
          2   -1    0    0  502    0  0.00000000000E+00  0.00000000000E+00  0.14716572784E+04  0.14716572784E+04  0.00000000000E+00 0. -1.
          1   -1    0    0  501    0 -0.00000000000E+00 -0.00000000000E+00 -0.14321743939E+03  0.14321743939E+03  0.00000000000E+00 0. -1.
         25    2    1    2    0    0  0.84954961114E+02 -0.65697632749E+02  0.21105791516E+03  0.26777497374E+03  0.12499787455E+03 0.  0.
          2    1    1    2  501    0 -0.56765038205E+02  0.55900978623E+02 -0.10083895924E+03  0.12851336379E+03  0.00000000000E+00 0. -1.
          1    1    1    2  502    0 -0.28189922909E+02  0.97966541256E+01  0.12182208831E+04  0.12185863803E+04  0.00000000000E+00 0. -1.
         22    1    3    3    0    0  0.41753775081E+02  0.13914873326E+02  0.15528727466E+03  0.16140365269E+03  0.00000000000E+00 0. -1.
         22    1    3    3    0    0  0.43201186033E+02 -0.79612506075E+02  0.55770640505E+02  0.10637132104E+03  0.00000000000E+00 0. -1.
</event>
<event>
 7    1  0.6146596E-006  0.1324646E+03  0.7818608E-02  0.1313163E+00
          2   -1    0    0  502    0  0.00000000000E+00  0.00000000000E+00  0.11674521104E+04  0.11674521104E+04  0.00000000000E+00 0. -1.
          1   -1    0    0  501    0 -0.00000000000E+00 -0.00000000000E+00 -0.16864590733E+03  0.16864590733E+03  0.00000000000E+00 0. -1.
         25    2    1    2    0    0 -0.12428729079E+03  0.10651037523E+03  0.92221237136E+02  0.22565739442E+03  0.12499884958E+03 0.  0.
          2    1    1    2  501    0  0.68623223363E+02 -0.10568072085E+03 -0.61877492487E+02  0.14037943447E+03  0.00000000000E+00 0. -1.
          1    1    1    2  502    0  0.55664067423E+02 -0.82965437505E+00  0.96846245842E+03  0.97006118885E+03  0.00000000000E+00 0. -1.
         22    1    3    3    0    0  0.23833224260E+02  0.27986382387E+02  0.63736662888E+01  0.37307958932E+02  0.00000000000E+00 0. -1.
         22    1    3    3    0    0 -0.14812051505E+03  0.78523992840E+02  0.85847570847E+02  0.18834943549E+03  0.00000000000E+00 0. -1.
</event>
<event>
 7    1  0.6146596E-006  0.1931658E+03  0.7818608E-02  0.1178658E+00
          2   -1    0    0  502    0  0.00000000000E+00  0.00000000000E+00  0.20889968368E+04  0.20889968368E+04  0.00000000000E+00 0. -1.
          1   -1    0    0  501    0 -0.00000000000E+00 -0.00000000000E+00 -0.72611967664E+03  0.72611967664E+03  0.00000000000E+00 0. -1.
         25    2    1    2    0    0  0.20683470634E+03 -0.41491773429E+02  0.12340075068E+03  0.27450752828E+03  0.12499789920E+03 0.  0.
          2    1    1    2  501    0 -0.91700678683E+02 -0.11648961419E+03 -0.63697629527E+03  0.65400125796E+03  0.00000000000E+00 0. -1.
          1    1    1    2  502    0 -0.11513402765E+03  0.15798138761E+03  0.18764527047E+04  0.18866077272E+04  0.00000000000E+00 0. -1.
         22    1    3    3    0    0  0.22266074210E+03 -0.37007007503E+02  0.10246810750E+03  0.24788513012E+03  0.00000000000E+00 0.  1.
         22    1    3    3    0    0 -0.15826035764E+02 -0.44847659253E+01  0.20932643179E+02  0.26622398162E+02  0.00000000000E+00 0.  1.
</event>
<event>
 7    1  0.6146596E-006  0.7802409E+02  0.7818608E-02  0.1353082E+00
          2   -1    0    0  502    0  0.00000000000E+00  0.00000000000E+00  0.17134274582E+04  0.17134274582E+04  0.00000000000E+00 0. -1.
          1   -1    0    0  501    0 -0.00000000000E+00 -0.00000000000E+00 -0.19551674878E+03  0.19551674878E+03  0.00000000000E+00 0. -1.
         25    2    1    2    0    0 -0.81689828443E+02 -0.10096320946E+03  0.12826584772E+03  0.22123003751E+03  0.12499521619E+03 0.  0.
          2    1    1    2  501    0  0.13270000170E+02  0.65297778077E+02 -0.14056599894E+03  0.15555929025E+03  0.00000000000E+00 0. -1.
          1    1    1    2  502    0  0.68419828273E+02  0.35665431380E+02  0.15302108606E+04  0.15321548792E+04  0.00000000000E+00 0. -1.
         22    1    3    3    0    0  0.23624459599E+02 -0.12923198951E+02  0.64460006660E+02  0.69858547230E+02  0.00000000000E+00 0. -1.
         22    1    3    3    0    0 -0.10531428804E+03 -0.88040010506E+02  0.63805841060E+02  0.15137149028E+03  0.00000000000E+00 0. -1.
</event>
<event>
 7    1  0.6146596E-006  0.1269637E+03  0.7818608E-02  0.1306669E+00
          2   -1    0    0  502    0  0.00000000000E+00  0.00000000000E+00  0.44480424877E+04  0.44480424877E+04  0.00000000000E+00 0. -1.
          1   -1    0    0  501    0 -0.00000000000E+00 -0.00000000000E+00 -0.89159554989E+02  0.89159554989E+02  0.00000000000E+00 0. -1.
         25    2    1    2    0    0  0.13415811118E+03 -0.36695183116E+02  0.26451348896E+04  0.26517369395E+04  0.12500110752E+03 0.  0.
          2    1    1    2  501    0 -0.41024118906E+02 -0.45963154014E+02 -0.72352601646E+02  0.95028884155E+02  0.00000000000E+00 0. -1.
          1    1    1    2  502    0 -0.93133992277E+02  0.82658337130E+02  0.17861006447E+04  0.17904362190E+04  0.00000000000E+00 0. -1.
         22    1    3    3    0    0  0.40973595332E+02  0.46366897327E+02  0.80781631463E+03  0.81018264785E+03  0.00000000000E+00 0.  1.
         22    1    3    3    0    0  0.93184515851E+02 -0.83062080443E+02  0.18373185750E+04  0.18415542917E+04  0.00000000000E+00 0.  1.
</event>
<event>
 7    1  0.6146596E-006  0.5560837E+02  0.7818608E-02  0.1480252E+00
          2   -1    0    0  502    0  0.00000000000E+00  0.00000000000E+00  0.23477204726E+04  0.23477204726E+04  0.00000000000E+00 0. -1.
          1   -1    0    0  501    0 -0.00000000000E+00 -0.00000000000E+00 -0.12501909590E+03  0.12501909590E+03  0.00000000000E+00 0. -1.
         25    2    1    2    0    0  0.21584690027E+02 -0.60820104900E+02  0.27638862514E+03  0.31013083261E+03  0.12500190888E+03 0.  0.
          2    1    1    2  501    0  0.12696399744E+02  0.54166112879E+02 -0.10083428210E+03  0.11516387800E+03  0.00000000000E+00 0. -1.
          1    1    1    2  502    0 -0.34281089771E+02  0.66539920213E+01  0.20471470337E+04  0.20474448579E+04  0.00000000000E+00 0. -1.
         22    1    3    3    0    0 -0.21269296007E+01 -0.22480055258E+02 -0.66385088631E+01  0.23536068361E+02  0.00000000000E+00 0.  1.
         22    1    3    3    0    0  0.23711619627E+02 -0.38340049642E+02  0.28302713401E+03  0.28659476425E+03  0.00000000000E+00 0.  1.
</event>
<event>
 7    1  0.6146596E-006  0.4838292E+02  0.7818608E-02  0.1492125E+00
          2   -1    0    0  502    0  0.00000000000E+00  0.00000000000E+00  0.32366151078E+04  0.32366151078E+04  0.00000000000E+00 0. -1.
          1   -1    0    0  501    0 -0.00000000000E+00 -0.00000000000E+00 -0.61990723856E+03  0.61990723856E+03  0.00000000000E+00 0. -1.
         25    2    1    2    0    0  0.25812317719E+02 -0.88173633664E+01  0.22736321070E+03  0.26088899801E+03  0.12500007223E+03 0.  0.
          2    1    1    2  501    0  0.16476321577E+02  0.33054821855E+02 -0.60238023441E+03  0.60351142261E+03  0.00000000000E+00 0. -1.
          1    1    1    2  502    0 -0.42288639296E+02 -0.24237458488E+02  0.29917248929E+04  0.29921219257E+04  0.00000000000E+00 0. -1.
         22    1    3    3    0    0  0.74108406094E+02  0.17804190683E+01  0.10171276709E+03  0.12585989328E+03  0.00000000000E+00 0.  1.
         22    1    3    3    0    0 -0.48296088375E+02 -0.10597782435E+02  0.12565044361E+03  0.13502910473E+03  0.00000000000E+00 0.  1.
</event>
<event>
 7    1  0.6146596E-006  0.1528078E+03  0.7818608E-02  0.1262935E+00
          2   -1    0    0  502    0  0.00000000000E+00  0.00000000000E+00  0.55502528255E+03  0.55502528255E+03  0.00000000000E+00 0. -1.
          1   -1    0    0  501    0 -0.00000000000E+00 -0.00000000000E+00 -0.19020156637E+04  0.19020156637E+04  0.00000000000E+00 0. -1.
         25    2    1    2    0    0  0.12550389907E+03 -0.10608262731E+03 -0.53203543785E+01  0.20653723020E+03  0.12499827516E+03 0.  0.
          2    1    1    2  501    0 -0.68305088725E+02 -0.36340001157E+02 -0.17822641824E+04  0.17839427672E+04  0.00000000000E+00 0. -1.
          1    1    1    2  502    0 -0.57198810343E+02  0.14242262846E+03  0.44059415563E+03  0.46656094884E+03  0.00000000000E+00 0. -1.
         22    1    3    3    0    0 -0.18776220312E+02  0.77424147257E+01  0.89822420939E+01  0.22207478651E+02  0.00000000000E+00 0.  1.
         22    1    3    3    0    0  0.14428011938E+03 -0.11382504203E+03 -0.14302596472E+02  0.18432975155E+03  0.00000000000E+00 0.  1.
</event>
<event>
 7    1  0.6146596E-006  0.7374963E+02  0.7818608E-02  0.1386837E+00
          2   -1    0    0  502    0  0.00000000000E+00  0.00000000000E+00  0.12563382290E+03  0.12563382290E+03  0.00000000000E+00 0. -1.
          1   -1    0    0  501    0 -0.00000000000E+00 -0.00000000000E+00 -0.18898837946E+03  0.18898837946E+03  0.00000000000E+00 0. -1.
         25    2    1    2    0    0  0.34245367831E+01  0.74633836485E+02 -0.49213114605E+02  0.15368836659E+03  0.12496498060E+03 0.  0.
          2    1    1    2  501    0  0.49851471725E+02 -0.18878945045E+02 -0.52487352068E+02  0.74809798331E+02  0.00000000000E+00 0. -1.
          1    1    1    2  502    0 -0.53276008509E+02 -0.55754891440E+02  0.38345910107E+02  0.86124037434E+02  0.00000000000E+00 0. -1.
         22    1    3    3    0    0 -0.21182826627E+02  0.77544689333E+02 -0.80509471594E+02  0.11377023338E+03  0.00000000000E+00 0. -1.
         22    1    3    3    0    0  0.24607363410E+02 -0.29108528479E+01  0.31296356989E+02  0.39918133211E+02  0.00000000000E+00 0. -1.
</event>
<event>
 7    1  0.6146596E-006  0.1623288E+03  0.7818608E-02  0.1226245E+00
          2   -1    0    0  502    0  0.00000000000E+00  0.00000000000E+00  0.91826715596E+03  0.91826715596E+03  0.00000000000E+00 0. -1.
          1   -1    0    0  501    0 -0.00000000000E+00 -0.00000000000E+00 -0.49701637294E+03  0.49701637294E+03  0.00000000000E+00 0. -1.
         25    2    1    2    0    0  0.15087907199E+03 -0.58159927614E+02 -0.23644262882E+03  0.31253419221E+03  0.12500173212E+03 0.  0.
          2    1    1    2  501    0 -0.17312001937E+03 -0.44893498525E+02 -0.18276014545E+03  0.25570928431E+03  0.00000000000E+00 0. -1.
          1    1    1    2  502    0  0.22240947373E+02  0.10305342614E+03  0.84045355729E+03  0.84704005238E+03  0.00000000000E+00 0. -1.
         22    1    3    3    0    0  0.12350416364E+03 -0.87561144002E+02 -0.13282560942E+03  0.20140227132E+03  0.00000000000E+00 0.  1.
         22    1    3    3    0    0  0.27374908357E+02  0.29401216388E+02 -0.10361701940E+03  0.11113192089E+03  0.00000000000E+00 0.  1.
</event>
<event>
 7    1  0.6146596E-006  0.1304964E+03  0.7818608E-02  0.1349706E+00
          2   -1    0    0  502    0  0.00000000000E+00  0.00000000000E+00  0.48528718497E+02  0.48528718497E+02  0.00000000000E+00 0. -1.
          1   -1    0    0  501    0 -0.00000000000E+00 -0.00000000000E+00 -0.11560001646E+04  0.11560001646E+04  0.00000000000E+00 0. -1.
         25    2    1    2    0    0  0.12018800664E+03  0.38946503430E+02 -0.21456637012E+03  0.27861470630E+03  0.12500176122E+03 0.  0.
          2    1    1    2  501    0 -0.10672015208E+03 -0.77672709635E+02 -0.86792137963E+03  0.87790076996E+03  0.00000000000E+00 0. -1.
          1    1    1    2  502    0 -0.13467854564E+02  0.38726206205E+02 -0.24983696373E+02  0.48013406857E+02  0.00000000000E+00 0. -1.
         22    1    3    3    0    0  0.85964640437E+02 -0.32501331523E+02 -0.15217906627E+03  0.17777717561E+03  0.00000000000E+00 0. -1.
         22    1    3    3    0    0  0.34223366205E+02  0.71447834953E+02 -0.62387303848E+02  0.10083753069E+03  0.00000000000E+00 0. -1.
</event>
<event>
 7    1  0.6146596E-006  0.1275204E+03  0.7818608E-02  0.1375468E+00
          2   -1    0    0  502    0  0.00000000000E+00  0.00000000000E+00  0.25154686211E+04  0.25154686211E+04  0.00000000000E+00 0. -1.
          1   -1    0    0  501    0 -0.00000000000E+00 -0.00000000000E+00 -0.30975092556E+02  0.30975092556E+02  0.00000000000E+00 0. -1.
         25    2    1    2    0    0 -0.44590443671E+02  0.96405077402E+02  0.73711756003E+03  0.75514893907E+03  0.12500150504E+03 0.  0.
          2    1    1    2  501    0  0.35374029612E+02 -0.12894377028E+03  0.18346459209E+03  0.22701778436E+03  0.00000000000E+00 0. -1.
          1    1    1    2  502    0  0.92164140587E+01  0.32538692883E+02  0.15639113765E+04  0.15642769902E+04  0.00000000000E+00 0. -1.
         22    1    3    3    0    0 -0.30209377990E+02  0.12349103361E+03  0.66046264298E+03  0.67258720228E+03  0.00000000000E+00 0. -1.
         22    1    3    3    0    0 -0.14381065681E+02 -0.27085956210E+02  0.76654917053E+02  0.82561736794E+02  0.00000000000E+00 0. -1.
</event>
<event>
 7    1  0.6146596E-006  0.7965359E+02  0.7818608E-02  0.1372413E+00
          2   -1    0    0  502    0  0.00000000000E+00  0.00000000000E+00  0.20085998324E+04  0.20085998324E+04  0.00000000000E+00 0. -1.
          1   -1    0    0  501    0 -0.00000000000E+00 -0.00000000000E+00 -0.75493905785E+02  0.75493905785E+02  0.00000000000E+00 0. -1.
         25    2    1    2    0    0 -0.20673732209E+01  0.51970531260E+01  0.51777359153E+02  0.13541382267E+03  0.12499890022E+03 0.  0.
          2    1    1    2  501    0  0.52321065648E+02 -0.66997222091E+02  0.22215882935E+02  0.87861636298E+02  0.00000000000E+00 0. -1.
          1    1    1    2  502    0 -0.50253692427E+02  0.61800168965E+02  0.18591126845E+04  0.18608182792E+04  0.00000000000E+00 0. -1.
         22    1    3    3    0    0 -0.52797007216E+02  0.36220780189E+02  0.37715899646E+02  0.74309878041E+02  0.00000000000E+00 0. -1.
         22    1    3    3    0    0  0.50729633995E+02 -0.31023727062E+02  0.14061459507E+02  0.61103944632E+02  0.00000000000E+00 0. -1.
</event>
<event>
 7    1  0.6146596E-006  0.6431921E+02  0.7818608E-02  0.1440294E+00
          2   -1    0    0  502    0  0.00000000000E+00  0.00000000000E+00  0.42901953755E+03  0.42901953755E+03  0.00000000000E+00 0. -1.
          1   -1    0    0  501    0 -0.00000000000E+00 -0.00000000000E+00 -0.43118909589E+03  0.43118909589E+03  0.00000000000E+00 0. -1.
         25    2    1    2    0    0 -0.12366992101E+02 -0.24262291487E+02 -0.62124009702E+02  0.14221433145E+03  0.12499568875E+03 0.  0.
          2    1    1    2  501    0  0.27913548252E+02  0.61504261424E+02 -0.32448624391E+03  0.33144119062E+03  0.00000000000E+00 0. -1.
          1    1    1    2  502    0 -0.15546556151E+02 -0.37241969937E+02  0.38444069527E+03  0.38655311137E+03  0.00000000000E+00 0. -1.
         22    1    3    3    0    0  0.52474919776E+00  0.58956589404E+01 -0.95346436784E+02  0.95529980443E+02  0.00000000000E+00 0. -1.
         22    1    3    3    0    0 -0.12891741299E+02 -0.30157950427E+02  0.33222427082E+02  0.46684351006E+02  0.00000000000E+00 0. -1.
</event>
<event>
 7    1  0.6146596E-006  0.1318591E+03  0.7818608E-02  0.1349518E+00
          2   -1    0    0  502    0  0.00000000000E+00  0.00000000000E+00  0.69785209770E+03  0.69785209770E+03  0.00000000000E+00 0. -1.
          1   -1    0    0  501    0 -0.00000000000E+00 -0.00000000000E+00 -0.54972831948E+03  0.54972831948E+03  0.00000000000E+00 0. -1.
         25    2    1    2    0    0  0.92990891499E+02  0.56935638285E+02 -0.54158938198E+02  0.17449163818E+03  0.12500067359E+03 0.  0.
          2    1    1    2  501    0 -0.95431720062E+02 -0.97505102264E+02 -0.42404012931E+03  0.44544863837E+03  0.00000000000E+00 0. -1.
          1    1    1    2  502    0  0.24408285627E+01  0.40569463979E+02  0.62632284573E+03  0.62764014063E+03  0.00000000000E+00 0. -1.
         22    1    3    3    0    0  0.81029179677E+02 -0.23350094942E+02 -0.21727423830E+02  0.87080628381E+02  0.00000000000E+00 0. -1.
         22    1    3    3    0    0  0.11961711823E+02  0.80285733228E+02 -0.32431514368E+02  0.87411009798E+02  0.00000000000E+00 0. -1.
</event>
<event>
 7    1  0.6146596E-006  0.6098272E+02  0.7818608E-02  0.1505351E+00
          2   -1    0    0  502    0  0.00000000000E+00  0.00000000000E+00  0.11843478816E+04  0.11843478816E+04  0.00000000000E+00 0. -1.
          1   -1    0    0  501    0 -0.00000000000E+00 -0.00000000000E+00 -0.29387137862E+03  0.29387137862E+03  0.00000000000E+00 0. -1.
         25    2    1    2    0    0  0.29627439953E+02 -0.80002422154E+02 -0.57225581643E+02  0.16179681312E+03  0.12500107516E+03 0.  0.
          2    1    1    2  501    0 -0.17566319987E+02  0.56122692880E+02 -0.17950778655E+03  0.18889514998E+03  0.00000000000E+00 0. -1.
          1    1    1    2  502    0 -0.12061119966E+02  0.23879729274E+02  0.11272098712E+04  0.11275272971E+04  0.00000000000E+00 0. -1.
         22    1    3    3    0    0  0.44852727023E+02 -0.69984896203E+02 -0.91104046370E+02  0.12332720739E+03  0.00000000000E+00 0. -1.
         22    1    3    3    0    0 -0.15225287070E+02 -0.10017525951E+02  0.33878464727E+02  0.38469605727E+02  0.00000000000E+00 0. -1.
</event>
<event>
 7    1  0.6146596E-006  0.5835828E+02  0.7818608E-02  0.1436627E+00
          2   -1    0    0  502    0  0.00000000000E+00  0.00000000000E+00  0.22564776362E+04  0.22564776362E+04  0.00000000000E+00 0. -1.
          1   -1    0    0  501    0 -0.00000000000E+00 -0.00000000000E+00 -0.41529585666E+03  0.41529585666E+03  0.00000000000E+00 0. -1.
         25    2    1    2    0    0  0.61195127884E+02  0.17198302526E+02  0.10651238033E+04  0.10743163867E+04  0.12500542841E+03 0.  0.
          2    1    1    2  501    0 -0.30318592641E+02  0.34217787452E+02 -0.40866639990E+03  0.41121563740E+03  0.00000000000E+00 0. -1.
          1    1    1    2  502    0 -0.30876535243E+02 -0.51416089978E+02  0.11847243761E+04  0.11862414687E+04  0.00000000000E+00 0. -1.
         22    1    3    3    0    0  0.61226781137E+02  0.66509108890E+02  0.73254057486E+03  0.73809746924E+03  0.00000000000E+00 0. -1.
         22    1    3    3    0    0 -0.31653253377E-01 -0.49310806364E+02  0.33258322847E+03  0.33621891750E+03  0.00000000000E+00 0. -1.
</event>
<event>
 7    1  0.6146596E-006  0.5432312E+02  0.7818608E-02  0.1505563E+00
          2   -1    0    0  502    0  0.00000000000E+00  0.00000000000E+00  0.63624850878E+02  0.63624850878E+02  0.00000000000E+00 0. -1.
          1   -1    0    0  501    0 -0.00000000000E+00 -0.00000000000E+00 -0.87372137076E+03  0.87372137076E+03  0.00000000000E+00 0. -1.
         25    2    1    2    0    0  0.46422376882E+02  0.10885476911E+02 -0.52724857961E+03  0.54395807779E+03  0.12500318001E+03 0.  0.
          2    1    1    2  501    0 -0.86917485173E+01  0.28701889952E+02 -0.32372528562E+03  0.32511137404E+03  0.00000000000E+00 0. -1.
          1    1    1    2  502    0 -0.37730628364E+02 -0.39587366863E+02  0.40877345351E+02  0.68276769804E+02  0.00000000000E+00 0. -1.
         22    1    3    3    0    0  0.51523175329E+02 -0.50512047465E+02 -0.27905448797E+03  0.28823169810E+03  0.00000000000E+00 0.  1.
         22    1    3    3    0    0 -0.51007984474E+01  0.61397524377E+02 -0.24819409164E+03  0.25572637969E+03  0.00000000000E+00 0.  1.
</event>
<event>
 7    1  0.6146596E-006  0.9760489E+02  0.7818608E-02  0.1341078E+00
          2   -1    0    0  502    0  0.00000000000E+00  0.00000000000E+00  0.22946827228E+03  0.22946827228E+03  0.00000000000E+00 0. -1.
          1   -1    0    0  501    0 -0.00000000000E+00 -0.00000000000E+00 -0.35511476810E+03  0.35511476810E+03  0.00000000000E+00 0. -1.
         25    2    1    2    0    0  0.49992591515E+02  0.68133814751E+02  0.89140529125E+02  0.17524976259E+03  0.12499987774E+03 0.  0.
          2    1    1    2  501    0  0.95170904744E-01 -0.99382719570E+02 -0.29411286805E+03  0.31045017822E+03  0.00000000000E+00 0. -1.
          1    1    1    2  502    0 -0.50087762420E+02  0.31248904819E+02  0.79325843108E+02  0.98883099575E+02  0.00000000000E+00 0. -1.
         22    1    3    3    0    0  0.83446338488E+02  0.79793935725E+02  0.67969941390E+02  0.13397864202E+03  0.00000000000E+00 0. -1.
         22    1    3    3    0    0 -0.33453746972E+02 -0.11660120974E+02  0.21170587735E+02  0.41271120565E+02  0.00000000000E+00 0. -1.
</event>
<event>
 7    1  0.6146596E-006  0.3142595E+03  0.7818608E-02  0.1299779E+00
          2   -1    0    0  502    0  0.00000000000E+00  0.00000000000E+00  0.25027098724E+04  0.25027098724E+04  0.00000000000E+00 0. -1.
          1   -1    0    0  501    0 -0.00000000000E+00 -0.00000000000E+00 -0.55875174643E+02  0.55875174643E+02  0.00000000000E+00 0. -1.
         25    2    1    2    0    0  0.21863694797E+03 -0.23320348192E+03  0.74148446568E+03  0.81707351062E+03  0.12499571955E+03 0.  0.
          2    1    1    2  501    0 -0.19245246351E+03  0.23736893438E+03  0.13056944417E+04  0.13409772320E+04  0.00000000000E+00 0. -1.
          1    1    1    2  502    0 -0.26184484464E+02 -0.41654524560E+01  0.39965579044E+03  0.40053430447E+03  0.00000000000E+00 0. -1.
         22    1    3    3    0    0  0.15349138254E+03 -0.21448768579E+03  0.66203614803E+03  0.71264046557E+03  0.00000000000E+00 0. -1.
         22    1    3    3    0    0  0.65145565430E+02 -0.18715796137E+02  0.79448317652E+02  0.10443304505E+03  0.00000000000E+00 0. -1.
</event>
<event>
 7    1  0.6146596E-006  0.1241781E+03  0.7818608E-02  0.1286836E+00
          2   -1    0    0  502    0  0.00000000000E+00  0.00000000000E+00  0.74782071397E+03  0.74782071397E+03  0.00000000000E+00 0. -1.
          1   -1    0    0  501    0 -0.00000000000E+00 -0.00000000000E+00 -0.25527547478E+04  0.25527547478E+04  0.00000000000E+00 0. -1.
         25    2    1    2    0    0 -0.87229337352E+02 -0.12020386214E+03 -0.62032644403E+03  0.64999123804E+03  0.12500314637E+03 0.  0.
          2    1    1    2  501    0  0.11313553496E+03  0.49077570017E+02 -0.19136514918E+04  0.19176209972E+04  0.00000000000E+00 0. -1.
          1    1    1    2  502    0 -0.25906197610E+02  0.71126292121E+02  0.72904390192E+03  0.73296322652E+03  0.00000000000E+00 0. -1.
         22    1    3    3    0    0  0.27966219315E+02 -0.15076111337E+02 -0.54686651737E+02  0.63245777994E+02  0.00000000000E+00 0.  1.
         22    1    3    3    0    0 -0.11519555667E+03 -0.10512775080E+03 -0.56563979229E+03  0.58674546005E+03  0.00000000000E+00 0.  1.
</event>
<event>
 7    1  0.6146596E-006  0.9710469E+02  0.7818608E-02  0.1301589E+00
          2   -1    0    0  502    0  0.00000000000E+00  0.00000000000E+00  0.12947925292E+04  0.12947925292E+04  0.00000000000E+00 0. -1.
          1   -1    0    0  501    0 -0.00000000000E+00 -0.00000000000E+00 -0.11949042709E+03  0.11949042709E+03  0.00000000000E+00 0. -1.
         25    2    1    2    0    0 -0.15838983813E+03 -0.44911797840E+02  0.40311270251E+03  0.45302392421E+03  0.12500565816E+03 0.  0.
          2    1    1    2  501    0  0.84012035600E+02 -0.79601872215E+01 -0.72742802881E+02  0.11141320423E+03  0.00000000000E+00 0. -1.
          1    1    1    2  502    0  0.74377802527E+02  0.52871985062E+02  0.84493220250E+03  0.84984582786E+03  0.00000000000E+00 0. -1.
         22    1    3    3    0    0 -0.16063751443E+03 -0.40808587195E+02  0.25066268930E+03  0.30050213916E+03  0.00000000000E+00 0.  1.
         22    1    3    3    0    0  0.22476763069E+01 -0.41032106450E+01  0.15245001321E+03  0.15252178505E+03  0.00000000000E+00 0.  1.
</event>
<event>
 7    1  0.6146596E-006  0.1030033E+03  0.7818608E-02  0.1333661E+00
          2   -1    0    0  502    0  0.00000000000E+00  0.00000000000E+00  0.10452515229E+04  0.10452515229E+04  0.00000000000E+00 0. -1.
          1   -1    0    0  501    0 -0.00000000000E+00 -0.00000000000E+00 -0.13632195023E+04  0.13632195023E+04  0.00000000000E+00 0. -1.
         25    2    1    2    0    0 -0.40534283284E+02  0.18478472291E+02  0.54918003185E+02  0.14361590073E+03  0.12500023123E+03 0.  0.
          2    1    1    2  501    0  0.95001016812E+02 -0.42847412521E+02 -0.13158672967E+04  0.13199878168E+04  0.00000000000E+00 0. -1.
          1    1    1    2  502    0 -0.54466733528E+02  0.24368940230E+02  0.94298131415E+03  0.94486730769E+03  0.00000000000E+00 0. -1.
         22    1    3    3    0    0 -0.33023160967E+02  0.56847570911E+02 -0.11309478033E+02  0.66708918235E+02  0.00000000000E+00 0. -1.
         22    1    3    3    0    0 -0.75111223174E+01 -0.38369098619E+02  0.66227481219E+02  0.76906982491E+02  0.00000000000E+00 0. -1.
</event>
<event>
 7    1  0.6146596E-006  0.4401660E+02  0.7818608E-02  0.1556362E+00
          2   -1    0    0  502    0  0.00000000000E+00  0.00000000000E+00  0.16812021402E+04  0.16812021402E+04  0.00000000000E+00 0. -1.
          1   -1    0    0  501    0 -0.00000000000E+00 -0.00000000000E+00 -0.11370452866E+03  0.11370452866E+03  0.00000000000E+00 0. -1.
         25    2    1    2    0    0  0.23324280085E+02 -0.17538100924E+02  0.75047444725E+03  0.76137374881E+03  0.12500592939E+03 0.  0.
          2    1    1    2  501    0 -0.44122302670E+02  0.11458783705E+01 -0.10355769851E+03  0.11257125544E+03  0.00000000000E+00 0. -1.
          1    1    1    2  502    0  0.20798022585E+02  0.16392222554E+02  0.92058086278E+03  0.92096166458E+03  0.00000000000E+00 0. -1.
         22    1    3    3    0    0  0.27506131821E+02  0.10074616541E+01  0.73826862471E+03  0.73878154044E+03  0.00000000000E+00 0. -1.
         22    1    3    3    0    0 -0.41818517362E+01 -0.18545562578E+02  0.12205822542E+02  0.22592208374E+02  0.00000000000E+00 0. -1.
</event>
<event>
 7    1  0.6146596E-006  0.2003072E+03  0.7818608E-02  0.1248903E+00
          2   -1    0    0  502    0  0.00000000000E+00  0.00000000000E+00  0.14102064211E+04  0.14102064211E+04  0.00000000000E+00 0. -1.
          1   -1    0    0  501    0 -0.00000000000E+00 -0.00000000000E+00 -0.20179817551E+03  0.20179817551E+03  0.00000000000E+00 0. -1.
         25    2    1    2    0    0  0.12925143500E+03 -0.12975590327E+03  0.44519624217E+03  0.49736016015E+03  0.12499962793E+03 0.  0.
          2    1    1    2  501    0 -0.88049752483E+02  0.18361703207E+03 -0.11496834504E+03  0.23384972469E+03  0.00000000000E+00 0. -1.
          1    1    1    2  502    0 -0.41201682518E+02 -0.53861128802E+02  0.87818034849E+03  0.88079471178E+03  0.00000000000E+00 0. -1.
         22    1    3    3    0    0 -0.17412321228E+02 -0.52145255166E+02  0.93026451980E+02  0.10805663948E+03  0.00000000000E+00 0. -1.
         22    1    3    3    0    0  0.14666375623E+03 -0.77610648099E+02  0.35216979019E+03  0.38930352068E+03  0.00000000000E+00 0. -1.
</event>
<event>
 7    1  0.6146596E-006  0.8308147E+02  0.7818608E-02  0.1499073E+00
          2   -1    0    0  502    0  0.00000000000E+00  0.00000000000E+00  0.17602394743E+03  0.17602394743E+03  0.00000000000E+00 0. -1.
          1   -1    0    0  501    0 -0.00000000000E+00 -0.00000000000E+00 -0.75876721126E+03  0.75876721126E+03  0.00000000000E+00 0. -1.
         25    2    1    2    0    0 -0.35899092336E+02  0.51902755063E+02  0.79465743045E+02  0.16100194956E+03  0.12499673048E+03 0.  0.
          2    1    1    2  501    0  0.49578191003E+02 -0.67171201544E+02 -0.71359652977E+03  0.71846362096E+03  0.00000000000E+00 0. -1.
          1    1    1    2  502    0 -0.13679098667E+02  0.15268446480E+02  0.51387522888E+02  0.55325588175E+02  0.00000000000E+00 0. -1.
         22    1    3    3    0    0  0.89491381978E+00  0.88241246475E+02  0.52463692497E+02  0.10266332101E+03  0.00000000000E+00 0.  1.
         22    1    3    3    0    0 -0.36794006155E+02 -0.36338491412E+02  0.27002050548E+02  0.58338628548E+02  0.00000000000E+00 0.  1.
</event>
<event>
 7    1  0.6146596E-006  0.1331155E+03  0.7818608E-02  0.1287274E+00
          2   -1    0    0  502    0  0.00000000000E+00  0.00000000000E+00  0.79078574481E+03  0.79078574481E+03  0.00000000000E+00 0. -1.
          1   -1    0    0  501    0 -0.00000000000E+00 -0.00000000000E+00 -0.23826564469E+03  0.23826564469E+03  0.00000000000E+00 0. -1.
         25    2    1    2    0    0 -0.16334186788E+03  0.46761962423E+02  0.13667810751E+03  0.25134177141E+03  0.12499813619E+03 0.  0.
          2    1    1    2  501    0  0.61569537602E+02  0.33982104636E+02 -0.16666354229E+03  0.18089313896E+03  0.00000000000E+00 0. -1.
          1    1    1    2  502    0  0.10177233028E+03 -0.80744067059E+02  0.58250553489E+03  0.59681647913E+03  0.00000000000E+00 0. -1.
         22    1    3    3    0    0 -0.48216179332E+02  0.47632058122E+02  0.11603160669E+03  0.13437613874E+03  0.00000000000E+00 0.  1.
         22    1    3    3    0    0 -0.11512568855E+03 -0.87009569813E+00  0.20646500818E+02  0.11696563267E+03  0.00000000000E+00 0.  1.
</event>
<event>
 7    1  0.6146596E-006  0.7957592E+02  0.7818608E-02  0.1406069E+00
          2   -1    0    0  502    0  0.00000000000E+00  0.00000000000E+00  0.79709429845E+03  0.79709429845E+03  0.00000000000E+00 0. -1.
          1   -1    0    0  501    0 -0.00000000000E+00 -0.00000000000E+00 -0.15702939653E+04  0.15702939653E+04  0.00000000000E+00 0. -1.
         25    2    1    2    0    0 -0.78783082458E+02 -0.52539875512E+02 -0.69537071389E+01  0.15697552355E+03  0.12500299337E+03 0.  0.
          2    1    1    2  501    0  0.39137978338E+02 -0.16286070537E+02 -0.14858419236E+04  0.14864465141E+04  0.00000000000E+00 0. -1.
          1    1    1    2  502    0  0.39645104120E+02  0.68825946049E+02  0.71959596392E+03  0.72396622603E+03  0.00000000000E+00 0. -1.
         22    1    3    3    0    0  0.12629840609E+02 -0.57750242900E+02 -0.24070854390E+02  0.63827967694E+02  0.00000000000E+00 0.  1.
         22    1    3    3    0    0 -0.91412923068E+02  0.52103673880E+01  0.17117147251E+02  0.93147555857E+02  0.00000000000E+00 0.  1.
</event>
<event>
 7    1  0.6146596E-006  0.9249735E+02  0.7818608E-02  0.1376263E+00
          2   -1    0    0  502    0  0.00000000000E+00  0.00000000000E+00  0.81662883955E+03  0.81662883955E+03  0.00000000000E+00 0. -1.
          1   -1    0    0  501    0 -0.00000000000E+00 -0.00000000000E+00 -0.24841141396E+03  0.24841141396E+03  0.00000000000E+00 0. -1.
         25    2    1    2    0    0  0.47007405087E+02 -0.72560498027E+01 -0.47900467917E+02  0.14206472745E+03  0.12500234225E+03 0.  0.
          2    1    1    2  501    0  0.46064193926E+02 -0.48675473256E+01 -0.14699080210E+03  0.15411651073E+03  0.00000000000E+00 0. -1.
          1    1    1    2  502    0 -0.93071599013E+02  0.12123597128E+02  0.76310869560E+03  0.76885901533E+03  0.00000000000E+00 0. -1.
         22    1    3    3    0    0 -0.31602463830E+02 -0.16105326398E+02  0.17381775275E+02  0.39499662912E+02  0.00000000000E+00 0.  1.
         22    1    3    3    0    0  0.78609868917E+02  0.88492765951E+01 -0.65282243192E+02  0.10256506454E+03  0.00000000000E+00 0.  1.
</event>
<event>
 7    1  0.6146596E-006  0.9625465E+02  0.7818608E-02  0.1474365E+00
          2   -1    0    0  502    0  0.00000000000E+00  0.00000000000E+00  0.71095077729E+03  0.71095077729E+03  0.00000000000E+00 0. -1.
          1   -1    0    0  501    0 -0.00000000000E+00 -0.00000000000E+00 -0.15903907483E+03  0.15903907483E+03  0.00000000000E+00 0. -1.
         25    2    1    2    0    0 -0.75127888577E+02 -0.84788609644E+02  0.28916769699E+03  0.33477812425E+03  0.12500051011E+03 0.  0.
          2    1    1    2  501    0  0.14459475787E+02  0.15276533840E+02 -0.13004345617E+03  0.13173363056E+03  0.00000000000E+00 0. -1.
          1    1    1    2  502    0  0.60668412790E+02  0.69512075804E+02  0.39278746164E+03  0.40347809732E+03  0.00000000000E+00 0. -1.
         22    1    3    3    0    0 -0.10263000743E+03 -0.47499332535E+02  0.24891781218E+03  0.27340296677E+03  0.00000000000E+00 0. -1.
         22    1    3    3    0    0  0.27502118854E+02 -0.37289277109E+02  0.40249884807E+02  0.61375157481E+02  0.00000000000E+00 0. -1.
</event>
<event>
 7    1  0.6146596E-006  0.5371757E+02  0.7818608E-02  0.1437150E+00
          2   -1    0    0  502    0  0.00000000000E+00  0.00000000000E+00  0.48568236013E+03  0.48568236013E+03  0.00000000000E+00 0. -1.
          1   -1    0    0  501    0 -0.00000000000E+00 -0.00000000000E+00 -0.28210021035E+04  0.28210021035E+04  0.00000000000E+00 0. -1.
         25    2    1    2    0    0 -0.80464993829E+01 -0.20754388364E+01  0.33476508553E+02  0.12967967989E+03  0.12500835633E+03 0.  0.
          2    1    1    2  501    0  0.41439592005E+02 -0.34426839432E+02 -0.27711235529E+04  0.27716471984E+04  0.00000000000E+00 0. -1.
          1    1    1    2  502    0 -0.33393092622E+02  0.36502278269E+02  0.40232730093E+03  0.40535758538E+03  0.00000000000E+00 0. -1.
         22    1    3    3    0    0  0.30169519934E+02  0.18918038050E+02 -0.34069330432E+02  0.49282972442E+02  0.00000000000E+00 0.  1.
         22    1    3    3    0    0 -0.38216019316E+02 -0.20993476886E+02  0.67545838985E+02  0.80396707447E+02  0.00000000000E+00 0.  1.
</event>
<event>
 7    1  0.6146596E-006  0.1784527E+03  0.7818608E-02  0.1258669E+00
          2   -1    0    0  502    0  0.00000000000E+00  0.00000000000E+00  0.10424245201E+04  0.10424245201E+04  0.00000000000E+00 0. -1.
          1   -1    0    0  501    0 -0.00000000000E+00 -0.00000000000E+00 -0.12465803021E+03  0.12465803021E+03  0.00000000000E+00 0. -1.
         25    2    1    2    0    0 -0.11591889942E+03  0.14277433573E+03  0.33775685814E+03  0.40438391933E+03  0.12499982722E+03 0.  0.
          2    1    1    2  501    0  0.53169471808E+02 -0.17167400401E+03  0.11415812374E+01  0.17972272976E+03  0.00000000000E+00 0. -1.
          1    1    1    2  502    0  0.62749427611E+02  0.28899668277E+02  0.57886805049E+03  0.58297590119E+03  0.00000000000E+00 0. -1.
         22    1    3    3    0    0 -0.24216951817E+02  0.12690539349E+03  0.20245921359E+03  0.24016905050E+03  0.00000000000E+00 0. -1.
         22    1    3    3    0    0 -0.91701947603E+02  0.15868942240E+02  0.13529764455E+03  0.16421486883E+03  0.00000000000E+00 0. -1.
</event>
<event>
 7    1  0.6146596E-006  0.1737042E+03  0.7818608E-02  0.1274252E+00
          2   -1    0    0  502    0  0.00000000000E+00  0.00000000000E+00  0.11607582384E+04  0.11607582384E+04  0.00000000000E+00 0. -1.
          1   -1    0    0  501    0 -0.00000000000E+00 -0.00000000000E+00 -0.74240141791E+03  0.74240141791E+03  0.00000000000E+00 0. -1.
         25    2    1    2    0    0  0.11659342759E+03  0.10356017158E+03  0.62970790036E+02  0.20955526298E+03  0.12501740419E+03 0.  0.
          2    1    1    2  501    0  0.47377038918E+02 -0.38412180022E+02 -0.66009625701E+03  0.66290809914E+03  0.00000000000E+00 0. -1.
          1    1    1    2  502    0 -0.16397046650E+03 -0.65147991561E+02  0.10154822874E+04  0.10306962942E+04  0.00000000000E+00 0. -1.
         22    1    3    3    0    0  0.80138354676E+02  0.36137348333E+01  0.64845967202E+02  0.10315141508E+03  0.00000000000E+00 0.  1.
         22    1    3    3    0    0  0.36455072911E+02  0.99946436750E+02 -0.18751771665E+01  0.10640384791E+03  0.00000000000E+00 0.  1.
</event>
<event>
 7    1  0.6146596E-006  0.1340211E+03  0.7818608E-02  0.1435649E+00
          2   -1    0    0  502    0  0.00000000000E+00  0.00000000000E+00  0.90961795946E+02  0.90961795946E+02  0.00000000000E+00 0. -1.
          1   -1    0    0  501    0 -0.00000000000E+00 -0.00000000000E+00 -0.10019129695E+04  0.10019129695E+04  0.00000000000E+00 0. -1.
         25    2    1    2    0    0  0.11636818879E+03  0.16103477158E+02 -0.60579613080E+03  0.62961486946E+03  0.12500021765E+03 0.  0.
          2    1    1    2  501    0  0.16389477392E+02  0.11556159151E+02 -0.32551448872E+03  0.32613163317E+03  0.00000000000E+00 0. -1.
          1    1    1    2  502    0 -0.13275766618E+03 -0.27659636309E+02  0.20359446009E+02  0.13712826278E+03  0.00000000000E+00 0. -1.
         22    1    3    3    0    0  0.71859223211E+01 -0.15578074195E+02 -0.34118039174E+03  0.34161143655E+03  0.00000000000E+00 0. -1.
         22    1    3    3    0    0  0.10918226647E+03  0.31681551353E+02 -0.26461573906E+03  0.28800343291E+03  0.00000000000E+00 0. -1.
</event>
<event>
 7    1  0.6146596E-006  0.1328277E+03  0.7818608E-02  0.1267855E+00
          2   -1    0    0  502    0  0.00000000000E+00  0.00000000000E+00  0.74727705007E+03  0.74727705007E+03  0.00000000000E+00 0. -1.
          1   -1    0    0  501    0 -0.00000000000E+00 -0.00000000000E+00 -0.19784313913E+04  0.19784313913E+04  0.00000000000E+00 0. -1.
         25    2    1    2    0    0 -0.70147864591E+01  0.10861361814E+03 -0.85218509659E+03  0.86815317123E+03  0.12499745837E+03 0.  0.
          2    1    1    2  501    0 -0.84064964392E+02 -0.11463642994E+02 -0.11106343177E+04  0.11138702443E+04  0.00000000000E+00 0. -1.
          1    1    1    2  502    0  0.91079750851E+02 -0.97149975142E+02  0.73166507304E+03  0.74368502593E+03  0.00000000000E+00 0. -1.
         22    1    3    3    0    0  0.36273370196E+02 -0.10026111154E+02 -0.14649449838E+03  0.15125117634E+03  0.00000000000E+00 0.  1.
         22    1    3    3    0    0 -0.43288156655E+02  0.11863972929E+03 -0.70569059821E+03  0.71690199489E+03  0.00000000000E+00 0.  1.
</event>
<event>
 7    1  0.6146596E-006  0.3182344E+02  0.7818608E-02  0.1629081E+00
          2   -1    0    0  502    0  0.00000000000E+00  0.00000000000E+00  0.21381832496E+04  0.21381832496E+04  0.00000000000E+00 0. -1.
          1   -1    0    0  501    0 -0.00000000000E+00 -0.00000000000E+00 -0.19346449959E+03  0.19346449959E+03  0.00000000000E+00 0. -1.
         25    2    1    2    0    0 -0.86655702375E+01  0.35032911346E+02  0.30623065068E+03  0.33272360549E+03  0.12500155700E+03 0.  0.
          2    1    1    2  501    0 -0.17060281087E+02 -0.16227546451E+02 -0.17930873137E+03  0.18084802349E+03  0.00000000000E+00 0. -1.
          1    1    1    2  502    0  0.25725851325E+02 -0.18805364895E+02  0.18177968307E+04  0.18180761202E+04  0.00000000000E+00 0. -1.
         22    1    3    3    0    0  0.78910740223E+01  0.24395332111E+02  0.31133818257E+03  0.31239216572E+03  0.00000000000E+00 0.  1.
         22    1    3    3    0    0 -0.16556644260E+02  0.10637579235E+02 -0.51075318922E+01  0.20331439771E+02  0.00000000000E+00 0.  1.
</event>
<event>
 7    1  0.6146596E-006  0.1073580E+03  0.7818608E-02  0.1394056E+00
          2   -1    0    0  502    0  0.00000000000E+00  0.00000000000E+00  0.14934186523E+04  0.14934186523E+04  0.00000000000E+00 0. -1.
          1   -1    0    0  501    0 -0.00000000000E+00 -0.00000000000E+00 -0.75207263472E+03  0.75207263472E+03  0.00000000000E+00 0. -1.
         25    2    1    2    0    0 -0.11606636664E+03 -0.32799654394E+02  0.22792249438E+03  0.28656739665E+03  0.12499996233E+03 0.  0.
          2    1    1    2  501    0  0.94113280047E+01  0.33250087243E+02 -0.72003449161E+03  0.72086323981E+03  0.00000000000E+00 0. -1.
          1    1    1    2  502    0  0.10665503863E+03 -0.45043284926E+00  0.12334580148E+04  0.12380606505E+04  0.00000000000E+00 0. -1.
         22    1    3    3    0    0 -0.84066075566E+02 -0.31674951823E+02  0.44282260148E+02  0.10015650851E+03  0.00000000000E+00 0. -1.
         22    1    3    3    0    0 -0.32000291070E+02 -0.11247025708E+01  0.18364023424E+03  0.18641088813E+03  0.00000000000E+00 0. -1.
</event>
<event>
 7    1  0.6146596E-006  0.3099772E+02  0.7818608E-02  0.1601645E+00
          2   -1    0    0  502    0  0.00000000000E+00  0.00000000000E+00  0.47498599662E+03  0.47498599662E+03  0.00000000000E+00 0. -1.
          1   -1    0    0  501    0 -0.00000000000E+00 -0.00000000000E+00 -0.20104815866E+02  0.20104815866E+02  0.00000000000E+00 0. -1.
         25    2    1    2    0    0  0.17881405868E+01 -0.10458466562E+02  0.29941864120E+03  0.32463654051E+03  0.12499913506E+03 0.  0.
          2    1    1    2  501    0 -0.30447030044E+02 -0.58169816353E+01  0.41356347778E+02  0.51683715186E+02  0.00000000000E+00 0. -1.
          1    1    1    2  502    0  0.28658889457E+02  0.16275448197E+02  0.11410619178E+03  0.11877055679E+03  0.00000000000E+00 0. -1.
         22    1    3    3    0    0  0.42462892291E+02 -0.47597485826E+02  0.10778678175E+03  0.12524619036E+03  0.00000000000E+00 0.  1.
         22    1    3    3    0    0 -0.40674751704E+02  0.37139019264E+02  0.19163185945E+03  0.19939035015E+03  0.00000000000E+00 0.  1.
</event>
<event>
 7    1  0.6146596E-006  0.1703078E+03  0.7818608E-02  0.1340417E+00
          2   -1    0    0  502    0  0.00000000000E+00  0.00000000000E+00  0.18363420310E+04  0.18363420310E+04  0.00000000000E+00 0. -1.
          1   -1    0    0  501    0 -0.00000000000E+00 -0.00000000000E+00 -0.20998734625E+03  0.20998734625E+03  0.00000000000E+00 0. -1.
         25    2    1    2    0    0  0.88608262478E+02 -0.16867191127E+03  0.31609804010E+03  0.38967182048E+03  0.12499807556E+03 0.  0.
          2    1    1    2  501    0 -0.98681117517E+02  0.13616872695E+03 -0.13213285351E+03  0.21386672516E+03  0.00000000000E+00 0. -1.
          1    1    1    2  502    0  0.10072855040E+02  0.32503184326E+02  0.14423894982E+04  0.14427908317E+04  0.00000000000E+00 0. -1.
         22    1    3    3    0    0  0.48305723574E+02 -0.15298225477E+03  0.15575789095E+03  0.22360128309E+03  0.00000000000E+00 0. -1.
         22    1    3    3    0    0  0.40302538904E+02 -0.15689656506E+02  0.16034014915E+03  0.16607053740E+03  0.00000000000E+00 0. -1.
</event>
<event>
 7    1  0.6146596E-006  0.8150407E+02  0.7818608E-02  0.1436125E+00
          2   -1    0    0  502    0  0.00000000000E+00  0.00000000000E+00  0.35481812895E+03  0.35481812895E+03  0.00000000000E+00 0. -1.
          1   -1    0    0  501    0 -0.00000000000E+00 -0.00000000000E+00 -0.30237680113E+03  0.30237680113E+03  0.00000000000E+00 0. -1.
         25    2    1    2    0    0 -0.46026093296E+02  0.37950234099E+02  0.81216227830E+02  0.16055935119E+03  0.12499843223E+03 0.  0.
          2    1    1    2  501    0  0.77632514499E+02 -0.28968386204E+02 -0.25495455287E+03  0.26808170161E+03  0.00000000000E+00 0. -1.
          1    1    1    2  502    0 -0.31606421204E+02 -0.89818478950E+01  0.22617965286E+03  0.22855387729E+03  0.00000000000E+00 0. -1.
         22    1    3    3    0    0  0.16974552620E+02 -0.16682055576E+02  0.72981964281E+02  0.76764532990E+02  0.00000000000E+00 0.  1.
         22    1    3    3    0    0 -0.63000645916E+02  0.54632289676E+02  0.82342635488E+01  0.83794818200E+02  0.00000000000E+00 0.  1.
</event>
<event>
 7    1  0.6146596E-006  0.1093019E+03  0.7818608E-02  0.1452016E+00
          2   -1    0    0  502    0  0.00000000000E+00  0.00000000000E+00  0.36766835133E+03  0.36766835133E+03  0.00000000000E+00 0. -1.
          1   -1    0    0  501    0 -0.00000000000E+00 -0.00000000000E+00 -0.94188562380E+03  0.94188562380E+03  0.00000000000E+00 0. -1.
         25    2    1    2    0    0 -0.10364956801E+03  0.72851364332E+02 -0.35100117289E+03  0.39354494382E+03  0.12500098080E+03 0.  0.
          2    1    1    2  501    0  0.88340393915E+02 -0.57369356732E+02 -0.56439292054E+03  0.57413816895E+03  0.00000000000E+00 0. -1.
          1    1    1    2  502    0  0.15309174096E+02 -0.15482007599E+02  0.34117682096E+03  0.34187086236E+03  0.00000000000E+00 0. -1.
         22    1    3    3    0    0 -0.15759050970E+02 -0.24025500251E+02 -0.13825806048E+02  0.31886129628E+02  0.00000000000E+00 0.  1.
         22    1    3    3    0    0 -0.87890517041E+02  0.96876864583E+02 -0.33717536684E+03  0.36165881419E+03  0.00000000000E+00 0.  1.
</event>
<event>
 7    1  0.6146596E-006  0.7962571E+02  0.7818608E-02  0.1449987E+00
          2   -1    0    0  502    0  0.00000000000E+00  0.00000000000E+00  0.68006907791E+03  0.68006907791E+03  0.00000000000E+00 0. -1.
          1   -1    0    0  501    0 -0.00000000000E+00 -0.00000000000E+00 -0.97900159508E+03  0.97900159508E+03  0.00000000000E+00 0. -1.
         25    2    1    2    0    0 -0.22887501736E+02  0.10534830122E+03  0.97748521796E+02  0.19183918593E+03  0.12500158975E+03 0.  0.
          2    1    1    2  501    0  0.25428528667E+02 -0.75117754859E+02 -0.92983715701E+03  0.93321295840E+03  0.00000000000E+00 0. -1.
          1    1    1    2  502    0 -0.25410269304E+01 -0.30230546361E+02  0.53315611804E+03  0.53401852866E+03  0.00000000000E+00 0. -1.
         22    1    3    3    0    0  0.44420662461E+02  0.61909457914E+01  0.20969483071E+02  0.49510022051E+02  0.00000000000E+00 0. -1.
         22    1    3    3    0    0 -0.67308164197E+02  0.99157355428E+02  0.76779038725E+02  0.14232916388E+03  0.00000000000E+00 0. -1.
</event>
<event>
 7    1  0.6146596E-006  0.9298420E+02  0.7818608E-02  0.1409489E+00
          2   -1    0    0  502    0  0.00000000000E+00  0.00000000000E+00  0.43482141755E+03  0.43482141755E+03  0.00000000000E+00 0. -1.
          1   -1    0    0  501    0 -0.00000000000E+00 -0.00000000000E+00 -0.37522416564E+03  0.37522416564E+03  0.00000000000E+00 0. -1.
         25    2    1    2    0    0 -0.10147988195E+03  0.41302763279E+02  0.17091464675E+03  0.23841350574E+03  0.12500039422E+03 0.  0.
          2    1    1    2  501    0  0.92348641237E+02 -0.71833722587E+01 -0.33377427301E+03  0.34638870896E+03  0.00000000000E+00 0. -1.
          1    1    1    2  502    0  0.91312407091E+01 -0.34119391020E+02  0.22245687817E+03  0.22524336849E+03  0.00000000000E+00 0. -1.
         22    1    3    3    0    0 -0.82523046093E+02  0.83550404920E+02  0.14002421674E+03  0.18274984151E+03  0.00000000000E+00 0.  1.
         22    1    3    3    0    0 -0.18956835853E+02 -0.42247641642E+02  0.30890430006E+02  0.55663664233E+02  0.00000000000E+00 0.  1.
</event>
<event>
 7    1  0.6146596E-006  0.2184306E+03  0.7818608E-02  0.1202154E+00
          2   -1    0    0  502    0  0.00000000000E+00  0.00000000000E+00  0.10528882581E+04  0.10528882581E+04  0.00000000000E+00 0. -1.
          1   -1    0    0  501    0 -0.00000000000E+00 -0.00000000000E+00 -0.34105473232E+03  0.34105473232E+03  0.00000000000E+00 0. -1.
         25    2    1    2    0    0 -0.14693575199E+03 -0.26198759998E+02  0.67653812379E+02  0.20610396040E+03  0.12500125569E+03 0.  0.
          2    1    1    2  501    0 -0.86411085471E+02  0.52575660369E+02 -0.24664593686E+03  0.26658074560E+03  0.00000000000E+00 0. -1.
          1    1    1    2  502    0  0.23334683747E+03 -0.26376900371E+02  0.89082565029E+03  0.92125828444E+03  0.00000000000E+00 0. -1.
         22    1    3    3    0    0 -0.16507200709E+03 -0.34505272906E+02  0.42337712766E+02  0.17387312416E+03  0.00000000000E+00 0. -1.
         22    1    3    3    0    0  0.18136255092E+02  0.83065129081E+01  0.25316099613E+02  0.32230836246E+02  0.00000000000E+00 0. -1.
</event>
<event>
 7    1  0.6146596E-006  0.2214860E+03  0.7818608E-02  0.1195635E+00
          2   -1    0    0  502    0  0.00000000000E+00  0.00000000000E+00  0.65061261802E+03  0.65061261802E+03  0.00000000000E+00 0. -1.
          1   -1    0    0  501    0 -0.00000000000E+00 -0.00000000000E+00 -0.20324404701E+03  0.20324404701E+03  0.00000000000E+00 0. -1.
         25    2    1    2    0    0  0.46130878310E+02  0.19401471513E+03  0.18336883701E+03  0.29835604180E+03  0.12498971826E+03 0.  0.
          2    1    1    2  501    0 -0.96841280835E+02  0.45706100212E+02 -0.79638299562E+02  0.13345238862E+03  0.00000000000E+00 0. -1.
          1    1    1    2  502    0  0.50710402525E+02 -0.23972081534E+03  0.34363803357E+03  0.42204823462E+03  0.00000000000E+00 0. -1.
         22    1    3    3    0    0  0.38044205531E+01  0.17840815334E+03  0.17945086488E+03  0.25307420987E+03  0.00000000000E+00 0.  1.
         22    1    3    3    0    0  0.42326457757E+02  0.15606561789E+02  0.39179721238E+01  0.45281831927E+02  0.00000000000E+00 0.  1.
</event>
<event>
 7    1  0.6146596E-006  0.5830138E+02  0.7818608E-02  0.1503973E+00
          2   -1    0    0  502    0  0.00000000000E+00  0.00000000000E+00  0.48191648942E+03  0.48191648942E+03  0.00000000000E+00 0. -1.
          1   -1    0    0  501    0 -0.00000000000E+00 -0.00000000000E+00 -0.29731806919E+03  0.29731806919E+03  0.00000000000E+00 0. -1.
         25    2    1    2    0    0  0.68516020999E+02 -0.41689767678E+02 -0.22477031575E+02  0.15017871204E+03  0.12496378171E+03 0.  0.
          2    1    1    2  501    0 -0.13120493572E+02  0.25015775544E+02 -0.20802978414E+03  0.20993886602E+03  0.00000000000E+00 0. -1.
          1    1    1    2  502    0 -0.55395527427E+02  0.16673992134E+02  0.41510523594E+03  0.41911698054E+03  0.00000000000E+00 0. -1.
         22    1    3    3    0    0 -0.35191339967E+01  0.38701095374E+02 -0.16048437425E+02  0.42044160486E+02  0.00000000000E+00 0.  1.
         22    1    3    3    0    0  0.72035154995E+02 -0.80390863052E+02 -0.64285941492E+01  0.10813455156E+03  0.00000000000E+00 0.  1.
</event>
<event>
 7    1  0.6146596E-006  0.4983125E+02  0.7818608E-02  0.1473377E+00
          2   -1    0    0  502    0  0.00000000000E+00  0.00000000000E+00  0.22633552557E+04  0.22633552557E+04  0.00000000000E+00 0. -1.
          1   -1    0    0  501    0 -0.00000000000E+00 -0.00000000000E+00 -0.14699728363E+03  0.14699728363E+03  0.00000000000E+00 0. -1.
         25    2    1    2    0    0  0.38942502993E+02  0.16112438530E+01  0.14803443051E+03  0.19763168272E+03  0.12499989901E+03 0.  0.
          2    1    1    2  501    0 -0.29189500885E+02 -0.41349280201E+02 -0.11674827812E+03  0.12724759479E+03  0.00000000000E+00 0. -1.
          1    1    1    2  502    0 -0.97530021083E+01  0.39738036348E+02  0.20850718197E+04  0.20854732619E+04  0.00000000000E+00 0. -1.
         22    1    3    3    0    0 -0.34419840232E+02  0.44778952476E+01  0.10918274235E+03  0.11456722121E+03  0.00000000000E+00 0.  1.
         22    1    3    3    0    0  0.73362343225E+02 -0.28666513947E+01  0.38851688155E+02  0.83064461511E+02  0.00000000000E+00 0.  1.
</event>
<event>
 7    1  0.6146596E-006  0.1118018E+03  0.7818608E-02  0.1280327E+00
          2   -1    0    0  502    0  0.00000000000E+00  0.00000000000E+00  0.79047964215E+03  0.79047964215E+03  0.00000000000E+00 0. -1.
          1   -1    0    0  501    0 -0.00000000000E+00 -0.00000000000E+00 -0.79894067151E+03  0.79894067151E+03  0.00000000000E+00 0. -1.
         25    2    1    2    0    0  0.15632048206E+03 -0.13000762035E+02  0.15077586129E+03  0.25092364691E+03  0.12499681320E+03 0.  0.
          2    1    1    2  501    0 -0.97332177356E+02 -0.54199274950E+02 -0.74129036782E+03  0.74961491686E+03  0.00000000000E+00 0. -1.
          1    1    1    2  502    0 -0.58988304701E+02  0.67200036986E+02  0.58205347718E+03  0.58888174989E+03  0.00000000000E+00 0. -1.
         22    1    3    3    0    0  0.97356272812E+02 -0.57671269092E+02  0.44840742550E+02  0.12171652035E+03  0.00000000000E+00 0.  1.
         22    1    3    3    0    0  0.58964209244E+02  0.44670507056E+02  0.10593511874E+03  0.12920712656E+03  0.00000000000E+00 0.  1.
</event>
<event>
 7    1  0.6146596E-006  0.1915966E+03  0.7818608E-02  0.1331032E+00
          2   -1    0    0  502    0  0.00000000000E+00  0.00000000000E+00  0.29353548841E+03  0.29353548841E+03  0.00000000000E+00 0. -1.
          1   -1    0    0  501    0 -0.00000000000E+00 -0.00000000000E+00 -0.93630645009E+03  0.93630645009E+03  0.00000000000E+00 0. -1.
         25    2    1    2    0    0  0.10566782199E+03  0.13627772467E+03 -0.66438637404E+03  0.69769010415E+03  0.12499968228E+03 0.  0.
          2    1    1    2  501    0  0.32744932447E+02 -0.23136016964E+01 -0.22040302818E+03  0.22283419438E+03  0.00000000000E+00 0. -1.
          1    1    1    2  502    0 -0.13841275444E+03 -0.13396412298E+03  0.24201844054E+03  0.30931763997E+03  0.00000000000E+00 0. -1.
         22    1    3    3    0    0 -0.24078124845E+02  0.34445486125E+01 -0.46101199740E+02  0.52124290198E+02  0.00000000000E+00 0. -1.
         22    1    3    3    0    0  0.12974594684E+03  0.13283317606E+03 -0.61828517430E+03  0.64556581395E+03  0.00000000000E+00 0. -1.
</event>
<event>
 7    1  0.6146596E-006  0.1452925E+03  0.7818608E-02  0.1226423E+00
          2   -1    0    0  502    0  0.00000000000E+00  0.00000000000E+00  0.30464672993E+03  0.30464672993E+03  0.00000000000E+00 0. -1.
          1   -1    0    0  501    0 -0.00000000000E+00 -0.00000000000E+00 -0.14692862107E+04  0.14692862107E+04  0.00000000000E+00 0. -1.
         25    2    1    2    0    0 -0.17065221535E+03 -0.93335243395E+02 -0.90305339588E+03  0.93218291238E+03  0.12500360020E+03 0.  0.
          2    1    1    2  501    0  0.27118294704E+02  0.11439994744E+03 -0.52663371117E+03  0.53959782767E+03  0.00000000000E+00 0. -1.
          1    1    1    2  502    0  0.14353392065E+03 -0.21064704047E+02  0.26504762627E+03  0.30215220059E+03  0.00000000000E+00 0. -1.
         22    1    3    3    0    0 -0.15750852141E+03 -0.10428111793E+03 -0.89208010590E+03  0.91186095498E+03  0.00000000000E+00 0. -1.
         22    1    3    3    0    0 -0.13143693939E+02  0.10945874533E+02 -0.10973289980E+02  0.20321957402E+02  0.00000000000E+00 0. -1.
</event>
<event>
 7    1  0.6146596E-006  0.1649164E+03  0.7818608E-02  0.1282928E+00
          2   -1    0    0  502    0  0.00000000000E+00  0.00000000000E+00  0.74483488384E+03  0.74483488384E+03  0.00000000000E+00 0. -1.
          1   -1    0    0  501    0 -0.00000000000E+00 -0.00000000000E+00 -0.15630237869E+04  0.15630237869E+04  0.00000000000E+00 0. -1.
         25    2    1    2    0    0 -0.93897517088E+02 -0.11212359240E+03  0.15934234382E+03  0.24980562951E+03  0.12499770523E+03 0.  0.
          2    1    1    2  501    0  0.32725324017E+02 -0.49261205318E+02 -0.15034122475E+04  0.15045750227E+04  0.00000000000E+00 0. -1.
          1    1    1    2  502    0  0.61172193071E+02  0.16138479772E+03  0.52588100061E+03  0.55347801848E+03  0.00000000000E+00 0. -1.
         22    1    3    3    0    0 -0.35496427342E+02 -0.30983057963E+02  0.14034696503E+03  0.14804464471E+03  0.00000000000E+00 0.  1.
         22    1    3    3    0    0 -0.58401089746E+02 -0.81140534434E+02  0.18995378789E+02  0.10176098480E+03  0.00000000000E+00 0.  1.
</event>
<event>
 7    1  0.6146596E-006  0.8244225E+02  0.7818608E-02  0.1369487E+00
          2   -1    0    0  502    0  0.00000000000E+00  0.00000000000E+00  0.35144400879E+03  0.35144400879E+03  0.00000000000E+00 0. -1.
          1   -1    0    0  501    0 -0.00000000000E+00 -0.00000000000E+00 -0.19718384410E+04  0.19718384410E+04  0.00000000000E+00 0. -1.
         25    2    1    2    0    0 -0.10880199097E+03  0.61603035858E+02  0.45779505142E+02  0.18263007770E+03  0.12500069969E+03 0.  0.
          2    1    1    2  501    0  0.80922149358E+02 -0.14244835185E+02 -0.18993304354E+04  0.19011068914E+04  0.00000000000E+00 0. -1.
          1    1    1    2  502    0  0.27879841615E+02 -0.47358200673E+02  0.23315649806E+03  0.23954548070E+03  0.00000000000E+00 0. -1.
         22    1    3    3    0    0 -0.12278279922E+03  0.82678189216E+02  0.51450297847E+02  0.15671130114E+03  0.00000000000E+00 0.  1.
         22    1    3    3    0    0  0.13980808247E+02 -0.21075153359E+02 -0.56707927055E+01  0.25918776558E+02  0.00000000000E+00 0.  1.
</event>
<event>
 7    1  0.6146596E-006  0.7533243E+02  0.7818608E-02  0.1457000E+00
          2   -1    0    0  502    0  0.00000000000E+00  0.00000000000E+00  0.35090039986E+03  0.35090039986E+03  0.00000000000E+00 0. -1.
          1   -1    0    0  501    0 -0.00000000000E+00 -0.00000000000E+00 -0.76595550694E+03  0.76595550694E+03  0.00000000000E+00 0. -1.
         25    2    1    2    0    0 -0.51248913066E+02 -0.13091102975E+02 -0.31489127760E+03  0.34289874247E+03  0.12500081124E+03 0.  0.
          2    1    1    2  501    0  0.74969710391E+02  0.32198095455E+02 -0.43255015637E+03  0.44017816007E+03  0.00000000000E+00 0. -1.
          1    1    1    2  502    0 -0.23720797325E+02 -0.19106992480E+02  0.33238632688E+03  0.33377900426E+03  0.00000000000E+00 0. -1.
         22    1    3    3    0    0 -0.71131404917E+02 -0.34436929530E+02 -0.10727040462E+03  0.13323857771E+03  0.00000000000E+00 0. -1.
         22    1    3    3    0    0  0.19882491851E+02  0.21345826555E+02 -0.20762087298E+03  0.20966016477E+03  0.00000000000E+00 0. -1.
</event>
<event>
 7    1  0.6146596E-006  0.1068510E+03  0.7818608E-02  0.1315589E+00
          2   -1    0    0  502    0  0.00000000000E+00  0.00000000000E+00  0.20873018172E+04  0.20873018172E+04  0.00000000000E+00 0. -1.
          1   -1    0    0  501    0 -0.00000000000E+00 -0.00000000000E+00 -0.32052959410E+03  0.32052959410E+03  0.00000000000E+00 0. -1.
         25    2    1    2    0    0  0.19731028437E+02 -0.36649133866E+02  0.31282326485E+03  0.33943410583E+03  0.12499857867E+03 0.  0.
          2    1    1    2  501    0 -0.61160699720E+02  0.89967350907E+02 -0.29692258530E+03  0.31622425125E+03  0.00000000000E+00 0. -1.
          1    1    1    2  502    0  0.41429671282E+02 -0.53318217040E+02  0.17508715435E+04  0.17521730542E+04  0.00000000000E+00 0. -1.
         22    1    3    3    0    0  0.17244697215E+02  0.43254268219E+02  0.72522418794E+02  0.86184758101E+02  0.00000000000E+00 0. -1.
         22    1    3    3    0    0  0.24863312228E+01 -0.79903402085E+02  0.24030084606E+03  0.25324934773E+03  0.00000000000E+00 0. -1.
</event>
<event>
 7    1  0.6146596E-006  0.1531003E+03  0.7818608E-02  0.1407967E+00
          2   -1    0    0  502    0  0.00000000000E+00  0.00000000000E+00  0.13083419184E+04  0.13083419184E+04  0.00000000000E+00 0. -1.
          1   -1    0    0  501    0 -0.00000000000E+00 -0.00000000000E+00 -0.11213932372E+04  0.11213932372E+04  0.00000000000E+00 0. -1.
         25    2    1    2    0    0 -0.63225139104E+02  0.13838789179E+03  0.47939790372E+03  0.51826270514E+03  0.12500101858E+03 0.  0.
          2    1    1    2  501    0 -0.19823769356E+02 -0.88464505271E+01 -0.10945397736E+04  0.10947550217E+04  0.00000000000E+00 0. -1.
          1    1    1    2  502    0  0.83048908459E+02 -0.12954144126E+03  0.80209055115E+03  0.81671742877E+03  0.00000000000E+00 0. -1.
         22    1    3    3    0    0 -0.75568907160E+01 -0.21591756413E+02  0.10294658700E+03  0.10545762333E+03  0.00000000000E+00 0.  1.
         22    1    3    3    0    0 -0.55668248388E+02  0.15997964820E+03  0.37645131671E+03  0.41280508181E+03  0.00000000000E+00 0.  1.
</event>
<event>
 7    1  0.6146596E-006  0.1158894E+03  0.7818608E-02  0.1345261E+00
          2   -1    0    0  502    0  0.00000000000E+00  0.00000000000E+00  0.24607079616E+04  0.24607079616E+04  0.00000000000E+00 0. -1.
          1   -1    0    0  501    0 -0.00000000000E+00 -0.00000000000E+00 -0.21139159671E+02  0.21139159671E+02  0.00000000000E+00 0. -1.
         25    2    1    2    0    0 -0.84798601000E+02  0.19545687939E+02  0.11007259148E+04  0.11112138150E+04  0.12500306579E+03 0.  0.
          2    1    1    2  501    0  0.10602618433E+03 -0.62552791679E+02  0.23101475638E+03  0.26176749450E+03  0.00000000000E+00 0. -1.
          1    1    1    2  502    0 -0.21227583333E+02  0.43007103739E+02  0.11078281307E+04  0.11088658117E+04  0.00000000000E+00 0. -1.
         22    1    3    3    0    0 -0.70501349160E+02  0.64621862881E+02  0.89638232328E+03  0.90146974153E+03  0.00000000000E+00 0. -1.
         22    1    3    3    0    0 -0.14297251840E+02 -0.45076174942E+02  0.20434359156E+03  0.20974407350E+03  0.00000000000E+00 0. -1.
</event>
<event>
 7    1  0.6146596E-006  0.1457351E+03  0.7818608E-02  0.1299677E+00
          2   -1    0    0  502    0  0.00000000000E+00  0.00000000000E+00  0.11421520143E+03  0.11421520143E+03  0.00000000000E+00 0. -1.
          1   -1    0    0  501    0 -0.00000000000E+00 -0.00000000000E+00 -0.13576381934E+04  0.13576381934E+04  0.00000000000E+00 0. -1.
         25    2    1    2    0    0 -0.76546345670E+02 -0.12210158381E+03 -0.21486356809E+03  0.28733181455E+03  0.12500031581E+03 0.  0.
          2    1    1    2  501    0 -0.44567105124E+02  0.35899239796E+02 -0.10341750108E+04  0.10357571796E+04  0.00000000000E+00 0. -1.
          1    1    1    2  502    0  0.12111345079E+03  0.86202344018E+02  0.56155868983E+01  0.14876440063E+03  0.00000000000E+00 0. -1.
         22    1    3    3    0    0 -0.40835609586E+02  0.44257993386E+01 -0.74252367723E+01  0.41740494142E+02  0.00000000000E+00 0.  1.
         22    1    3    3    0    0 -0.35710736084E+02 -0.12652738315E+03 -0.20743833132E+03  0.24559132041E+03  0.00000000000E+00 0.  1.
</event>
<event>
 7    1  0.6146596E-006  0.3380186E+03  0.7818608E-02  0.1242975E+00
          2   -1    0    0  502    0  0.00000000000E+00  0.00000000000E+00  0.30226829381E+03  0.30226829381E+03  0.00000000000E+00 0. -1.
          1   -1    0    0  501    0 -0.00000000000E+00 -0.00000000000E+00 -0.88200135359E+03  0.88200135359E+03  0.00000000000E+00 0. -1.
         25    2    1    2    0    0 -0.14466637651E+03 -0.30465566823E+03 -0.34931393053E+03  0.50138765843E+03  0.12500370108E+03 0.  0.
          2    1    1    2  501    0  0.10610564720E+03  0.32288766637E+03 -0.39022326849E+03  0.51748338402E+03  0.00000000000E+00 0. -1.
          1    1    1    2  502    0  0.38560729310E+02 -0.18231998137E+02  0.15980413924E+03  0.16539860495E+03  0.00000000000E+00 0. -1.
         22    1    3    3    0    0 -0.44070320573E+02 -0.23704894650E+02 -0.10274854446E+03  0.11428638841E+03  0.00000000000E+00 0. -1.
         22    1    3    3    0    0 -0.10059605593E+03 -0.28095077358E+03 -0.24656538607E+03  0.38710127002E+03  0.00000000000E+00 0. -1.
</event>
<event>
 7    1  0.6146596E-006  0.7127677E+02  0.7818608E-02  0.1450608E+00
          2   -1    0    0  502    0  0.00000000000E+00  0.00000000000E+00  0.14330448128E+04  0.14330448128E+04  0.00000000000E+00 0. -1.
          1   -1    0    0  501    0 -0.00000000000E+00 -0.00000000000E+00 -0.22708366465E+04  0.22708366465E+04  0.00000000000E+00 0. -1.
         25    2    1    2    0    0 -0.73699958841E+02  0.55847340394E+02  0.56293318115E+02  0.16537222107E+03  0.12501369715E+03 0.  0.
          2    1    1    2  501    0  0.33623902653E+02  0.27461698897E+01 -0.22152158536E+04  0.22154727229E+04  0.00000000000E+00 0. -1.
          1    1    1    2  502    0  0.40076056188E+02 -0.58593510284E+02  0.13211307018E+04  0.13230365153E+04  0.00000000000E+00 0. -1.
         22    1    3    3    0    0 -0.44049418312E+01 -0.89005108306E+01 -0.33396155520E+02  0.34841438103E+02  0.00000000000E+00 0. -1.
         22    1    3    3    0    0 -0.69295017010E+02  0.64747851225E+02  0.89689473635E+02  0.13053078297E+03  0.00000000000E+00 0. -1.
</event>
<event>
 7    1  0.6146596E-006  0.3982659E+02  0.7818608E-02  0.1562015E+00
          2   -1    0    0  502    0  0.00000000000E+00  0.00000000000E+00  0.20182298830E+03  0.20182298830E+03  0.00000000000E+00 0. -1.
          1   -1    0    0  501    0 -0.00000000000E+00 -0.00000000000E+00 -0.96992335040E+03  0.96992335040E+03  0.00000000000E+00 0. -1.
         25    2    1    2    0    0 -0.16882207815E+02 -0.50351563370E+01  0.89353829577E+02  0.15466175324E+03  0.12500315721E+03 0.  0.
          2    1    1    2  501    0 -0.18681842929E+02 -0.21172461754E+02 -0.93092588904E+03  0.93135401179E+03  0.00000000000E+00 0. -1.
          1    1    1    2  502    0  0.35564050744E+02  0.26207618091E+02  0.73471697356E+02  0.85730573681E+02  0.00000000000E+00 0. -1.
         22    1    3    3    0    0  0.14038462921E+02  0.20478614787E+02 -0.23936603211E+02  0.34487868564E+02  0.00000000000E+00 0.  1.
         22    1    3    3    0    0 -0.30920670736E+02 -0.25513771124E+02  0.11329043279E+03  0.12017388467E+03  0.00000000000E+00 0.  1.
</event>
<event>
 7    1  0.6146596E-006  0.5441258E+02  0.7818608E-02  0.1497232E+00
          2   -1    0    0  502    0  0.00000000000E+00  0.00000000000E+00  0.88436479585E+03  0.88436479585E+03  0.00000000000E+00 0. -1.
          1   -1    0    0  501    0 -0.00000000000E+00 -0.00000000000E+00 -0.12663119113E+03  0.12663119113E+03  0.00000000000E+00 0. -1.
         25    2    1    2    0    0  0.23278143071E+02 -0.10762202027E+02  0.25775698607E+03  0.28761369594E+03  0.12500110913E+03 0.  0.
          2    1    1    2  501    0 -0.40677948785E+02  0.37260501613E+02 -0.10445148487E+03  0.11812346587E+03  0.00000000000E+00 0. -1.
          1    1    1    2  502    0  0.17399805714E+02 -0.26498299586E+02  0.60442810352E+03  0.60525882517E+03  0.00000000000E+00 0. -1.
         22    1    3    3    0    0 -0.25214362135E+02 -0.28042147235E+02  0.22140387169E+03  0.22459252098E+03  0.00000000000E+00 0. -1.
         22    1    3    3    0    0  0.48492505207E+02  0.17279945208E+02  0.36353114379E+02  0.63021174955E+02  0.00000000000E+00 0. -1.
</event>
<event>
 7    1  0.6146596E-006  0.9403927E+02  0.7818608E-02  0.1468237E+00
          2   -1    0    0  502    0  0.00000000000E+00  0.00000000000E+00  0.21033312642E+04  0.21033312642E+04  0.00000000000E+00 0. -1.
          1   -1    0    0  501    0 -0.00000000000E+00 -0.00000000000E+00 -0.48990077079E+02  0.48990077079E+02  0.00000000000E+00 0. -1.
         25    2    1    2    0    0 -0.37425469394E+02 -0.62750754178E+02  0.25181143093E+03  0.29047134424E+03  0.12500512857E+03 0.  0.
          2    1    1    2  501    0 -0.87357847306E+01 -0.20728733237E+02 -0.23963702846E+02  0.32867208134E+02  0.00000000000E+00 0. -1.
          1    1    1    2  502    0  0.46161254125E+02  0.83479487415E+02  0.18264934590E+04  0.18289827889E+04  0.00000000000E+00 0. -1.
         22    1    3    3    0    0  0.42848490838E+02 -0.18596050622E+02  0.47801013931E+02  0.66833698077E+02  0.00000000000E+00 0.  1.
         22    1    3    3    0    0 -0.80273960232E+02 -0.44154703557E+02  0.20401041700E+03  0.22363764616E+03  0.00000000000E+00 0.  1.
</event>
<event>
 7    1  0.6146596E-006  0.1399710E+03  0.7818608E-02  0.1233967E+00
          2   -1    0    0  502    0  0.00000000000E+00  0.00000000000E+00  0.19162511239E+04  0.19162511239E+04  0.00000000000E+00 0. -1.
          1   -1    0    0  501    0 -0.00000000000E+00 -0.00000000000E+00 -0.45967163477E+03  0.45967163477E+03  0.00000000000E+00 0. -1.
         25    2    1    2    0    0  0.21324849938E+03  0.45181713563E+02  0.87718665766E+02  0.26614841339E+03  0.12499641553E+03 0.  0.
          2    1    1    2  501    0 -0.10518052941E+03  0.41025481868E+02 -0.35903004175E+03  0.37636233181E+03  0.00000000000E+00 0. -1.
          1    1    1    2  502    0 -0.10806796998E+03 -0.86207195431E+02  0.17278908651E+04  0.17334120135E+04  0.00000000000E+00 0. -1.
         22    1    3    3    0    0  0.19869661888E+03  0.76777464896E+02  0.58985611058E+02  0.22103037751E+03  0.00000000000E+00 0. -1.
         22    1    3    3    0    0  0.14551880500E+02 -0.31595751333E+02  0.28733054708E+02  0.45118035875E+02  0.00000000000E+00 0. -1.
</event>
<event>
 7    1  0.6146596E-006  0.4190837E+02  0.7818608E-02  0.1507173E+00
          2   -1    0    0  502    0  0.00000000000E+00  0.00000000000E+00  0.26533536482E+04  0.26533536482E+04  0.00000000000E+00 0. -1.
          1   -1    0    0  501    0 -0.00000000000E+00 -0.00000000000E+00 -0.80681415332E+02  0.80681415332E+02  0.00000000000E+00 0. -1.
         25    2    1    2    0    0 -0.60032120090E+02 -0.15065952090E+02  0.45793403851E+03  0.47870541897E+03  0.12499782467E+03 0.  0.
          2    1    1    2  501    0  0.38339542264E+02 -0.16679282231E+02 -0.63894043378E+02  0.76358154352E+02  0.00000000000E+00 0. -1.
          1    1    1    2  502    0  0.21692577826E+02  0.31745234321E+02  0.21786322377E+04  0.21789714902E+04  0.00000000000E+00 0. -1.
         22    1    3    3    0    0 -0.36475074496E+02 -0.70274144320E+02  0.27541000181E+03  0.28656509821E+03  0.00000000000E+00 0. -1.
         22    1    3    3    0    0 -0.23557045594E+02  0.55208192230E+02  0.18252403670E+03  0.19214032076E+03  0.00000000000E+00 0. -1.
</event>
<event>
 7    1  0.6146596E-006  0.4403368E+02  0.7818608E-02  0.1498759E+00
          2   -1    0    0  502    0  0.00000000000E+00  0.00000000000E+00  0.17874831573E+04  0.17874831573E+04  0.00000000000E+00 0. -1.
          1   -1    0    0  501    0 -0.00000000000E+00 -0.00000000000E+00 -0.19243395397E+03  0.19243395397E+03  0.00000000000E+00 0. -1.
         25    2    1    2    0    0 -0.41547669083E+02 -0.46567955994E+01  0.45973341889E+02  0.13959461247E+03  0.12500085246E+03 0.  0.
          2    1    1    2  501    0  0.11508924081E+02  0.37014210887E+02 -0.14275076414E+03  0.14791986954E+03  0.00000000000E+00 0. -1.
          1    1    1    2  502    0  0.30038745003E+02 -0.32357415288E+02  0.16918266256E+04  0.16924026293E+04  0.00000000000E+00 0. -1.
         22    1    3    3    0    0 -0.49915839174E+02 -0.77083892071E+01  0.85376324964E+02  0.99197414931E+02  0.00000000000E+00 0. -1.
         22    1    3    3    0    0  0.83681700908E+01  0.30515936077E+01 -0.39402983075E+02  0.40397197544E+02  0.00000000000E+00 0. -1.
</event>
<event>
 7    1  0.6146596E-006  0.5907722E+02  0.7818608E-02  0.1457662E+00
          2   -1    0    0  502    0  0.00000000000E+00  0.00000000000E+00  0.37114508367E+03  0.37114508367E+03  0.00000000000E+00 0. -1.
          1   -1    0    0  501    0 -0.00000000000E+00 -0.00000000000E+00 -0.10638075640E+04  0.10638075640E+04  0.00000000000E+00 0. -1.
         25    2    1    2    0    0 -0.19421355766E+02 -0.16789887187E+02 -0.77104780221E+02  0.14909400378E+03  0.12499914183E+03 0.  0.
          2    1    1    2  501    0 -0.38610268599E+02  0.18162791069E+01 -0.94763172550E+03  0.94841970608E+03  0.00000000000E+00 0. -1.
          1    1    1    2  502    0  0.58031624365E+02  0.14973608081E+02  0.33207402542E+03  0.33743893777E+03  0.00000000000E+00 0. -1.
         22    1    3    3    0    0 -0.22266839940E+02  0.43554532700E+01  0.31272708262E+02  0.38636309556E+02  0.00000000000E+00 0. -1.
         22    1    3    3    0    0  0.28454841743E+01 -0.21145340457E+02 -0.10837748848E+03  0.11045769422E+03  0.00000000000E+00 0. -1.
</event>
<event>
 7    1  0.6146596E-006  0.2800146E+03  0.7818608E-02  0.1195748E+00
          2   -1    0    0  502    0  0.00000000000E+00  0.00000000000E+00  0.10664683317E+04  0.10664683317E+04  0.00000000000E+00 0. -1.
          1   -1    0    0  501    0 -0.00000000000E+00 -0.00000000000E+00 -0.12879746663E+04  0.12879746663E+04  0.00000000000E+00 0. -1.
         25    2    1    2    0    0  0.42340597734E+02  0.24441041585E+03 -0.32161920980E+03  0.42497179779E+03  0.12503173682E+03 0.  0.
          2    1    1    2  501    0  0.84232596713E+02  0.78485341077E+01 -0.89301781532E+03  0.89701591308E+03  0.00000000000E+00 0. -1.
          1    1    1    2  502    0 -0.12657319445E+03 -0.25225894996E+03  0.99313069051E+03  0.10324552871E+04  0.00000000000E+00 0. -1.
         22    1    3    3    0    0  0.39685482246E+02  0.25912567773E+03 -0.29677944805E+03  0.39597865491E+03  0.00000000000E+00 0.  1.
         22    1    3    3    0    0  0.26551154886E+01 -0.14715261878E+02 -0.24839761742E+02  0.28993142876E+02  0.00000000000E+00 0.  1.
</event>
<event>
 7    1  0.6146596E-006  0.1663363E+03  0.7818608E-02  0.1269131E+00
          2   -1    0    0  502    0  0.00000000000E+00  0.00000000000E+00  0.34048092803E+04  0.34048092803E+04  0.00000000000E+00 0. -1.
          1   -1    0    0  501    0 -0.00000000000E+00 -0.00000000000E+00 -0.55067652409E+03  0.55067652409E+03  0.00000000000E+00 0. -1.
         25    2    1    2    0    0 -0.65560068422E+01  0.11190211494E+03 -0.18440076840E+02  0.16890875450E+03  0.12500026544E+03 0.  0.
          2    1    1    2  501    0 -0.48004195049E+02  0.46622934606E+02 -0.45242905315E+03  0.45735123145E+03  0.00000000000E+00 0. -1.
          1    1    1    2  502    0  0.54560201891E+02 -0.15852504954E+03  0.33250018861E+04  0.33292258184E+04  0.00000000000E+00 0. -1.
         22    1    3    3    0    0  0.30454596515E+02  0.30606854025E+02 -0.57092544991E+02  0.71580867945E+02  0.00000000000E+00 0.  1.
         22    1    3    3    0    0 -0.37010603357E+02  0.81295260911E+02  0.38652468151E+02  0.97327886557E+02  0.00000000000E+00 0.  1.
</event>
<event>
 7    1  0.6146596E-006  0.6226875E+02  0.7818608E-02  0.1453058E+00
          2   -1    0    0  502    0  0.00000000000E+00  0.00000000000E+00  0.18626546000E+04  0.18626546000E+04  0.00000000000E+00 0. -1.
          1   -1    0    0  501    0 -0.00000000000E+00 -0.00000000000E+00 -0.32243777179E+02  0.32243777179E+02  0.00000000000E+00 0. -1.
         25    2    1    2    0    0 -0.31571731717E+02 -0.37662832103E+01  0.62649254624E+03  0.63963161833E+03  0.12499895016E+03 0.  0.
          2    1    1    2  501    0 -0.33789296154E+02  0.17226766011E+02 -0.10232591185E+02  0.39283379744E+02  0.00000000000E+00 0. -1.
          1    1    1    2  502    0  0.65361027871E+02 -0.13460482801E+02  0.12141508678E+04  0.12159833791E+04  0.00000000000E+00 0. -1.
         22    1    3    3    0    0  0.12083699469E+02 -0.46346167588E+02  0.11584530033E+03  0.12535595978E+03  0.00000000000E+00 0.  1.
         22    1    3    3    0    0 -0.43655431186E+02  0.42579884378E+02  0.51064724591E+03  0.51427565855E+03  0.00000000000E+00 0.  1.
</event>
<event>
 7    1  0.6146596E-006  0.6415121E+02  0.7818608E-02  0.1403238E+00
          2   -1    0    0  502    0  0.00000000000E+00  0.00000000000E+00  0.46131411650E+04  0.46131411650E+04  0.00000000000E+00 0. -1.
          1   -1    0    0  501    0 -0.00000000000E+00 -0.00000000000E+00 -0.32118254327E+03  0.32118254327E+03  0.00000000000E+00 0. -1.
         25    2    1    2    0    0 -0.11495513122E+02 -0.10553933752E+01  0.31097061485E+02  0.12932827946E+03  0.12500206381E+03 0.  0.
          2    1    1    2  501    0 -0.50536255889E+02  0.18358614760E+02 -0.26917935816E+03  0.27449677367E+03  0.00000000000E+00 0. -1.
          1    1    1    2  502    0  0.62031769011E+02 -0.17303221385E+02  0.45300409184E+04  0.45304986551E+04  0.00000000000E+00 0. -1.
         22    1    3    3    0    0  0.33365091990E+02 -0.47742782991E+02  0.27686468173E+02  0.64491419671E+02  0.00000000000E+00 0. -1.
         22    1    3    3    0    0 -0.44860605113E+02  0.46687389616E+02  0.34105933118E+01  0.64836859787E+02  0.00000000000E+00 0. -1.
</event>
<event>
 7    1  0.6146596E-006  0.1613787E+03  0.7818608E-02  0.1263546E+00
          2   -1    0    0  502    0  0.00000000000E+00  0.00000000000E+00  0.15245299477E+04  0.15245299477E+04  0.00000000000E+00 0. -1.
          1   -1    0    0  501    0 -0.00000000000E+00 -0.00000000000E+00 -0.41499433426E+03  0.41499433426E+03  0.00000000000E+00 0. -1.
         25    2    1    2    0    0  0.20999848956E+03  0.10627541386E+02  0.57483573771E+03  0.62471943541E+03  0.12500374946E+03 0.  0.
          2    1    1    2  501    0 -0.65636509346E+02  0.31548899525E+02 -0.38046106244E+03  0.38736817687E+03  0.00000000000E+00 0. -1.
          1    1    1    2  502    0 -0.14436198022E+03 -0.42176440912E+02  0.91516093816E+03  0.92743666966E+03  0.00000000000E+00 0. -1.
         22    1    3    3    0    0  0.14676699669E+03  0.64684303825E+02  0.40505422554E+03  0.43565299966E+03  0.00000000000E+00 0.  1.
         22    1    3    3    0    0  0.63231492869E+02 -0.54056762438E+02  0.16978151217E+03  0.18906643575E+03  0.00000000000E+00 0.  1.
</event>
<event>
 7    1  0.6146596E-006  0.1191537E+03  0.7818608E-02  0.1415474E+00
          2   -1    0    0  502    0  0.00000000000E+00  0.00000000000E+00  0.15044077035E+03  0.15044077035E+03  0.00000000000E+00 0. -1.
          1   -1    0    0  501    0 -0.00000000000E+00 -0.00000000000E+00 -0.43494220611E+03  0.43494220611E+03  0.00000000000E+00 0. -1.
         25    2    1    2    0    0  0.12645696486E+03 -0.58755011973E+02 -0.13307936238E+02  0.18774443199E+03  0.12500942038E+03 0.  0.
          2    1    1    2  501    0 -0.10018271806E+03  0.60119099046E+02 -0.32084000979E+03  0.34145159972E+03  0.00000000000E+00 0. -1.
          1    1    1    2  502    0 -0.26274246798E+02 -0.13640870726E+01  0.49646510268E+02  0.56186944748E+02  0.00000000000E+00 0. -1.
         22    1    3    3    0    0 -0.22878890775E+02  0.55842532379E+01 -0.85954108201E+01  0.25070074082E+02  0.00000000000E+00 0. -1.
         22    1    3    3    0    0  0.14933585564E+03 -0.64339265211E+02 -0.47125254176E+01  0.16267435791E+03  0.00000000000E+00 0. -1.
</event>
<event>
 7    1  0.6146596E-006  0.7276790E+02  0.7818608E-02  0.1379677E+00
          2   -1    0    0  502    0  0.00000000000E+00  0.00000000000E+00  0.36513435711E+03  0.36513435711E+03  0.00000000000E+00 0. -1.
          1   -1    0    0  501    0 -0.00000000000E+00 -0.00000000000E+00 -0.19193654054E+04  0.19193654054E+04  0.00000000000E+00 0. -1.
         25    2    1    2    0    0  0.33551151885E+01  0.11689999204E+03  0.22737995043E+03  0.28461077306E+03  0.12499914139E+03 0.  0.
          2    1    1    2  501    0 -0.29970596191E+02 -0.66203704205E+02 -0.18824904339E+04  0.18838926193E+04  0.00000000000E+00 0. -1.
          1    1    1    2  502    0  0.26615481003E+02 -0.50696287835E+02  0.10087943525E+03  0.11599637014E+03  0.00000000000E+00 0. -1.
         22    1    3    3    0    0 -0.29019846741E+01 -0.13743911880E+02 -0.73851040430E+01  0.15869983949E+02  0.00000000000E+00 0.  1.
         22    1    3    3    0    0  0.62570998625E+01  0.13064390392E+03  0.23476505447E+03  0.26874078911E+03  0.00000000000E+00 0.  1.
</event>
<event>
 7    1  0.6146596E-006  0.9043525E+02  0.7818608E-02  0.1471900E+00
          2   -1    0    0  502    0  0.00000000000E+00  0.00000000000E+00  0.16657064998E+04  0.16657064998E+04  0.00000000000E+00 0. -1.
          1   -1    0    0  501    0 -0.00000000000E+00 -0.00000000000E+00 -0.74229019841E+03  0.74229019841E+03  0.00000000000E+00 0. -1.
         25    2    1    2    0    0 -0.97896800299E+02  0.31791979499E+02  0.18602018245E+02  0.16298107042E+03  0.12498912258E+03 0.  0.
          2    1    1    2  501    0  0.19166550161E+02  0.12320875493E+02 -0.66861361988E+03  0.66900174387E+03  0.00000000000E+00 0. -1.
          1    1    1    2  502    0  0.78730250137E+02 -0.44112854992E+02  0.15734279031E+04  0.15760138839E+04  0.00000000000E+00 0. -1.
         22    1    3    3    0    0 -0.19475694620E+02 -0.36737088138E+02  0.38828076386E+02  0.56890560216E+02  0.00000000000E+00 0.  1.
         22    1    3    3    0    0 -0.78421105679E+02  0.68529067637E+02 -0.20226058141E+02  0.10609051020E+03  0.00000000000E+00 0.  1.
</event>
<event>
 7    1  0.6146596E-006  0.4742383E+02  0.7818608E-02  0.1464691E+00
          2   -1    0    0  502    0  0.00000000000E+00  0.00000000000E+00  0.21003991963E+04  0.21003991963E+04  0.00000000000E+00 0. -1.
          1   -1    0    0  501    0 -0.00000000000E+00 -0.00000000000E+00 -0.39441347160E+02  0.39441347160E+02  0.00000000000E+00 0. -1.
         25    2    1    2    0    0 -0.18076506505E+02 -0.25610055216E+02  0.11245003247E+04  0.11318603800E+04  0.12499721849E+03 0.  0.
          2    1    1    2  501    0  0.39274941899E+02 -0.23479489121E+02 -0.20065101843E+02  0.49964144970E+02  0.00000000000E+00 0. -1.
          1    1    1    2  502    0 -0.21198435395E+02  0.49089544337E+02  0.95652262626E+03  0.95801601844E+03  0.00000000000E+00 0. -1.
         22    1    3    3    0    0 -0.20169171648E+02 -0.21090997401E+02  0.54271557357E+02  0.61620025919E+02  0.00000000000E+00 0. -1.
         22    1    3    3    0    0  0.20926651435E+01 -0.45190578145E+01  0.10702287674E+04  0.10702403541E+04  0.00000000000E+00 0. -1.
</event>
<event>
 7    1  0.6146596E-006  0.1533827E+03  0.7818608E-02  0.1228830E+00
          2   -1    0    0  502    0  0.00000000000E+00  0.00000000000E+00  0.38419430911E+03  0.38419430911E+03  0.00000000000E+00 0. -1.
          1   -1    0    0  501    0 -0.00000000000E+00 -0.00000000000E+00 -0.43976942160E+03  0.43976942160E+03  0.00000000000E+00 0. -1.
         25    2    1    2    0    0  0.10155582683E+03  0.10544974050E+03  0.83619063588E+02  0.20988105524E+03  0.12499870327E+03 0.  0.
          2    1    1    2  501    0 -0.15765755412E+03 -0.12433349888E+02 -0.34603073281E+03  0.38045730458E+03  0.00000000000E+00 0. -1.
          1    1    1    2  502    0  0.56101727292E+02 -0.93016390609E+02  0.20683655673E+03  0.23362537090E+03  0.00000000000E+00 0. -1.
         22    1    3    3    0    0 -0.17497419854E+02  0.42930845708E+02 -0.81641734488E+01  0.47073038385E+02  0.00000000000E+00 0. -1.
         22    1    3    3    0    0  0.11905324668E+03  0.62518894789E+02  0.91783237037E+02  0.16280801686E+03  0.00000000000E+00 0. -1.
</event>
<event>
 7    1  0.6146596E-006  0.1220564E+03  0.7818608E-02  0.1341497E+00
          2   -1    0    0  502    0  0.00000000000E+00  0.00000000000E+00  0.38594788412E+03  0.38594788412E+03  0.00000000000E+00 0. -1.
          1   -1    0    0  501    0 -0.00000000000E+00 -0.00000000000E+00 -0.85778985221E+03  0.85778985221E+03  0.00000000000E+00 0. -1.
         25    2    1    2    0    0  0.81352084482E+02  0.11124730226E+03 -0.40751707810E+03  0.44798904214E+03  0.12501955457E+03 0.  0.
          2    1    1    2  501    0 -0.46705269926E+02  0.55913509379E+01 -0.41852997775E+03  0.42116503620E+03  0.00000000000E+00 0. -1.
          1    1    1    2  502    0 -0.34646814556E+02 -0.11683865319E+03  0.35420508776E+03  0.37458365799E+03  0.00000000000E+00 0. -1.
         22    1    3    3    0    0 -0.25475068454E+00  0.10346490176E+03 -0.20887192225E+03  0.23309339480E+03  0.00000000000E+00 0. -1.
         22    1    3    3    0    0  0.81606835167E+02  0.77824004962E+01 -0.19864515585E+03  0.21489564734E+03  0.00000000000E+00 0. -1.
</event>
<event>
 7    1  0.6146596E-006  0.7633641E+02  0.7818608E-02  0.1497441E+00
          2   -1    0    0  502    0  0.00000000000E+00  0.00000000000E+00  0.13324179872E+04  0.13324179872E+04  0.00000000000E+00 0. -1.
          1   -1    0    0  501    0 -0.00000000000E+00 -0.00000000000E+00 -0.10249180580E+04  0.10249180580E+04  0.00000000000E+00 0. -1.
         25    2    1    2    0    0 -0.44051830765E+02  0.51759792780E+02  0.62771023709E+03  0.64363538252E+03  0.12500689561E+03 0.  0.
          2    1    1    2  501    0  0.64126811511E+02 -0.41459248545E+02 -0.10153387035E+04  0.10182061678E+04  0.00000000000E+00 0. -1.
          1    1    1    2  502    0 -0.20074980746E+02 -0.10300544236E+02  0.69512839562E+03  0.69549449491E+03  0.00000000000E+00 0. -1.
         22    1    3    3    0    0 -0.12853130284E+02 -0.16975196305E+02  0.14416298296E+02  0.25713613209E+02  0.00000000000E+00 0.  1.
         22    1    3    3    0    0 -0.31198700481E+02  0.68734989085E+02  0.61329393879E+03  0.61792176932E+03  0.00000000000E+00 0.  1.
</event>
<event>
 7    1  0.6146596E-006  0.5563272E+02  0.7818608E-02  0.1553370E+00
          2   -1    0    0  502    0  0.00000000000E+00  0.00000000000E+00  0.32765282901E+03  0.32765282901E+03  0.00000000000E+00 0. -1.
          1   -1    0    0  501    0 -0.00000000000E+00 -0.00000000000E+00 -0.43750822840E+03  0.43750822840E+03  0.00000000000E+00 0. -1.
         25    2    1    2    0    0  0.33789943506E+02  0.18178211700E+02 -0.12619852375E+03  0.18174173416E+03  0.12502712857E+03 0.  0.
          2    1    1    2  501    0 -0.55085616475E+02 -0.16574418962E+02 -0.28023246915E+03  0.28607581735E+03  0.00000000000E+00 0. -1.
          1    1    1    2  502    0  0.21295672969E+02 -0.16037927374E+01  0.29657559350E+03  0.29734350590E+03  0.00000000000E+00 0. -1.
         22    1    3    3    0    0  0.55763583415E+02 -0.43055462156E+01 -0.45700915908E+01  0.56115957629E+02  0.00000000000E+00 0. -1.
         22    1    3    3    0    0 -0.21973639908E+02  0.22483757915E+02 -0.12162843216E+03  0.12562577653E+03  0.00000000000E+00 0. -1.
</event>
<event>
 7    1  0.6146596E-006  0.4151669E+02  0.7818608E-02  0.1519702E+00
          2   -1    0    0  502    0  0.00000000000E+00  0.00000000000E+00  0.26162281174E+04  0.26162281174E+04  0.00000000000E+00 0. -1.
          1   -1    0    0  501    0 -0.00000000000E+00 -0.00000000000E+00 -0.12731172507E+04  0.12731172507E+04  0.00000000000E+00 0. -1.
         25    2    1    2    0    0 -0.70246513445E+02  0.28896041327E+02  0.32966870335E+03  0.36066166998E+03  0.12500332945E+03 0.  0.
          2    1    1    2  501    0  0.40417552277E+02 -0.93437709225E+01 -0.12571385880E+04  0.12578228468E+04  0.00000000000E+00 0. -1.
          1    1    1    2  502    0  0.29828961167E+02 -0.19552270404E+02  0.22705807512E+04  0.22708608513E+04  0.00000000000E+00 0. -1.
         22    1    3    3    0    0  0.20888689844E+02 -0.21054752710E+02  0.15168661805E+03  0.15455895338E+03  0.00000000000E+00 0.  1.
         22    1    3    3    0    0 -0.91135203288E+02  0.49950794037E+02  0.17798208529E+03  0.20610271660E+03  0.00000000000E+00 0.  1.
</event>
<event>
 7    1  0.6146596E-006  0.1387443E+03  0.7818608E-02  0.1375975E+00
          2   -1    0    0  502    0  0.00000000000E+00  0.00000000000E+00  0.78113234573E+03  0.78113234573E+03  0.00000000000E+00 0. -1.
          1   -1    0    0  501    0 -0.00000000000E+00 -0.00000000000E+00 -0.65164570801E+02  0.65164570801E+02  0.00000000000E+00 0. -1.
         25    2    1    2    0    0 -0.42091831681E+02 -0.14339515557E+03  0.16839231373E+03  0.25751756610E+03  0.12500173035E+03 0.  0.
          2    1    1    2  501    0  0.56691334192E+02  0.11610044265E+03  0.18941767959E+03  0.22928645293E+03  0.00000000000E+00 0. -1.
          1    1    1    2  502    0 -0.14599502511E+02  0.27294712922E+02  0.35815778161E+03  0.35949289750E+03  0.00000000000E+00 0. -1.
         22    1    3    3    0    0 -0.46472396072E+02 -0.67957024274E+02  0.16195456305E+03  0.18167862075E+03  0.00000000000E+00 0. -1.
         22    1    3    3    0    0  0.43805643904E+01 -0.75438131299E+02  0.64377506842E+01  0.75838945352E+02  0.00000000000E+00 0. -1.
</event>
<event>
 7    1  0.6146596E-006  0.9566139E+02  0.7818608E-02  0.1393984E+00
          2   -1    0    0  502    0  0.00000000000E+00  0.00000000000E+00  0.36532051598E+03  0.36532051598E+03  0.00000000000E+00 0. -1.
          1   -1    0    0  501    0 -0.00000000000E+00 -0.00000000000E+00 -0.46163422672E+03  0.46163422672E+03  0.00000000000E+00 0. -1.
         25    2    1    2    0    0  0.89858759320E+02 -0.92455402428E+02 -0.14721479795E+03  0.23220943949E+03  0.12500571581E+03 0.  0.
          2    1    1    2  501    0 -0.13904027378E+02  0.36227430048E+02 -0.26355479146E+03  0.26639609000E+03  0.00000000000E+00 0. -1.
          1    1    1    2  502    0 -0.75954731942E+02  0.56227972380E+02  0.31445587867E+03  0.32834921321E+03  0.00000000000E+00 0. -1.
         22    1    3    3    0    0 -0.13360277602E+02 -0.34297486981E+02  0.72760926342E+01  0.37520076691E+02  0.00000000000E+00 0. -1.
         22    1    3    3    0    0  0.10321903692E+03 -0.58157915447E+02 -0.15449089058E+03  0.19468936280E+03  0.00000000000E+00 0. -1.
</event>
<event>
 7    1  0.6146596E-006  0.7684863E+02  0.7818608E-02  0.1438932E+00
          2   -1    0    0  502    0  0.00000000000E+00  0.00000000000E+00  0.30507425596E+03  0.30507425596E+03  0.00000000000E+00 0. -1.
          1   -1    0    0  501    0 -0.00000000000E+00 -0.00000000000E+00 -0.16350808329E+04  0.16350808329E+04  0.00000000000E+00 0. -1.
         25    2    1    2    0    0  0.57255173713E+02  0.72556850097E+02 -0.62124491944E+02  0.16741444604E+03  0.12500197131E+03 0.  0.
          2    1    1    2  501    0 -0.65712214058E+02 -0.39499005233E+02 -0.15181864317E+04  0.15201211491E+04  0.00000000000E+00 0. -1.
          1    1    1    2  502    0  0.84570403448E+01 -0.33057844864E+02  0.25030434670E+03  0.25261949373E+03  0.00000000000E+00 0. -1.
         22    1    3    3    0    0 -0.18042161182E+02  0.37915665553E+01  0.26520166053E+02  0.32298835343E+02  0.00000000000E+00 0. -1.
         22    1    3    3    0    0  0.75297334895E+02  0.68765283542E+02 -0.88644657997E+02  0.13511561070E+03  0.00000000000E+00 0. -1.
</event>
<event>
 7    1  0.6146596E-006  0.6486483E+02  0.7818608E-02  0.1384624E+00
          2   -1    0    0  502    0  0.00000000000E+00  0.00000000000E+00  0.36622114860E+03  0.36622114860E+03  0.00000000000E+00 0. -1.
          1   -1    0    0  501    0 -0.00000000000E+00 -0.00000000000E+00 -0.15675312826E+04  0.15675312826E+04  0.00000000000E+00 0. -1.
         25    2    1    2    0    0 -0.38003837543E+02 -0.21455129130E+02 -0.38983615575E+03  0.41170681492E+03  0.12500263553E+03 0.  0.
          2    1    1    2  501    0  0.58219216094E+02 -0.36841560595E+02 -0.11630537098E+04  0.11650925756E+04  0.00000000000E+00 0. -1.
          1    1    1    2  502    0 -0.20215378551E+02  0.58296689725E+02  0.35157973161E+03  0.35695304067E+03  0.00000000000E+00 0. -1.
         22    1    3    3    0    0 -0.70538036684E+02 -0.49923667048E+02 -0.29665164124E+03  0.30898249691E+03  0.00000000000E+00 0. -1.
         22    1    3    3    0    0  0.32534199142E+02  0.28468537918E+02 -0.93184514515E+02  0.10272431801E+03  0.00000000000E+00 0. -1.
</event>
<event>
 7    1  0.6146596E-006  0.3118507E+02  0.7818608E-02  0.1589906E+00
          2   -1    0    0  502    0  0.00000000000E+00  0.00000000000E+00  0.18022176052E+03  0.18022176052E+03  0.00000000000E+00 0. -1.
          1   -1    0    0  501    0 -0.00000000000E+00 -0.00000000000E+00 -0.23091546568E+03  0.23091546568E+03  0.00000000000E+00 0. -1.
         25    2    1    2    0    0 -0.75671137769E+01 -0.96392217676E+01 -0.87816922549E+02  0.15325138147E+03  0.12499599285E+03 0.  0.
          2    1    1    2  501    0 -0.15451912453E+02  0.29385384876E+02 -0.10626227995E+03  0.11132804940E+03  0.00000000000E+00 0. -1.
          1    1    1    2  502    0  0.23019026230E+02 -0.19746163109E+02  0.14338549734E+03  0.14655779533E+03  0.00000000000E+00 0. -1.
         22    1    3    3    0    0  0.29002323205E+02 -0.60458402482E+00 -0.10708216430E+03  0.11094183243E+03  0.00000000000E+00 0. -1.
         22    1    3    3    0    0 -0.36569436982E+02 -0.90346377428E+01  0.19265241746E+02  0.42309549039E+02  0.00000000000E+00 0. -1.
</event>
<event>
 7    1  0.6146596E-006  0.6448237E+02  0.7818608E-02  0.1428158E+00
          2   -1    0    0  502    0  0.00000000000E+00  0.00000000000E+00  0.55368082935E+03  0.55368082935E+03  0.00000000000E+00 0. -1.
          1   -1    0    0  501    0 -0.00000000000E+00 -0.00000000000E+00 -0.10186281022E+03  0.10186281022E+03  0.00000000000E+00 0. -1.
         25    2    1    2    0    0  0.54550095546E+02 -0.88104138246E+02  0.11327554865E+03  0.19797702104E+03  0.12500199534E+03 0.  0.
          2    1    1    2  501    0 -0.32453877800E+02  0.29872404424E+02 -0.48492338293E+02  0.65552434001E+02  0.00000000000E+00 0. -1.
          1    1    1    2  502    0 -0.22096217746E+02  0.58231733822E+02  0.38703480877E+03  0.39201418452E+03  0.00000000000E+00 0. -1.
         22    1    3    3    0    0 -0.12533082391E+02 -0.93681464809E+02  0.58158343748E+02  0.11097606927E+03  0.00000000000E+00 0. -1.
         22    1    3    3    0    0  0.67083177937E+02  0.55773265629E+01  0.55117204899E+02  0.87000951774E+02  0.00000000000E+00 0. -1.
</event>
<event>
 7    1  0.6146596E-006  0.4365931E+02  0.7818608E-02  0.1573165E+00
          2   -1    0    0  502    0  0.00000000000E+00  0.00000000000E+00  0.38372446814E+03  0.38372446814E+03  0.00000000000E+00 0. -1.
          1   -1    0    0  501    0 -0.00000000000E+00 -0.00000000000E+00 -0.33653879145E+03  0.33653879145E+03  0.00000000000E+00 0. -1.
         25    2    1    2    0    0 -0.52591915495E+02  0.31000648193E+02  0.17402794463E+03  0.22279614766E+03  0.12500179253E+03 0.  0.
          2    1    1    2  501    0  0.42572224709E+02 -0.91738572784E+01 -0.30984734436E+03  0.31289284233E+03  0.00000000000E+00 0. -1.
          1    1    1    2  502    0  0.10019690786E+02 -0.21826790915E+02  0.18300507642E+03  0.18457426960E+03  0.00000000000E+00 0. -1.
         22    1    3    3    0    0  0.14084452289E+02  0.21222388416E+02 -0.95792187022E+01  0.27212552201E+02  0.00000000000E+00 0.  1.
         22    1    3    3    0    0 -0.66676367783E+02  0.97782597768E+01  0.18360716334E+03  0.19558359546E+03  0.00000000000E+00 0.  1.
</event>
<event>
 7    1  0.6146596E-006  0.5299514E+02  0.7818608E-02  0.1530307E+00
          2   -1    0    0  502    0  0.00000000000E+00  0.00000000000E+00  0.56518001718E+03  0.56518001718E+03  0.00000000000E+00 0. -1.
          1   -1    0    0  501    0 -0.00000000000E+00 -0.00000000000E+00 -0.25562917507E+03  0.25562917507E+03  0.00000000000E+00 0. -1.
         25    2    1    2    0    0  0.31865700557E+02  0.19467404483E+02  0.22037525031E+03  0.25609309830E+03  0.12499608529E+03 0.  0.
          2    1    1    2  501    0 -0.53063694856E+02 -0.43423511879E+01 -0.23425995772E+03  0.24023392666E+03  0.00000000000E+00 0. -1.
          1    1    1    2  502    0  0.21197994299E+02 -0.15125053296E+02  0.32343554951E+03  0.32448216729E+03  0.00000000000E+00 0. -1.
         22    1    3    3    0    0  0.12284663567E+02 -0.50771163578E+02  0.57754226867E+02  0.77872811244E+02  0.00000000000E+00 0.  1.
         22    1    3    3    0    0  0.19581036990E+02  0.70238568062E+02  0.16262102345E+03  0.17822028706E+03  0.00000000000E+00 0.  1.
</event>
<event>
 7    1  0.6146596E-006  0.7934757E+02  0.7818608E-02  0.1341096E+00
          2   -1    0    0  502    0  0.00000000000E+00  0.00000000000E+00  0.29564926751E+03  0.29564926751E+03  0.00000000000E+00 0. -1.
          1   -1    0    0  501    0 -0.00000000000E+00 -0.00000000000E+00 -0.10452079217E+04  0.10452079217E+04  0.00000000000E+00 0. -1.
         25    2    1    2    0    0 -0.71748994871E+02 -0.85155683135E+02 -0.78614078647E+02  0.18494585089E+03  0.12500154305E+03 0.  0.
          2    1    1    2  501    0  0.78097456842E+02  0.12825077083E+02 -0.90622890208E+03  0.90967824990E+03  0.00000000000E+00 0. -1.
          1    1    1    2  502    0 -0.63484619709E+01  0.72330606052E+02  0.23528432652E+03  0.24623308845E+03  0.00000000000E+00 0. -1.
         22    1    3    3    0    0 -0.64557052675E+01 -0.88180410196E+02 -0.80474781280E+02  0.11955605921E+03  0.00000000000E+00 0.  1.
         22    1    3    3    0    0 -0.65293289604E+02  0.30247270614E+01  0.18607026331E+01  0.65389791676E+02  0.00000000000E+00 0.  1.
</event>
<event>
 7    1  0.6146596E-006  0.2357995E+03  0.7818608E-02  0.1261546E+00
          2   -1    0    0  502    0  0.00000000000E+00  0.00000000000E+00  0.71963319727E+03  0.71963319727E+03  0.00000000000E+00 0. -1.
          1   -1    0    0  501    0 -0.00000000000E+00 -0.00000000000E+00 -0.74109895685E+03  0.74109895685E+03  0.00000000000E+00 0. -1.
         25    2    1    2    0    0  0.15506814865E+02 -0.20425354326E+03 -0.15712868141E+02  0.24048245203E+03  0.12499977708E+03 0.  0.
          2    1    1    2  501    0  0.18339729019E+02  0.24216987066E+03 -0.58779547149E+03  0.63599222340E+03  0.00000000000E+00 0. -1.
          1    1    1    2  502    0 -0.33846543885E+02 -0.37916327406E+02  0.58204258005E+03  0.58425747870E+03  0.00000000000E+00 0. -1.
         22    1    3    3    0    0  0.12170026672E+02 -0.15461948865E+03  0.45472368607E+02  0.16162621114E+03  0.00000000000E+00 0. -1.
         22    1    3    3    0    0  0.33367881937E+01 -0.49634054607E+02 -0.61185236749E+02  0.78856240896E+02  0.00000000000E+00 0. -1.
</event>
<event>
 7    1  0.6146596E-006  0.5110101E+02  0.7818608E-02  0.1493135E+00
          2   -1    0    0  502    0  0.00000000000E+00  0.00000000000E+00  0.12946976510E+04  0.12946976510E+04  0.00000000000E+00 0. -1.
          1   -1    0    0  501    0 -0.00000000000E+00 -0.00000000000E+00 -0.16786127787E+03  0.16786127787E+03  0.00000000000E+00 0. -1.
         25    2    1    2    0    0 -0.47552948867E+02 -0.66418981025E+02  0.14967625308E+03  0.21142167891E+03  0.12499352620E+03 0.  0.
          2    1    1    2  501    0  0.91651599110E+01  0.33493475336E+02 -0.13420365926E+03  0.13862335736E+03  0.00000000000E+00 0. -1.
          1    1    1    2  502    0  0.38387788956E+02  0.32925505689E+02  0.11113637793E+04  0.11125138926E+04  0.00000000000E+00 0. -1.
         22    1    3    3    0    0 -0.71070355363E+02 -0.33427989654E+01  0.37067787500E+02  0.80225872302E+02  0.00000000000E+00 0.  1.
         22    1    3    3    0    0  0.23517406497E+02 -0.63076182060E+02  0.11260846558E+03  0.13119580661E+03  0.00000000000E+00 0.  1.
</event>
<event>
 7    1  0.6146596E-006  0.7224386E+02  0.7818608E-02  0.1386559E+00
          2   -1    0    0  502    0  0.00000000000E+00  0.00000000000E+00  0.57183353045E+02  0.57183353045E+02  0.00000000000E+00 0. -1.
          1   -1    0    0  501    0 -0.00000000000E+00 -0.00000000000E+00 -0.57116692524E+03  0.57116692524E+03  0.00000000000E+00 0. -1.
         25    2    1    2    0    0  0.55531438152E+02  0.70612855843E+02 -0.29028768162E+03  0.32857475228E+03  0.12499805479E+03 0.  0.
          2    1    1    2  501    0  0.14270599196E+02 -0.52639472797E+02 -0.22101704214E+03  0.22764686911E+03  0.00000000000E+00 0. -1.
          1    1    1    2  502    0 -0.69802037348E+02 -0.17973383045E+02 -0.26788484268E+01  0.72128656892E+02  0.00000000000E+00 0. -1.
         22    1    3    3    0    0  0.17552735340E+02  0.10260879891E+03 -0.20365142955E+03  0.22871503862E+03  0.00000000000E+00 0.  1.
         22    1    3    3    0    0  0.37978702813E+02 -0.31995943066E+02 -0.86636252075E+02  0.99859713667E+02  0.00000000000E+00 0.  1.
</event>
<event>
 7    1  0.6146596E-006  0.4051129E+02  0.7818608E-02  0.1521834E+00
          2   -1    0    0  502    0  0.00000000000E+00  0.00000000000E+00  0.23727313090E+04  0.23727313090E+04  0.00000000000E+00 0. -1.
          1   -1    0    0  501    0 -0.00000000000E+00 -0.00000000000E+00 -0.62600041361E+02  0.62600041361E+02  0.00000000000E+00 0. -1.
         25    2    1    2    0    0  0.45475374689E+02 -0.15110199709E+02  0.39600583113E+03  0.41802092553E+03  0.12499819221E+03 0.  0.
          2    1    1    2  501    0 -0.16854653528E+02  0.37003957975E+02 -0.43389152593E+02  0.59464197751E+02  0.00000000000E+00 0. -1.
          1    1    1    2  502    0 -0.28620721161E+02 -0.21893758266E+02  0.19575145891E+04  0.19578462271E+04  0.00000000000E+00 0. -1.
         22    1    3    3    0    0  0.23550478805E+02 -0.63505587773E+02  0.30683578459E+03  0.31422250625E+03  0.00000000000E+00 0.  1.
         22    1    3    3    0    0  0.21924895884E+02  0.48395388064E+02  0.89170046544E+02  0.10379841929E+03  0.00000000000E+00 0.  1.
</event>
<event>
 7    1  0.6146596E-006  0.4253436E+02  0.7818608E-02  0.1564033E+00
          2   -1    0    0  502    0  0.00000000000E+00  0.00000000000E+00  0.45495588157E+03  0.45495588157E+03  0.00000000000E+00 0. -1.
          1   -1    0    0  501    0 -0.00000000000E+00 -0.00000000000E+00 -0.13503729316E+03  0.13503729316E+03  0.00000000000E+00 0. -1.
         25    2    1    2    0    0 -0.35063165489E+02  0.30546826693E+02  0.75882947176E+02  0.15345773073E+03  0.12501407622E+03 0.  0.
          2    1    1    2  501    0 -0.72434342188E+01 -0.25078785084E+02 -0.93110914903E+02  0.96700854570E+02  0.00000000000E+00 0. -1.
          1    1    1    2  502    0  0.42306599708E+02 -0.54680416090E+01  0.33714655614E+03  0.33983458943E+03  0.00000000000E+00 0. -1.
         22    1    3    3    0    0 -0.77037477853E+02 -0.61380722667E+01  0.38526896698E+02  0.86352595179E+02  0.00000000000E+00 0.  1.
         22    1    3    3    0    0  0.41974312363E+02  0.36684898960E+02  0.37356050478E+02  0.67105135552E+02  0.00000000000E+00 0.  1.
</event>
<event>
 7    1  0.6146596E-006  0.1168223E+03  0.7818608E-02  0.1291470E+00
          2   -1    0    0  502    0  0.00000000000E+00  0.00000000000E+00  0.23723497493E+04  0.23723497493E+04  0.00000000000E+00 0. -1.
          1   -1    0    0  501    0 -0.00000000000E+00 -0.00000000000E+00 -0.10372966123E+03  0.10372966123E+03  0.00000000000E+00 0. -1.
         25    2    1    2    0    0  0.72625202517E+02 -0.91642157560E+02  0.48480461932E+03  0.51413387463E+03  0.12500166815E+03 0.  0.
          2    1    1    2  501    0 -0.48193609414E+00  0.11867703917E+03 -0.48358615167E+02  0.12815236068E+03  0.00000000000E+00 0. -1.
          1    1    1    2  502    0 -0.72143266422E+02 -0.27034881607E+02  0.18321740839E+04  0.18337931752E+04  0.00000000000E+00 0. -1.
         22    1    3    3    0    0  0.65178458472E+02 -0.80308018138E+02  0.16968411090E+03  0.19872168155E+03  0.00000000000E+00 0.  1.
         22    1    3    3    0    0  0.74467440447E+01 -0.11334139422E+02  0.31512050842E+03  0.31541219307E+03  0.00000000000E+00 0.  1.
</event>
<event>
 7    1  0.6146596E-006  0.8471465E+02  0.7818608E-02  0.1368168E+00
          2   -1    0    0  502    0  0.00000000000E+00  0.00000000000E+00  0.46091755021E+03  0.46091755021E+03  0.00000000000E+00 0. -1.
          1   -1    0    0  501    0 -0.00000000000E+00 -0.00000000000E+00 -0.48211305497E+03  0.48211305497E+03  0.00000000000E+00 0. -1.
         25    2    1    2    0    0  0.29380077864E+02  0.99157303076E+02 -0.34254482850E+02  0.16581403193E+03  0.12500225542E+03 0.  0.
          2    1    1    2  501    0 -0.51162011726E+02 -0.17491367178E+02 -0.37560083895E+03  0.37947264670E+03  0.00000000000E+00 0. -1.
          1    1    1    2  502    0  0.21781933862E+02 -0.81665935898E+02  0.38865981704E+03  0.39774392655E+03  0.00000000000E+00 0. -1.
         22    1    3    3    0    0  0.11124444428E+02  0.10800097935E+03  0.17731353774E+02  0.11001075271E+03  0.00000000000E+00 0. -1.
         22    1    3    3    0    0  0.18255633437E+02 -0.88436762757E+01 -0.51985836624E+02  0.55803279221E+02  0.00000000000E+00 0. -1.
</event>
<event>
 7    1  0.6146596E-006  0.4293931E+02  0.7818608E-02  0.1584546E+00
          2   -1    0    0  502    0  0.00000000000E+00  0.00000000000E+00  0.25209491520E+03  0.25209491520E+03  0.00000000000E+00 0. -1.
          1   -1    0    0  501    0 -0.00000000000E+00 -0.00000000000E+00 -0.11550029430E+03  0.11550029430E+03  0.00000000000E+00 0. -1.
         25    2    1    2    0    0 -0.36085721813E+02  0.16069074224E+02 -0.24141941572E+02  0.13329638878E+03  0.12499879781E+03 0.  0.
          2    1    1    2  501    0 -0.67601758297E+01 -0.21732875197E+02 -0.30603157712E+02  0.38138839829E+02  0.00000000000E+00 0. -1.
          1    1    1    2  502    0  0.42845897643E+02  0.56638009723E+01  0.19133972018E+03  0.19615998090E+03  0.00000000000E+00 0. -1.
         22    1    3    3    0    0 -0.34988876305E+02  0.16944385168E+02 -0.73908907738E+02  0.83509641939E+02  0.00000000000E+00 0.  1.
         22    1    3    3    0    0 -0.10968455084E+01 -0.87531094363E+00  0.49766966166E+02  0.49786746837E+02  0.00000000000E+00 0.  1.
</event>
<event>
 7    1  0.6146596E-006  0.9076921E+02  0.7818608E-02  0.1394458E+00
          2   -1    0    0  502    0  0.00000000000E+00  0.00000000000E+00  0.46507631129E+03  0.46507631129E+03  0.00000000000E+00 0. -1.
          1   -1    0    0  501    0 -0.00000000000E+00 -0.00000000000E+00 -0.14834101180E+04  0.14834101180E+04  0.00000000000E+00 0. -1.
         25    2    1    2    0    0 -0.35664918320E+02 -0.79689023038E+02 -0.18929707089E+03  0.24306605648E+03  0.12500159989E+03 0.  0.
          2    1    1    2  501    0  0.70419928843E+02  0.58430757662E+02 -0.12646248979E+04  0.12679310913E+04  0.00000000000E+00 0. -1.
          1    1    1    2  502    0 -0.34755010524E+02  0.21258265376E+02  0.43558816203E+03  0.43748928158E+03  0.00000000000E+00 0. -1.
         22    1    3    3    0    0 -0.35301525653E+02 -0.11067946970E+03 -0.17204632512E+03  0.20759595544E+03  0.00000000000E+00 0.  1.
         22    1    3    3    0    0 -0.36339266671E+00  0.30990446661E+02 -0.17250745765E+02  0.35470101042E+02  0.00000000000E+00 0.  1.
</event>
<event>
 7    1  0.6146596E-006  0.1163615E+03  0.7818608E-02  0.1274066E+00
          2   -1    0    0  502    0  0.00000000000E+00  0.00000000000E+00  0.11130361071E+04  0.11130361071E+04  0.00000000000E+00 0. -1.
          1   -1    0    0  501    0 -0.00000000000E+00 -0.00000000000E+00 -0.51455871164E+02  0.51455871164E+02  0.00000000000E+00 0. -1.
         25    2    1    2    0    0  0.16462097872E+02 -0.57653772226E+00  0.26882141614E+03  0.29691624090E+03  0.12499186882E+03 0.  0.
          2    1    1    2  501    0 -0.81318086002E+02 -0.96034589784E+02  0.88679659254E+02  0.15394594997E+03  0.00000000000E+00 0. -1.
          1    1    1    2  502    0  0.64855988130E+02  0.96611127506E+02  0.70407916056E+03  0.71362978741E+03  0.00000000000E+00 0. -1.
         22    1    3    3    0    0  0.48258478794E+02 -0.69019140968E+01  0.25825867061E+03  0.26281944018E+03  0.00000000000E+00 0. -1.
         22    1    3    3    0    0 -0.31796380922E+02  0.63253763746E+01  0.10562745535E+02  0.34096800719E+02  0.00000000000E+00 0. -1.
</event>
<event>
 7    1  0.6146596E-006  0.4931175E+02  0.7818608E-02  0.1487356E+00
          2   -1    0    0  502    0  0.00000000000E+00  0.00000000000E+00  0.32165316467E+04  0.32165316467E+04  0.00000000000E+00 0. -1.
          1   -1    0    0  501    0 -0.00000000000E+00 -0.00000000000E+00 -0.10054552582E+03  0.10054552582E+03  0.00000000000E+00 0. -1.
         25    2    1    2    0    0  0.35586412248E+02 -0.20830810352E+02  0.27470086561E+04  0.27501599671E+04  0.12499188991E+03 0.  0.
          2    1    1    2  501    0  0.30448030977E+02  0.21825800752E+02 -0.92990199467E+02  0.10025280727E+03  0.00000000000E+00 0. -1.
          1    1    1    2  502    0 -0.66034443226E+02 -0.99499039943E+00  0.46196766420E+03  0.46666439811E+03  0.00000000000E+00 0. -1.
         22    1    3    3    0    0 -0.80329100954E+00  0.47826957624E+02  0.14784732771E+04  0.14792468672E+04  0.00000000000E+00 0.  1.
         22    1    3    3    0    0  0.36389703258E+02 -0.68657767977E+02  0.12685353791E+04  0.12709130999E+04  0.00000000000E+00 0.  1.
</event>
<event>
 7    1  0.6146596E-006  0.4448901E+03  0.7818608E-02  0.1197417E+00
          2   -1    0    0  502    0  0.00000000000E+00  0.00000000000E+00  0.25004509912E+04  0.25004509912E+04  0.00000000000E+00 0. -1.
          1   -1    0    0  501    0 -0.00000000000E+00 -0.00000000000E+00 -0.25242417387E+04  0.25242417387E+04  0.00000000000E+00 0. -1.
         25    2    1    2    0    0  0.34330033027E+03  0.23658668652E+03  0.44257745967E+03  0.62074577200E+03  0.12498851402E+03 0.  0.
          2    1    1    2  501    0 -0.33995580444E+03 -0.28876344956E+03 -0.24143786882E+04  0.24552349641E+04  0.00000000000E+00 0. -1.
          1    1    1    2  502    0 -0.33445258341E+01  0.52176763040E+02  0.19480104811E+04  0.19487119938E+04  0.00000000000E+00 0. -1.
         22    1    3    3    0    0  0.34323480545E+03  0.21283447552E+03  0.38294446230E+03  0.55655647229E+03  0.00000000000E+00 0.  1.
         22    1    3    3    0    0  0.65524819452E-01  0.23752211002E+02  0.59632997373E+02  0.64189299706E+02  0.00000000000E+00 0.  1.
</event>
<event>
 7    1  0.6146596E-006  0.9045713E+02  0.7818608E-02  0.1448525E+00
          2   -1    0    0  502    0  0.00000000000E+00  0.00000000000E+00  0.14654796554E+04  0.14654796554E+04  0.00000000000E+00 0. -1.
          1   -1    0    0  501    0 -0.00000000000E+00 -0.00000000000E+00 -0.11857850739E+03  0.11857850739E+03  0.00000000000E+00 0. -1.
         25    2    1    2    0    0 -0.54322322570E+01 -0.98896288832E+02  0.29680811285E+03  0.33694199320E+03  0.12499946333E+03 0.  0.
          2    1    1    2  501    0 -0.23306923728E+02  0.13618563448E+02 -0.94863083804E+02  0.98629015167E+02  0.00000000000E+00 0. -1.
          1    1    1    2  502    0  0.28739155985E+02  0.85277725384E+02  0.11449561190E+04  0.11484871545E+04  0.00000000000E+00 0. -1.
         22    1    3    3    0    0 -0.17693394074E+02 -0.41711774723E+02  0.26789782670E+03  0.27170236269E+03  0.00000000000E+00 0.  1.
         22    1    3    3    0    0  0.12261161817E+02 -0.57184514109E+02  0.28910286157E+02  0.65239630507E+02  0.00000000000E+00 0.  1.
</event>
<event>
 7    1  0.6146596E-006  0.8220444E+02  0.7818608E-02  0.1457466E+00
          2   -1    0    0  502    0  0.00000000000E+00  0.00000000000E+00  0.46291786764E+02  0.46291786764E+02  0.00000000000E+00 0. -1.
          1   -1    0    0  501    0 -0.00000000000E+00 -0.00000000000E+00 -0.12907951976E+04  0.12907951976E+04  0.00000000000E+00 0. -1.
         25    2    1    2    0    0  0.95509271832E+02  0.23178045293E+02 -0.27286581862E+03  0.31581330465E+03  0.12499218229E+03 0.  0.
          2    1    1    2  501    0 -0.81164302662E+02  0.65624729678E+00 -0.98643227990E+03  0.98976599129E+03  0.00000000000E+00 0. -1.
          1    1    1    2  502    0 -0.14344969170E+02 -0.23834292589E+02  0.14794687709E+02  0.31507688397E+02  0.00000000000E+00 0. -1.
         22    1    3    3    0    0  0.52377554564E+02  0.14817479549E+02 -0.26579728752E+03  0.27131377402E+03  0.00000000000E+00 0. -1.
         22    1    3    3    0    0  0.43131717268E+02  0.83605657439E+01 -0.70685310989E+01  0.44499530627E+02  0.00000000000E+00 0. -1.
</event>
<event>
 7    1  0.6146596E-006  0.8995380E+02  0.7818608E-02  0.1378484E+00
          2   -1    0    0  502    0  0.00000000000E+00  0.00000000000E+00  0.10925790160E+03  0.10925790160E+03  0.00000000000E+00 0. -1.
          1   -1    0    0  501    0 -0.00000000000E+00 -0.00000000000E+00 -0.23449963337E+04  0.23449963337E+04  0.00000000000E+00 0. -1.
         25    2    1    2    0    0  0.51364257877E+02  0.16538154726E+02 -0.49976186376E+03  0.51797566915E+03  0.12500030323E+03 0.  0.
          2    1    1    2  501    0 -0.95167038340E+02 -0.13822452336E+00 -0.18293615640E+04  0.18318352863E+04  0.00000000000E+00 0. -1.
          1    1    1    2  502    0  0.43802780463E+02 -0.16399930202E+02  0.93384995678E+02  0.10444327985E+03  0.00000000000E+00 0. -1.
         22    1    3    3    0    0 -0.18695139516E+02 -0.19210193216E+02 -0.32763821702E+03  0.32873293266E+03  0.00000000000E+00 0.  1.
         22    1    3    3    0    0  0.70059397393E+02  0.35748347942E+02 -0.17212364674E+03  0.18924273648E+03  0.00000000000E+00 0.  1.
</event>
<event>
 7    1  0.6146596E-006  0.1066711E+03  0.7818608E-02  0.1351825E+00
          2   -1    0    0  502    0  0.00000000000E+00  0.00000000000E+00  0.56126838959E+03  0.56126838959E+03  0.00000000000E+00 0. -1.
          1   -1    0    0  501    0 -0.00000000000E+00 -0.00000000000E+00 -0.13271369290E+04  0.13271369290E+04  0.00000000000E+00 0. -1.
         25    2    1    2    0    0  0.74414067813E+02 -0.45801422968E+02 -0.13949629093E+03  0.20668823730E+03  0.12500235366E+03 0.  0.
          2    1    1    2  501    0 -0.10833045136E+03  0.10074823421E+02 -0.11503225112E+04  0.11554561301E+04  0.00000000000E+00 0. -1.
          1    1    1    2  502    0  0.33916383551E+02  0.35726599547E+02  0.52395026270E+03  0.52626095122E+03  0.00000000000E+00 0. -1.
         22    1    3    3    0    0 -0.19232883134E+02 -0.48636496501E+02 -0.80410097431E+02  0.95922866692E+02  0.00000000000E+00 0. -1.
         22    1    3    3    0    0  0.93646950947E+02  0.28350735328E+01 -0.59086193495E+02  0.11076537061E+03  0.00000000000E+00 0. -1.
</event>
<event>
 7    1  0.6146596E-006  0.2497192E+02  0.7818608E-02  0.1702176E+00
          2   -1    0    0  502    0  0.00000000000E+00  0.00000000000E+00  0.98195397888E+01  0.98195397888E+01  0.00000000000E+00 0. -1.
          1   -1    0    0  501    0 -0.00000000000E+00 -0.00000000000E+00 -0.90474120720E+03  0.90474120720E+03  0.00000000000E+00 0. -1.
         25    2    1    2    0    0  0.11480934903E+02  0.67926805215E+00 -0.50710027003E+03  0.52240042899E+03  0.12497700218E+03 0.  0.
          2    1    1    2  501    0 -0.19084886178E+02  0.17833015282E+02 -0.32884649936E+03  0.32988220543E+03  0.00000000000E+00 0. -1.
          1    1    1    2  502    0  0.76039512742E+01 -0.18512283334E+02 -0.58974898022E+02  0.62278112575E+02  0.00000000000E+00 0. -1.
         22    1    3    3    0    0  0.31855510228E+02 -0.56308846499E+02 -0.24425379443E+03  0.25267642514E+03  0.00000000000E+00 0.  1.
         22    1    3    3    0    0 -0.20374575325E+02  0.56988114551E+02 -0.26284647560E+03  0.26972400385E+03  0.00000000000E+00 0.  1.
</event>
<event>
 7    1  0.6146596E-006  0.8404146E+02  0.7818608E-02  0.1410295E+00
          2   -1    0    0  502    0  0.00000000000E+00  0.00000000000E+00  0.18056521206E+04  0.18056521206E+04  0.00000000000E+00 0. -1.
          1   -1    0    0  501    0 -0.00000000000E+00 -0.00000000000E+00 -0.44675180645E+02  0.44675180645E+02  0.00000000000E+00 0. -1.
         25    2    1    2    0    0  0.59845393903E+02  0.88967780084E+02  0.92041802990E+03  0.93502984024E+03  0.12495885453E+03 0.  0.
          2    1    1    2  501    0 -0.65951301065E+02 -0.50617426800E+02  0.98916940294E+01  0.83723017258E+02  0.00000000000E+00 0. -1.
          1    1    1    2  502    0  0.61059071623E+01 -0.38350353285E+02  0.83066721603E+03  0.83157444374E+03  0.00000000000E+00 0. -1.
         22    1    3    3    0    0  0.14410395095E+02 -0.17890202759E+01  0.72344845987E+01  0.16223373501E+02  0.00000000000E+00 0.  1.
         22    1    3    3    0    0  0.45434998808E+02  0.90756800360E+02  0.91318354530E+03  0.91880646674E+03  0.00000000000E+00 0.  1.
</event>
<event>
 7    1  0.6146596E-006  0.1030490E+03  0.7818608E-02  0.1344458E+00
          2   -1    0    0  502    0  0.00000000000E+00  0.00000000000E+00  0.11663767798E+04  0.11663767798E+04  0.00000000000E+00 0. -1.
          1   -1    0    0  501    0 -0.00000000000E+00 -0.00000000000E+00 -0.17375793225E+04  0.17375793225E+04  0.00000000000E+00 0. -1.
         25    2    1    2    0    0  0.88454290567E+02  0.10003079724E+03  0.58206239149E+03  0.61012556935E+03  0.12500504338E+03 0.  0.
          2    1    1    2  501    0 -0.92226387813E+02 -0.45851494609E+02 -0.17207113241E+04  0.17237910334E+04  0.00000000000E+00 0. -1.
          1    1    1    2  502    0  0.37720972462E+01 -0.54179302634E+02  0.56744638987E+03  0.57003949945E+03  0.00000000000E+00 0. -1.
         22    1    3    3    0    0 -0.98355636202E+01  0.81917845875E+02  0.28488583479E+03  0.29659266789E+03  0.00000000000E+00 0.  1.
         22    1    3    3    0    0  0.98289854187E+02  0.18112951368E+02  0.29717655670E+03  0.31353290145E+03  0.00000000000E+00 0.  1.
</event>
<event>
 7    1  0.6146596E-006  0.4509847E+02  0.7818608E-02  0.1490241E+00
          2   -1    0    0  502    0  0.00000000000E+00  0.00000000000E+00  0.30622323355E+03  0.30622323355E+03  0.00000000000E+00 0. -1.
          1   -1    0    0  501    0 -0.00000000000E+00 -0.00000000000E+00 -0.45412111572E+03  0.45412111572E+03  0.00000000000E+00 0. -1.
         25    2    1    2    0    0 -0.64208611848E+01 -0.80963910521E+02  0.24347477078E+02  0.15100629123E+03  0.12495486420E+03 0.  0.
          2    1    1    2  501    0  0.13852498929E+02  0.37680587433E+02 -0.38753799455E+03  0.38961187818E+03  0.00000000000E+00 0. -1.
          1    1    1    2  502    0 -0.74316377443E+01  0.43283323088E+02  0.21529263531E+03  0.21972617986E+03  0.00000000000E+00 0. -1.
         22    1    3    3    0    0  0.63530919920E-01 -0.76984071049E+02  0.70405586633E+02  0.10432400424E+03  0.00000000000E+00 0.  1.
         22    1    3    3    0    0 -0.64843921047E+01 -0.39798394721E+01 -0.46058109556E+02  0.46682286994E+02  0.00000000000E+00 0.  1.
</event>
<event>
 7    1  0.6146596E-006  0.9103292E+02  0.7818608E-02  0.1386679E+00
          2   -1    0    0  502    0  0.00000000000E+00  0.00000000000E+00  0.29502565832E+04  0.29502565832E+04  0.00000000000E+00 0. -1.
          1   -1    0    0  501    0 -0.00000000000E+00 -0.00000000000E+00 -0.71641464173E+03  0.71641464173E+03  0.00000000000E+00 0. -1.
         25    2    1    2    0    0  0.33103186755E+02  0.80510125878E+02  0.39466146123E+03  0.42303655131E+03  0.12499821366E+03 0.  0.
          2    1    1    2  501    0 -0.70138487558E+02 -0.58190595589E+02 -0.69908531434E+03  0.70500058835E+03  0.00000000000E+00 0. -1.
          1    1    1    2  502    0  0.37035300802E+02 -0.22319530289E+02  0.25382657946E+04  0.25386340853E+04  0.00000000000E+00 0. -1.
         22    1    3    3    0    0  0.74267211174E+02  0.16592217062E+02  0.18662581333E+03  0.20154432397E+03  0.00000000000E+00 0.  1.
         22    1    3    3    0    0 -0.41164024418E+02  0.63917908816E+02  0.20803564790E+03  0.22149222734E+03  0.00000000000E+00 0.  1.
</event>
<event>
 7    1  0.6146596E-006  0.1028933E+03  0.7818608E-02  0.1375842E+00
          2   -1    0    0  502    0  0.00000000000E+00  0.00000000000E+00  0.24749139737E+04  0.24749139737E+04  0.00000000000E+00 0. -1.
          1   -1    0    0  501    0 -0.00000000000E+00 -0.00000000000E+00 -0.13413589519E+03  0.13413589519E+03  0.00000000000E+00 0. -1.
         25    2    1    2    0    0  0.20212563992E+02 -0.11894543367E+03  0.70638404839E+03  0.72743355059E+03  0.12499833110E+03 0.  0.
          2    1    1    2  501    0 -0.37145857867E+02  0.19134467183E+02 -0.11857736757E+03  0.12572404182E+03  0.00000000000E+00 0. -1.
          1    1    1    2  502    0  0.16933293874E+02  0.99810966487E+02  0.17529713977E+04  0.17558922765E+04  0.00000000000E+00 0. -1.
         22    1    3    3    0    0 -0.19667609607E+01  0.17618775754E+02  0.17927830287E+02  0.25213022559E+02  0.00000000000E+00 0.  1.
         22    1    3    3    0    0  0.22179324953E+02 -0.13656420942E+03  0.68845621810E+03  0.70222052804E+03  0.00000000000E+00 0.  1.
</event>
<event>
 7    1  0.6146596E-006  0.2039622E+03  0.7818608E-02  0.1209698E+00
          2   -1    0    0  502    0  0.00000000000E+00  0.00000000000E+00  0.45574697048E+04  0.45574697048E+04  0.00000000000E+00 0. -1.
          1   -1    0    0  501    0 -0.00000000000E+00 -0.00000000000E+00 -0.20591758930E+04  0.20591758930E+04  0.00000000000E+00 0. -1.
         25    2    1    2    0    0 -0.24011512177E+03 -0.18069478626E+03  0.30781275009E+03  0.44797198774E+03  0.12499734077E+03 0.  0.
          2    1    1    2  501    0  0.80772549156E+02  0.58760502819E+02 -0.19854320486E+04  0.19879430125E+04  0.00000000000E+00 0. -1.
          1    1    1    2  502    0  0.15934257261E+03  0.12193428344E+03  0.41759131102E+04  0.41807305975E+04  0.00000000000E+00 0. -1.
         22    1    3    3    0    0 -0.88123082563E+02 -0.14073476735E+03  0.13171814341E+03  0.21194721448E+03  0.00000000000E+00 0.  1.
         22    1    3    3    0    0 -0.15199203920E+03 -0.39960018912E+02  0.17609460668E+03  0.23602477326E+03  0.00000000000E+00 0.  1.
</event>
<event>
 7    1  0.6146596E-006  0.4361592E+02  0.7818608E-02  0.1570610E+00
          2   -1    0    0  502    0  0.00000000000E+00  0.00000000000E+00  0.18197500725E+03  0.18197500725E+03  0.00000000000E+00 0. -1.
          1   -1    0    0  501    0 -0.00000000000E+00 -0.00000000000E+00 -0.56561250002E+03  0.56561250002E+03  0.00000000000E+00 0. -1.
         25    2    1    2    0    0 -0.90751893586E+01 -0.39414611482E+02 -0.13212691669E+03  0.18632907671E+03  0.12500052822E+03 0.  0.
          2    1    1    2  501    0  0.24372313104E+02 -0.16336042467E+01 -0.40290958306E+03  0.40364936570E+03  0.00000000000E+00 0. -1.
          1    1    1    2  502    0 -0.15297123746E+02  0.41048215729E+02  0.15139900698E+03  0.15760906485E+03  0.00000000000E+00 0. -1.
         22    1    3    3    0    0  0.21368647206E+02 -0.53185311102E+02 -0.14062024788E+03  0.15185305566E+03  0.00000000000E+00 0.  1.
         22    1    3    3    0    0 -0.30443836564E+02  0.13770699620E+02  0.84933311885E+01  0.34476021050E+02  0.00000000000E+00 0.  1.
</event>
<event>
 7    1  0.6146596E-006  0.3648340E+02  0.7818608E-02  0.1606085E+00
          2   -1    0    0  502    0  0.00000000000E+00  0.00000000000E+00  0.67610523271E+03  0.67610523271E+03  0.00000000000E+00 0. -1.
          1   -1    0    0  501    0 -0.00000000000E+00 -0.00000000000E+00 -0.36468007908E+03  0.36468007908E+03  0.00000000000E+00 0. -1.
         25    2    1    2    0    0  0.45983560371E+02 -0.10890872760E+02 -0.20276791554E+03  0.24284959368E+03  0.12501199399E+03 0.  0.
          2    1    1    2  501    0 -0.34527886450E+02 -0.96428298366E+01 -0.13939188278E+03  0.14392795452E+03  0.00000000000E+00 0. -1.
          1    1    1    2  502    0 -0.11455673921E+02  0.20533702597E+02  0.65358495195E+03  0.65400776358E+03  0.00000000000E+00 0. -1.
         22    1    3    3    0    0 -0.16468137575E+02  0.69783613735E+01  0.99274980392E+01  0.20456106667E+02  0.00000000000E+00 0.  1.
         22    1    3    3    0    0  0.62451697946E+02 -0.17869234134E+02 -0.21269541358E+03  0.22239348701E+03  0.00000000000E+00 0.  1.
</event>
<event>
 7    1  0.6146596E-006  0.1104490E+03  0.7818608E-02  0.1278463E+00
          2   -1    0    0  502    0  0.00000000000E+00  0.00000000000E+00  0.16531647154E+03  0.16531647154E+03  0.00000000000E+00 0. -1.
          1   -1    0    0  501    0 -0.00000000000E+00 -0.00000000000E+00 -0.12135418886E+04  0.12135418886E+04  0.00000000000E+00 0. -1.
         25    2    1    2    0    0  0.93950982517E+01  0.68428744163E+02 -0.35933368109E+03  0.38667277806E+03  0.12499752808E+03 0.  0.
          2    1    1    2  501    0 -0.91419192461E+02  0.11455223493E+02 -0.81595844098E+03  0.82114363439E+03  0.00000000000E+00 0. -1.
          1    1    1    2  502    0  0.82024094209E+02 -0.79883967657E+02  0.12706670506E+03  0.17104194765E+03  0.00000000000E+00 0. -1.
         22    1    3    3    0    0 -0.21132247503E+01  0.10440181564E+03 -0.27906503780E+03  0.29796224619E+03  0.00000000000E+00 0.  1.
         22    1    3    3    0    0  0.11508323002E+02 -0.35973071478E+02 -0.80268643290E+02  0.88710531874E+02  0.00000000000E+00 0.  1.
</event>
<event>
 7    1  0.6146596E-006  0.2256165E+03  0.7818608E-02  0.1237442E+00
          2   -1    0    0  502    0  0.00000000000E+00  0.00000000000E+00  0.63748577696E+02  0.63748577696E+02  0.00000000000E+00 0. -1.
          1   -1    0    0  501    0 -0.00000000000E+00 -0.00000000000E+00 -0.24596489729E+04  0.24596489729E+04  0.00000000000E+00 0. -1.
         25    2    1    2    0    0 -0.17555780636E+03 -0.45810381223E+02 -0.78180160679E+03  0.81225813742E+03  0.12502157824E+03 0.  0.
          2    1    1    2  501    0 -0.65816790016E+02  0.15406473260E+02 -0.13514158070E+04  0.13531052778E+04  0.00000000000E+00 0. -1.
          1    1    1    2  502    0  0.24137459637E+03  0.30403907964E+02 -0.26268298135E+03  0.35803413536E+03  0.00000000000E+00 0. -1.
         22    1    3    3    0    0 -0.28588233562E+02  0.37345178865E+02 -0.11149417816E+03  0.12100785613E+03  0.00000000000E+00 0.  1.
         22    1    3    3    0    0 -0.14696957279E+03 -0.83155560088E+02 -0.67030742863E+03  0.69125028128E+03  0.00000000000E+00 0.  1.
</event>
<event>
 7    1  0.6146596E-006  0.8476187E+02  0.7818608E-02  0.1320788E+00
          2   -1    0    0  502    0  0.00000000000E+00  0.00000000000E+00  0.38550135537E+04  0.38550135537E+04  0.00000000000E+00 0. -1.
          1   -1    0    0  501    0 -0.00000000000E+00 -0.00000000000E+00 -0.36921728137E+03  0.36921728137E+03  0.00000000000E+00 0. -1.
         25    2    1    2    0    0  0.16720824877E+02  0.14380370383E+03  0.51297238722E+03  0.54746730557E+03  0.12498275639E+03 0.  0.
          2    1    1    2  501    0 -0.48486569853E+02 -0.69025757600E+02 -0.34641152835E+03  0.35653393898E+03  0.00000000000E+00 0. -1.
          1    1    1    2  502    0  0.31765744975E+02 -0.74777946229E+02  0.33192354134E+04  0.33202295905E+04  0.00000000000E+00 0. -1.
         22    1    3    3    0    0  0.21678486742E+02  0.12316092167E+03  0.51107572412E+03  0.52615298650E+03  0.00000000000E+00 0.  1.
         22    1    3    3    0    0 -0.49576618648E+01  0.20642782162E+02  0.18966631011E+01  0.21314319071E+02  0.00000000000E+00 0.  1.
</event>
<event>
 7    1  0.6146596E-006  0.4240523E+02  0.7818608E-02  0.1563863E+00
          2   -1    0    0  502    0  0.00000000000E+00  0.00000000000E+00  0.10489836945E+04  0.10489836945E+04  0.00000000000E+00 0. -1.
          1   -1    0    0  501    0 -0.00000000000E+00 -0.00000000000E+00 -0.20092902603E+03  0.20092902603E+03  0.00000000000E+00 0. -1.
         25    2    1    2    0    0  0.10737280333E+02  0.12411091531E+02  0.78037954502E+03  0.79049776782E+03  0.12500064902E+03 0.  0.
          2    1    1    2  501    0 -0.30942900837E+02 -0.29107641913E+02 -0.19290119426E+03  0.19752364081E+03  0.00000000000E+00 0. -1.
          1    1    1    2  502    0  0.20205620505E+02  0.16696550382E+02  0.26057631770E+03  0.26189131188E+03  0.00000000000E+00 0. -1.
         22    1    3    3    0    0  0.98057719899E+01  0.33923659505E+01  0.78131412885E+03  0.78138302340E+03  0.00000000000E+00 0. -1.
         22    1    3    3    0    0  0.93150834283E+00  0.90187255804E+01 -0.93458383175E+00  0.91147444191E+01  0.00000000000E+00 0. -1.
</event>
<event>
 7    1  0.6146596E-006  0.2213479E+03  0.7818608E-02  0.1286129E+00
          2   -1    0    0  502    0  0.00000000000E+00  0.00000000000E+00  0.48164733593E+03  0.48164733593E+03  0.00000000000E+00 0. -1.
          1   -1    0    0  501    0 -0.00000000000E+00 -0.00000000000E+00 -0.30392253513E+03  0.30392253513E+03  0.00000000000E+00 0. -1.
         25    2    1    2    0    0 -0.28804388301E+02 -0.21988283302E+03  0.16565210394E+03  0.30371700835E+03  0.12500099429E+03 0.  0.
          2    1    1    2  501    0  0.70516720120E+02  0.21051735298E+03 -0.17954222422E+03  0.28552683586E+03  0.00000000000E+00 0. -1.
          1    1    1    2  502    0 -0.41712331819E+02  0.93654800441E+01  0.19161492107E+03  0.19632602685E+03  0.00000000000E+00 0. -1.
         22    1    3    3    0    0 -0.72804109466E+02 -0.11001483174E+03  0.59441886121E+02  0.14469636963E+03  0.00000000000E+00 0.  1.
         22    1    3    3    0    0  0.43999721165E+02 -0.10986800128E+03  0.10621021782E+03  0.15902063872E+03  0.00000000000E+00 0.  1.
</event>
<event>
 7    1  0.6146596E-006  0.1812066E+03  0.7818608E-02  0.1193743E+00
          2   -1    0    0  502    0  0.00000000000E+00  0.00000000000E+00  0.10120529058E+04  0.10120529058E+04  0.00000000000E+00 0. -1.
          1   -1    0    0  501    0 -0.00000000000E+00 -0.00000000000E+00 -0.43201661504E+03  0.43201661504E+03  0.00000000000E+00 0. -1.
         25    2    1    2    0    0 -0.61880501371E+02  0.13869571360E+03 -0.14930029413E+03  0.24694320864E+03  0.12499869217E+03 0.  0.
          2    1    1    2  501    0  0.19511979702E+03 -0.12847525973E+03 -0.16936010155E+03  0.28854890668E+03  0.00000000000E+00 0. -1.
          1    1    1    2  502    0 -0.13323929565E+03 -0.10220453867E+02  0.89869668641E+03  0.90857740547E+03  0.00000000000E+00 0. -1.
         22    1    3    3    0    0 -0.91653078776E+02  0.53240198956E+02 -0.74827847084E+02  0.12974595305E+03  0.00000000000E+00 0.  1.
         22    1    3    3    0    0  0.29772577405E+02  0.85455514644E+02 -0.74472447049E+02  0.11719725559E+03  0.00000000000E+00 0.  1.
</event>
<event>
 7    1  0.6146596E-006  0.9631675E+02  0.7818608E-02  0.1288451E+00
          2   -1    0    0  502    0  0.00000000000E+00  0.00000000000E+00  0.10839302941E+04  0.10839302941E+04  0.00000000000E+00 0. -1.
          1   -1    0    0  501    0 -0.00000000000E+00 -0.00000000000E+00 -0.12925685062E+03  0.12925685062E+03  0.00000000000E+00 0. -1.
         25    2    1    2    0    0  0.44552890335E+02 -0.27936383587E+02  0.46778796007E+03  0.48704792540E+03  0.12499881795E+03 0.  0.
          2    1    1    2  501    0  0.21862026625E+02  0.97426044991E+02 -0.94131619872E+02  0.13722443044E+03  0.00000000000E+00 0. -1.
          1    1    1    2  502    0 -0.66414916960E+02 -0.69489661404E+02  0.58101710332E+03  0.58891478891E+03  0.00000000000E+00 0. -1.
         22    1    3    3    0    0 -0.72271416492E+01  0.34202890632E+02  0.28534804305E+03  0.28748143414E+03  0.00000000000E+00 0.  1.
         22    1    3    3    0    0  0.51780031984E+02 -0.62139274219E+02  0.18243991702E+03  0.19956649127E+03  0.00000000000E+00 0.  1.
</event>
<event>
 7    1  0.6146596E-006  0.8603462E+02  0.7818608E-02  0.1347721E+00
          2   -1    0    0  502    0  0.00000000000E+00  0.00000000000E+00  0.24263098014E+03  0.24263098014E+03  0.00000000000E+00 0. -1.
          1   -1    0    0  501    0 -0.00000000000E+00 -0.00000000000E+00 -0.15719352133E+04  0.15719352133E+04  0.00000000000E+00 0. -1.
         25    2    1    2    0    0 -0.36886251482E+02  0.30671276908E+02 -0.15999588845E+03  0.20862542714E+03  0.12499824700E+03 0.  0.
          2    1    1    2  501    0  0.10920184794E+02 -0.88350718793E+02 -0.13815798778E+04  0.13844450364E+04  0.00000000000E+00 0. -1.
          1    1    1    2  502    0  0.25966066688E+02  0.57679441885E+02  0.21227153308E+03  0.22149572996E+03  0.00000000000E+00 0. -1.
         22    1    3    3    0    0  0.31241778719E+02 -0.72156724802E+01 -0.16211858768E+01  0.32105185103E+02  0.00000000000E+00 0. -1.
         22    1    3    3    0    0 -0.68128030201E+02  0.37886949388E+02 -0.15837470257E+03  0.17652024203E+03  0.00000000000E+00 0. -1.
</event>
<event>
 7    1  0.6146596E-006  0.8698106E+02  0.7818608E-02  0.1347208E+00
          2   -1    0    0  502    0  0.00000000000E+00  0.00000000000E+00  0.21938049810E+04  0.21938049810E+04  0.00000000000E+00 0. -1.
          1   -1    0    0  501    0 -0.00000000000E+00 -0.00000000000E+00 -0.97041596812E+03  0.97041596812E+03  0.00000000000E+00 0. -1.
         25    2    1    2    0    0 -0.94229675157E+02  0.12550228317E+02  0.14520745583E+04  0.14605419857E+04  0.12500251698E+03 0.  0.
          2    1    1    2  501    0  0.73382883591E+02  0.46733147289E+02 -0.96287878355E+03  0.96680121353E+03  0.00000000000E+00 0. -1.
          1    1    1    2  502    0  0.20846791566E+02 -0.59283375605E+02  0.73419323812E+03  0.73687774986E+03  0.00000000000E+00 0. -1.
         22    1    3    3    0    0 -0.36981631179E+02 -0.30734486172E+02  0.11089422154E+04  0.11099842732E+04  0.00000000000E+00 0. -1.
         22    1    3    3    0    0 -0.57248043978E+02  0.43284714489E+02  0.34313234291E+03  0.35055771251E+03  0.00000000000E+00 0. -1.
</event>
<event>
 7    1  0.6146596E-006  0.1273260E+03  0.7818608E-02  0.1271394E+00
          2   -1    0    0  502    0  0.00000000000E+00  0.00000000000E+00  0.14697273154E+04  0.14697273154E+04  0.00000000000E+00 0. -1.
          1   -1    0    0  501    0 -0.00000000000E+00 -0.00000000000E+00 -0.49595621744E+03  0.49595621744E+03  0.00000000000E+00 0. -1.
         25    2    1    2    0    0 -0.77824696250E+02  0.13388840670E+03 -0.87244174947E+02  0.21729896319E+03  0.12499801817E+03 0.  0.
          2    1    1    2  501    0  0.11312652358E+03 -0.55983968635E+02 -0.33073842424E+03  0.35400525469E+03  0.00000000000E+00 0. -1.
          1    1    1    2  502    0 -0.35301827328E+02 -0.77904438066E+02  0.13917536972E+04  0.13943793150E+04  0.00000000000E+00 0. -1.
         22    1    3    3    0    0 -0.40066996927E+02  0.15011992873E+03 -0.82522542044E+02  0.17592989282E+03  0.00000000000E+00 0.  1.
         22    1    3    3    0    0 -0.37757699324E+02 -0.16231522027E+02 -0.47216329029E+01  0.41369070364E+02  0.00000000000E+00 0.  1.
</event>
<event>
 7    1  0.6146596E-006  0.1032704E+03  0.7818608E-02  0.1366878E+00
          2   -1    0    0  502    0  0.00000000000E+00  0.00000000000E+00  0.23216017039E+03  0.23216017039E+03  0.00000000000E+00 0. -1.
          1   -1    0    0  501    0 -0.00000000000E+00 -0.00000000000E+00 -0.17896545319E+03  0.17896545319E+03  0.00000000000E+00 0. -1.
         25    2    1    2    0    0  0.70752069432E+02 -0.10277551290E+03  0.41840163155E+02  0.18150648759E+03  0.12500137761E+03 0.  0.
          2    1    1    2  501    0 -0.80521450882E+02  0.59020776309E+02 -0.79949186201E+02  0.12790241773E+03  0.00000000000E+00 0. -1.
          1    1    1    2  502    0  0.97693814492E+01  0.43754736589E+02  0.91303740246E+02  0.10171671825E+03  0.00000000000E+00 0. -1.
         22    1    3    3    0    0 -0.24219848156E+02  0.92506975687E+01  0.20597546964E+02  0.33112465797E+02  0.00000000000E+00 0. -1.
         22    1    3    3    0    0  0.94971917589E+02 -0.11202621047E+03  0.21242616192E+02  0.14839402180E+03  0.00000000000E+00 0. -1.
</event>
<event>
 7    1  0.7233371E-006  0.1529282E+03  0.7818608E-02  0.1307800E+00
          2   -1    0    0  502    0  0.00000000000E+00  0.00000000000E+00  0.12610857599E+04  0.12610857599E+04  0.00000000000E+00 0. -1.
          1   -1    0    0  501    0 -0.00000000000E+00 -0.00000000000E+00 -0.20319929277E+04  0.20319929277E+04  0.00000000000E+00 0. -1.
         25    2    1    2    0    0  0.13997736364E+02 -0.15262073615E+03 -0.45957155275E+03  0.50032218740E+03  0.12500901320E+03 0.  0.
          2    1    1    2  501    0  0.48889897543E+02  0.13135499170E+02 -0.15469131658E+04  0.15477412916E+04  0.00000000000E+00 0. -1.
          1    1    1    2  502    0 -0.62887633908E+02  0.13948523698E+03  0.12355775507E+04  0.12450152086E+04  0.00000000000E+00 0. -1.
         22    1    3    3    0    0  0.61350767078E+02 -0.58532889713E+02 -0.13830668135E+03  0.16223055787E+03  0.00000000000E+00 0. -1.
         22    1    3    3    0    0 -0.47353030714E+02 -0.94087846435E+02 -0.32126487140E+03  0.33809162953E+03  0.00000000000E+00 0. -1.
</event>
<event>
 7    1  0.6146596E-006  0.1234735E+03  0.7818608E-02  0.1305207E+00
          2   -1    0    0  502    0  0.00000000000E+00  0.00000000000E+00  0.30593729081E+03  0.30593729081E+03  0.00000000000E+00 0. -1.
          1   -1    0    0  501    0 -0.00000000000E+00 -0.00000000000E+00 -0.17071394344E+03  0.17071394344E+03  0.00000000000E+00 0. -1.
         25    2    1    2    0    0 -0.25566381588E+02  0.14883458640E+03  0.16407629688E+03  0.25564087965E+03  0.12500341667E+03 0.  0.
          2    1    1    2  501    0  0.67507572142E+02 -0.10022667163E+03 -0.74748443748E+02  0.14209147703E+03  0.00000000000E+00 0. -1.
          1    1    1    2  502    0 -0.41941190554E+02 -0.48607914768E+02  0.45895494239E+02  0.78918877556E+02  0.00000000000E+00 0. -1.
         22    1    3    3    0    0  0.46749197243E+02  0.91192661782E+02  0.72794860218E+02  0.12570075847E+03  0.00000000000E+00 0.  1.
         22    1    3    3    0    0 -0.72315578832E+02  0.57641924616E+02  0.91281436658E+02  0.12994012119E+03  0.00000000000E+00 0.  1.
</event>
<event>
 7    1  0.6146596E-006  0.1887774E+03  0.7818608E-02  0.1208927E+00
          2   -1    0    0  502    0  0.00000000000E+00  0.00000000000E+00  0.11719252753E+04  0.11719252753E+04  0.00000000000E+00 0. -1.
          1   -1    0    0  501    0 -0.00000000000E+00 -0.00000000000E+00 -0.17442182335E+03  0.17442182335E+03  0.00000000000E+00 0. -1.
         25    2    1    2    0    0  0.10154036766E+03  0.13404612252E+02 -0.13087974472E+02  0.16213139329E+03  0.12500065488E+03 0.  0.
          2    1    1    2  501    0  0.91962158960E+02 -0.58164520389E+02 -0.39308568509E+02  0.11569491636E+03  0.00000000000E+00 0. -1.
          1    1    1    2  502    0 -0.19350252662E+03  0.44759908137E+02  0.10498999949E+04  0.10685207890E+04  0.00000000000E+00 0. -1.
         22    1    3    3    0    0  0.96515371141E+02 -0.33807728477E+02  0.20075420895E+02  0.10421709023E+03  0.00000000000E+00 0.  1.
         22    1    3    3    0    0  0.50249965195E+01  0.47212340729E+02 -0.33163395367E+02  0.57914303064E+02  0.00000000000E+00 0.  1.
</event>
<event>
 7    1  0.8249940E-006  0.7415765E+02  0.7818608E-02  0.1368242E+00
          2   -1    0    0  502    0  0.00000000000E+00  0.00000000000E+00  0.72900976952E+03  0.72900976952E+03  0.00000000000E+00 0. -1.
          1   -1    0    0  501    0 -0.00000000000E+00 -0.00000000000E+00 -0.20080718918E+04  0.20080718918E+04  0.00000000000E+00 0. -1.
         25    2    1    2    0    0 -0.11298271416E+03  0.45783176034E+02 -0.34668692414E+03  0.38817044300E+03  0.12499310598E+03 0.  0.
          2    1    1    2  501    0  0.61314529694E+02  0.71361449278E+01 -0.16381295262E+04  0.16392921463E+04  0.00000000000E+00 0. -1.
          1    1    1    2  502    0  0.51668184467E+02 -0.52919320962E+02  0.70575432808E+03  0.70961907205E+03  0.00000000000E+00 0. -1.
         22    1    3    3    0    0 -0.14623362743E+02 -0.13896207865E+02  0.26778745342E+01  0.20349897862E+02  0.00000000000E+00 0. -1.
         22    1    3    3    0    0 -0.98359351418E+02  0.59679383900E+02 -0.34936479868E+03  0.36782054514E+03  0.00000000000E+00 0. -1.
</event>
<event>
 7    1  0.6146596E-006  0.6345318E+02  0.7818608E-02  0.1527555E+00
          2   -1    0    0  502    0  0.00000000000E+00  0.00000000000E+00  0.36828540515E+04  0.36828540515E+04  0.00000000000E+00 0. -1.
          1   -1    0    0  501    0 -0.00000000000E+00 -0.00000000000E+00 -0.14722003661E+03  0.14722003661E+03  0.00000000000E+00 0. -1.
         25    2    1    2    0    0  0.24181708566E+02 -0.33967457474E+02 -0.79955631798E+02  0.15413112811E+03  0.12499983360E+03 0.  0.
          2    1    1    2  501    0  0.16421377939E+02 -0.14861472880E+02 -0.25798392842E+02  0.34001207373E+02  0.00000000000E+00 0. -1.
          1    1    1    2  502    0 -0.40603086506E+02  0.48828930354E+02  0.36413880396E+04  0.36419417527E+04  0.00000000000E+00 0. -1.
         22    1    3    3    0    0 -0.29905674564E+02 -0.62832422793E+02 -0.33615846904E+02  0.77280578985E+02  0.00000000000E+00 0.  1.
         22    1    3    3    0    0  0.54087383131E+02  0.28864965319E+02 -0.46339784893E+02  0.76850549125E+02  0.00000000000E+00 0.  1.
</event>
<event>
 7    1  0.6146596E-006  0.6857960E+02  0.7818608E-02  0.1500522E+00
          2   -1    0    0  502    0  0.00000000000E+00  0.00000000000E+00  0.75764872614E+03  0.75764872614E+03  0.00000000000E+00 0. -1.
          1   -1    0    0  501    0 -0.00000000000E+00 -0.00000000000E+00 -0.12503081802E+03  0.12503081802E+03  0.00000000000E+00 0. -1.
         25    2    1    2    0    0 -0.10490933566E+01 -0.89583912345E+02  0.34711146417E+03  0.37965490556E+03  0.12500040324E+03 0.  0.
          2    1    1    2  501    0 -0.16075234186E+01  0.24536111973E+02 -0.10463677628E+03  0.10748702188E+03  0.00000000000E+00 0. -1.
          1    1    1    2  502    0  0.26566167752E+01  0.65047800372E+02  0.39014322023E+03  0.39553761672E+03  0.00000000000E+00 0. -1.
         22    1    3    3    0    0 -0.30678735314E+02  0.22097697793E+02  0.73745343763E+02  0.82872605697E+02  0.00000000000E+00 0.  1.
         22    1    3    3    0    0  0.29629641958E+02 -0.11168161014E+03  0.27336612041E+03  0.29678229987E+03  0.00000000000E+00 0.  1.
</event>
<event>
 7    1  0.6146596E-006  0.1034826E+03  0.7818608E-02  0.1283042E+00
          2   -1    0    0  502    0  0.00000000000E+00  0.00000000000E+00  0.16494590098E+04  0.16494590098E+04  0.00000000000E+00 0. -1.
          1   -1    0    0  501    0 -0.00000000000E+00 -0.00000000000E+00 -0.57994220834E+02  0.57994220834E+02  0.00000000000E+00 0. -1.
         25    2    1    2    0    0  0.95837416477E+02 -0.87479892913E+02  0.26160267285E+03  0.31765798564E+03  0.12503237715E+03 0.  0.
          2    1    1    2  501    0 -0.10412694898E+03 -0.63036363833E+01  0.68217551867E+02  0.12464265609E+03  0.00000000000E+00 0. -1.
          1    1    1    2  502    0  0.82895325012E+01  0.93783529296E+02  0.12616445642E+04  0.12651525889E+04  0.00000000000E+00 0. -1.
         22    1    3    3    0    0  0.74653821921E+02  0.87209381512E+01  0.15648022375E+03  0.17359524278E+03  0.00000000000E+00 0.  1.
         22    1    3    3    0    0  0.21183594556E+02 -0.96200831064E+02  0.10512244910E+03  0.14406274286E+03  0.00000000000E+00 0.  1.
</event>
<event>
 7    1  0.6146596E-006  0.3690648E+02  0.7818608E-02  0.1547385E+00
          2   -1    0    0  502    0  0.00000000000E+00  0.00000000000E+00  0.40660803428E+03  0.40660803428E+03  0.00000000000E+00 0. -1.
          1   -1    0    0  501    0 -0.00000000000E+00 -0.00000000000E+00 -0.21873428919E+04  0.21873428919E+04  0.00000000000E+00 0. -1.
         25    2    1    2    0    0 -0.60008911136E+02  0.32455459936E+02 -0.59909854327E+03  0.61579074476E+03  0.12499900195E+03 0.  0.
          2    1    1    2  501    0  0.27930398856E+02 -0.22965421759E+02 -0.15789884067E+04  0.15794023890E+04  0.00000000000E+00 0. -1.
          1    1    1    2  502    0  0.32078512280E+02 -0.94900381774E+01  0.39735209233E+03  0.39875779247E+03  0.00000000000E+00 0. -1.
         22    1    3    3    0    0  0.16377554200E+01 -0.27027111637E+02 -0.37342053786E+03  0.37440091493E+03  0.00000000000E+00 0. -1.
         22    1    3    3    0    0 -0.61646666556E+02  0.59482571574E+02 -0.22567800542E+03  0.24138982983E+03  0.00000000000E+00 0. -1.
</event>
<event>
 7    1  0.6146596E-006  0.1813919E+03  0.7818608E-02  0.1296739E+00
          2   -1    0    0  502    0  0.00000000000E+00  0.00000000000E+00  0.34426541656E+03  0.34426541656E+03  0.00000000000E+00 0. -1.
          1   -1    0    0  501    0 -0.00000000000E+00 -0.00000000000E+00 -0.33884569290E+03  0.33884569290E+03  0.00000000000E+00 0. -1.
         25    2    1    2    0    0 -0.13399150928E+03 -0.17420380846E+03 -0.33182606624E+02  0.25500511263E+03  0.12500332253E+03 0.  0.
          2    1    1    2  501    0  0.25435534247E+02  0.39812363044E+02 -0.15886119670E+03  0.16573735388E+03  0.00000000000E+00 0. -1.
          1    1    1    2  502    0  0.10855597504E+03  0.13439144542E+03  0.19746352698E+03  0.26236864295E+03  0.00000000000E+00 0. -1.
         22    1    3    3    0    0 -0.18859047554E+02 -0.11216095027E+02  0.37381456221E+02  0.43345561843E+02  0.00000000000E+00 0.  1.
         22    1    3    3    0    0 -0.11513246173E+03 -0.16298771343E+03 -0.70564062845E+02  0.21165955079E+03  0.00000000000E+00 0.  1.
</event>
<event>
 7    1  0.6146596E-006  0.7575115E+02  0.7818608E-02  0.1442536E+00
          2   -1    0    0  502    0  0.00000000000E+00  0.00000000000E+00  0.20404774576E+03  0.20404774576E+03  0.00000000000E+00 0. -1.
          1   -1    0    0  501    0 -0.00000000000E+00 -0.00000000000E+00 -0.12637785749E+04  0.12637785749E+04  0.00000000000E+00 0. -1.
         25    2    1    2    0    0 -0.10409221516E+03  0.24810566000E+02 -0.62616579456E+02  0.17605909882E+03  0.12500086725E+03 0.  0.
          2    1    1    2  501    0  0.32407857586E+02 -0.92355848320E+01 -0.11350436847E+04  0.11355438042E+04  0.00000000000E+00 0. -1.
          1    1    1    2  502    0  0.71684357576E+02 -0.15574981168E+02  0.13792943500E+03  0.15622341758E+03  0.00000000000E+00 0. -1.
         22    1    3    3    0    0  0.28892182511E+02  0.97329131894E+01 -0.15242886226E+02  0.34085677196E+02  0.00000000000E+00 0.  1.
         22    1    3    3    0    0 -0.13298439767E+03  0.15077652810E+02 -0.47373693230E+02  0.14197342163E+03  0.00000000000E+00 0.  1.
</event>
<event>
 7    1  0.6146596E-006  0.9215568E+02  0.7818608E-02  0.1462701E+00
          2   -1    0    0  502    0  0.00000000000E+00  0.00000000000E+00  0.12884310320E+04  0.12884310320E+04  0.00000000000E+00 0. -1.
          1   -1    0    0  501    0 -0.00000000000E+00 -0.00000000000E+00 -0.58955567896E+03  0.58955567896E+03  0.00000000000E+00 0. -1.
         25    2    1    2    0    0 -0.48202233919E+02  0.48597903478E+02  0.47357111452E+03  0.49454924984E+03  0.12499659368E+03 0.  0.
          2    1    1    2  501    0  0.65218110319E+02 -0.65364646202E+02 -0.57520640205E+03  0.58257046256E+03  0.00000000000E+00 0. -1.
          1    1    1    2  502    0 -0.17015876400E+02  0.16766742724E+02  0.80051064058E+03  0.80086699857E+03  0.00000000000E+00 0. -1.
         22    1    3    3    0    0 -0.45962867132E+02  0.51397109953E+02  0.48120275944E+03  0.48611762338E+03  0.00000000000E+00 0.  1.
         22    1    3    3    0    0 -0.22393667870E+01 -0.27992064753E+01 -0.76316449233E+01  0.84316264584E+01  0.00000000000E+00 0.  1.
</event>
<event>
 7    1  0.6146596E-006  0.5239959E+02  0.7818608E-02  0.1437819E+00
          2   -1    0    0  502    0  0.00000000000E+00  0.00000000000E+00  0.84564923368E+03  0.84564923368E+03  0.00000000000E+00 0. -1.
          1   -1    0    0  501    0 -0.00000000000E+00 -0.00000000000E+00 -0.12483137861E+03  0.12483137861E+03  0.00000000000E+00 0. -1.
         25    2    1    2    0    0  0.72808741954E+01 -0.10192319391E+03  0.55815366998E+03  0.58103434402E+03  0.12499616404E+03 0.  0.
          2    1    1    2  501    0 -0.64647694847E+01  0.51467188265E+02 -0.10497492308E+03  0.11709141381E+03  0.00000000000E+00 0. -1.
          1    1    1    2  502    0 -0.81610471070E+00  0.50456005650E+02  0.26763910816E+03  0.27235485447E+03  0.00000000000E+00 0. -1.
         22    1    3    3    0    0  0.13171064485E+02 -0.64241774183E+02  0.90147364940E+02  0.11147658900E+03  0.00000000000E+00 0. -1.
         22    1    3    3    0    0 -0.58901902896E+01 -0.37681419732E+02  0.46800630504E+03  0.46955775501E+03  0.00000000000E+00 0. -1.
</event>
<event>
 7    1  0.6146596E-006  0.3472619E+02  0.7818608E-02  0.1552272E+00
          2   -1    0    0  502    0  0.00000000000E+00  0.00000000000E+00  0.28274215923E+02  0.28274215923E+02  0.00000000000E+00 0. -1.
          1   -1    0    0  501    0 -0.00000000000E+00 -0.00000000000E+00 -0.15377425731E+04  0.15377425731E+04  0.00000000000E+00 0. -1.
         25    2    1    2    0    0 -0.36776654433E+02  0.11900999476E+02 -0.21831652697E+03  0.25453532717E+03  0.12502787981E+03 0.  0.
          2    1    1    2  501    0  0.77655725084E+01 -0.33567677706E+02 -0.12680771437E+04  0.12685451255E+04  0.00000000000E+00 0. -1.
          1    1    1    2  502    0  0.29011081925E+02  0.21666678230E+02 -0.23074686499E+02  0.42936336325E+02  0.00000000000E+00 0. -1.
         22    1    3    3    0    0 -0.56245411239E+02 -0.30240496643E+02 -0.18932445707E+03  0.19980436424E+03  0.00000000000E+00 0. -1.
         22    1    3    3    0    0  0.19468756805E+02  0.42141496119E+02 -0.28992069899E+02  0.54730962934E+02  0.00000000000E+00 0. -1.
</event>
<event>
 7    1  0.6146596E-006  0.1518403E+03  0.7818608E-02  0.1355197E+00
          2   -1    0    0  502    0  0.00000000000E+00  0.00000000000E+00  0.21863595498E+04  0.21863595498E+04  0.00000000000E+00 0. -1.
          1   -1    0    0  501    0 -0.00000000000E+00 -0.00000000000E+00 -0.99424938074E+02  0.99424938074E+02  0.00000000000E+00 0. -1.
         25    2    1    2    0    0  0.10967613285E+03  0.85267719320E+02  0.11052000705E+04  0.11208889035E+04  0.12500120042E+03 0.  0.
          2    1    1    2  501    0 -0.13754334007E+03 -0.66440316685E+02 -0.27411066566E+02  0.15518973113E+03  0.00000000000E+00 0. -1.
          1    1    1    2  502    0  0.27867207220E+02 -0.18827402634E+02  0.10091456078E+04  0.10097058532E+04  0.00000000000E+00 0. -1.
         22    1    3    3    0    0  0.40043927401E+01 -0.29765956997E+02  0.14649608402E+03  0.14954313756E+03  0.00000000000E+00 0. -1.
         22    1    3    3    0    0  0.10567174011E+03  0.11503367632E+03  0.95870398647E+03  0.97134576595E+03  0.00000000000E+00 0. -1.
</event>
<event>
 7    1  0.6146596E-006  0.9509417E+02  0.7818608E-02  0.1471141E+00
          2   -1    0    0  502    0  0.00000000000E+00  0.00000000000E+00  0.10018839453E+04  0.10018839453E+04  0.00000000000E+00 0. -1.
          1   -1    0    0  501    0 -0.00000000000E+00 -0.00000000000E+00 -0.76504113926E+02  0.76504113926E+02  0.00000000000E+00 0. -1.
         25    2    1    2    0    0 -0.77422154930E+02  0.34841237564E+02  0.27639772748E+03  0.31500690579E+03  0.12500218011E+03 0.  0.
          2    1    1    2  501    0 -0.17269954456E+02 -0.13281623664E+02 -0.51646617207E+02  0.56053777062E+02  0.00000000000E+00 0. -1.
          1    1    1    2  502    0  0.94692109386E+02 -0.21559613899E+02  0.70062872110E+03  0.70732737637E+03  0.00000000000E+00 0. -1.
         22    1    3    3    0    0 -0.24159518182E+02 -0.24226900364E+02  0.20590454441E+03  0.20872782859E+03  0.00000000000E+00 0.  1.
         22    1    3    3    0    0 -0.53262636748E+02  0.59068137928E+02  0.70493183071E+02  0.10627907720E+03  0.00000000000E+00 0.  1.
</event>
<event>
 7    1  0.6146596E-006  0.4866295E+02  0.7818608E-02  0.1573766E+00
          2   -1    0    0  502    0  0.00000000000E+00  0.00000000000E+00  0.18826041105E+03  0.18826041105E+03  0.00000000000E+00 0. -1.
          1   -1    0    0  501    0 -0.00000000000E+00 -0.00000000000E+00 -0.66845203676E+03  0.66845203676E+03  0.00000000000E+00 0. -1.
         25    2    1    2    0    0 -0.32922394489E+02 -0.47424517025E+02 -0.12050913186E+03  0.18297652312E+03  0.12499995311E+03 0.  0.
          2    1    1    2  501    0 -0.72563687671E+01  0.20203197933E+02 -0.51272935233E+03  0.51317853894E+03  0.00000000000E+00 0. -1.
          1    1    1    2  502    0  0.40178763256E+02  0.27221319091E+02  0.15304685848E+03  0.16055738575E+03  0.00000000000E+00 0. -1.
         22    1    3    3    0    0  0.37254329454E+00 -0.50160361831E+02  0.74647091334E+01  0.50714125941E+02  0.00000000000E+00 0. -1.
         22    1    3    3    0    0 -0.33294937784E+02  0.27358448064E+01 -0.12797384099E+03  0.13226239718E+03  0.00000000000E+00 0. -1.
</event>
<event>
 7    1  0.6146596E-006  0.1211248E+03  0.7818608E-02  0.1423723E+00
          2   -1    0    0  502    0  0.00000000000E+00  0.00000000000E+00  0.13310897949E+04  0.13310897949E+04  0.00000000000E+00 0. -1.
          1   -1    0    0  501    0 -0.00000000000E+00 -0.00000000000E+00 -0.43173272856E+02  0.43173272856E+02  0.00000000000E+00 0. -1.
         25    2    1    2    0    0  0.11753581853E+03 -0.23287690699E+02  0.94976896732E+03  0.96542384293E+03  0.12500048016E+03 0.  0.
          2    1    1    2  501    0 -0.12150895376E+03 -0.67472213812E+00  0.71292802969E+02  0.14088131476E+03  0.00000000000E+00 0. -1.
          1    1    1    2  502    0  0.39731352238E+01  0.23962412837E+02  0.26685475178E+03  0.26795791009E+03  0.00000000000E+00 0. -1.
         22    1    3    3    0    0 -0.19807624578E+02  0.15853538616E+02  0.24642133128E+03  0.24772393746E+03  0.00000000000E+00 0.  1.
         22    1    3    3    0    0  0.13734344311E+03 -0.39141229315E+02  0.70334763604E+03  0.71769990547E+03  0.00000000000E+00 0.  1.
</event>
<event>
 7    1  0.6146596E-006  0.6203096E+02  0.7818608E-02  0.1393898E+00
          2   -1    0    0  502    0  0.00000000000E+00  0.00000000000E+00  0.53834201616E+03  0.53834201616E+03  0.00000000000E+00 0. -1.
          1   -1    0    0  501    0 -0.00000000000E+00 -0.00000000000E+00 -0.91731166360E+02  0.91731166360E+02  0.00000000000E+00 0. -1.
         25    2    1    2    0    0 -0.18584196831E+02  0.18782509892E+02  0.14252112573E+03  0.19140666969E+03  0.12500434741E+03 0.  0.
          2    1    1    2  501    0 -0.29749235783E+02 -0.57663350280E+02 -0.48281149786E+02  0.80877366549E+02  0.00000000000E+00 0. -1.
          1    1    1    2  502    0  0.48333432614E+02  0.38880840388E+02  0.35237087386E+03  0.35778914629E+03  0.00000000000E+00 0. -1.
         22    1    3    3    0    0 -0.27666219275E+02 -0.23537135964E+02  0.14358710719E+03  0.14811034336E+03  0.00000000000E+00 0.  1.
         22    1    3    3    0    0  0.90820224442E+01  0.42319645856E+02 -0.10659814600E+01  0.43296326328E+02  0.00000000000E+00 0.  1.
</event>
<event>
 7    1  0.6146596E-006  0.7976319E+02  0.7818608E-02  0.1461369E+00
          2   -1    0    0  502    0  0.00000000000E+00  0.00000000000E+00  0.14671983869E+04  0.14671983869E+04  0.00000000000E+00 0. -1.
          1   -1    0    0  501    0 -0.00000000000E+00 -0.00000000000E+00 -0.53676668942E+03  0.53676668942E+03  0.00000000000E+00 0. -1.
         25    2    1    2    0    0 -0.19975613398E+02 -0.49870808667E+02  0.17948327120E+03  0.22522055439E+03  0.12499572308E+03 0.  0.
          2    1    1    2  501    0 -0.52625158098E+01 -0.27366233854E+02 -0.51221388877E+03  0.51297141507E+03  0.00000000000E+00 0. -1.
          1    1    1    2  502    0  0.25238129208E+02  0.77237042522E+02  0.12631623150E+04  0.12657731068E+04  0.00000000000E+00 0. -1.
         22    1    3    3    0    0  0.33263889552E+02 -0.44019209292E+02  0.15827195589E+03  0.16761321296E+03  0.00000000000E+00 0. -1.
         22    1    3    3    0    0 -0.53239502950E+02 -0.58515993753E+01  0.21211315310E+02  0.57607341431E+02  0.00000000000E+00 0. -1.
</event>
<event>
 7    1  0.6146596E-006  0.9193948E+02  0.7818608E-02  0.1361568E+00
          2   -1    0    0  502    0  0.00000000000E+00  0.00000000000E+00  0.85697566435E+03  0.85697566435E+03  0.00000000000E+00 0. -1.
          1   -1    0    0  501    0 -0.00000000000E+00 -0.00000000000E+00 -0.75448300519E+03  0.75448300519E+03  0.00000000000E+00 0. -1.
         25    2    1    2    0    0 -0.40933273583E+02  0.30469905787E+02 -0.75425342742E+02  0.15465330584E+03  0.12499885853E+03 0.  0.
          2    1    1    2  501    0 -0.82457950247E+00  0.52633756685E+02 -0.63570659901E+03  0.63788233421E+03  0.00000000000E+00 0. -1.
          1    1    1    2  502    0  0.41757853086E+02 -0.83103662471E+02  0.81362460091E+03  0.81892302949E+03  0.00000000000E+00 0. -1.
         22    1    3    3    0    0 -0.39848690496E+02 -0.88862457682E+01 -0.10015706564E+03  0.10815877817E+03  0.00000000000E+00 0.  1.
         22    1    3    3    0    0 -0.10845830875E+01  0.39356151555E+02  0.24731722897E+02  0.46494527669E+02  0.00000000000E+00 0.  1.
</event>
<event>
 7    1  0.6146596E-006  0.1216621E+03  0.7818608E-02  0.1354240E+00
          2   -1    0    0  502    0  0.00000000000E+00  0.00000000000E+00  0.16804187416E+04  0.16804187416E+04  0.00000000000E+00 0. -1.
          1   -1    0    0  501    0 -0.00000000000E+00 -0.00000000000E+00 -0.21869361916E+04  0.21869361916E+04  0.00000000000E+00 0. -1.
         25    2    1    2    0    0  0.12975809712E+03  0.60819156488E+01  0.27257401595E+03  0.32679980290E+03  0.12500945379E+03 0.  0.
          2    1    1    2  501    0 -0.11304406665E+03 -0.44955988527E+02 -0.21577853310E+04  0.21612120527E+04  0.00000000000E+00 0. -1.
          1    1    1    2  502    0 -0.16714030462E+02  0.38874072878E+02  0.13786938651E+04  0.13793430777E+04  0.00000000000E+00 0. -1.
         22    1    3    3    0    0  0.13282696081E+03  0.41662828876E+02  0.17981411000E+03  0.22740252194E+03  0.00000000000E+00 0.  1.
         22    1    3    3    0    0 -0.30688636923E+01 -0.35580913228E+02  0.92759905949E+02  0.99397280960E+02  0.00000000000E+00 0.  1.
</event>
<event>
 7    1  0.6146596E-006  0.3266676E+02  0.7818608E-02  0.1610852E+00
          2   -1    0    0  502    0  0.00000000000E+00  0.00000000000E+00  0.77013758309E+03  0.77013758309E+03  0.00000000000E+00 0. -1.
          1   -1    0    0  501    0 -0.00000000000E+00 -0.00000000000E+00 -0.19653472580E+03  0.19653472580E+03  0.00000000000E+00 0. -1.
         25    2    1    2    0    0  0.35135076385E+02  0.37318425840E+02  0.19683589406E+03  0.23874018024E+03  0.12500146389E+03 0.  0.
          2    1    1    2  501    0 -0.24622849349E+02 -0.67289313414E+01 -0.17417802116E+03  0.17603847955E+03  0.00000000000E+00 0. -1.
          1    1    1    2  502    0 -0.10512227035E+02 -0.30589494499E+02  0.55094498439E+03  0.55189364910E+03  0.00000000000E+00 0. -1.
         22    1    3    3    0    0  0.26800717614E+02  0.80207596347E+02  0.16243858815E+03  0.18313337188E+03  0.00000000000E+00 0. -1.
         22    1    3    3    0    0  0.83343587710E+01 -0.42889170507E+02  0.34397305908E+02  0.55606808366E+02  0.00000000000E+00 0. -1.
</event>
<event>
 7    1  0.6146596E-006  0.5269846E+02  0.7818608E-02  0.1463510E+00
          2   -1    0    0  502    0  0.00000000000E+00  0.00000000000E+00  0.42218299261E+03  0.42218299261E+03  0.00000000000E+00 0. -1.
          1   -1    0    0  501    0 -0.00000000000E+00 -0.00000000000E+00 -0.57460748606E+03  0.57460748606E+03  0.00000000000E+00 0. -1.
         25    2    1    2    0    0 -0.76281921163E+02  0.17187847148E+02 -0.94607077916E+02  0.17516290617E+03  0.12496875978E+03 0.  0.
          2    1    1    2  501    0  0.38698360485E+02 -0.34859927508E+02 -0.43704249976E+03  0.44013512045E+03  0.00000000000E+00 0. -1.
          1    1    1    2  502    0  0.37583560679E+02  0.17672080359E+02  0.37922508424E+03  0.38149245205E+03  0.00000000000E+00 0. -1.
         22    1    3    3    0    0 -0.49686894936E+01 -0.14275630804E+02  0.26869654222E+02  0.30829528510E+02  0.00000000000E+00 0.  1.
         22    1    3    3    0    0 -0.71313231670E+02  0.31463477952E+02 -0.12147673214E+03  0.14433337766E+03  0.00000000000E+00 0.  1.
</event>
<event>
 7    1  0.6146596E-006  0.7093451E+02  0.7818608E-02  0.1412449E+00
          2   -1    0    0  502    0  0.00000000000E+00  0.00000000000E+00  0.58408564609E+03  0.58408564609E+03  0.00000000000E+00 0. -1.
          1   -1    0    0  501    0 -0.00000000000E+00 -0.00000000000E+00 -0.13719441226E+04  0.13719441226E+04  0.00000000000E+00 0. -1.
         25    2    1    2    0    0 -0.43338408746E+02  0.10027995707E+03  0.57304398603E+02  0.17562285605E+03  0.12500122402E+03 0.  0.
          2    1    1    2  501    0  0.10769599575E+01 -0.45230616172E+02 -0.13098171855E+04  0.13105983473E+04  0.00000000000E+00 0. -1.
          1    1    1    2  502    0  0.42261448788E+02 -0.55049340897E+02  0.46465431035E+03  0.46980856539E+03  0.00000000000E+00 0. -1.
         22    1    3    3    0    0 -0.57921327235E+02  0.11993317418E+03  0.67254706117E+02  0.14920469802E+03  0.00000000000E+00 0. -1.
         22    1    3    3    0    0  0.14582918490E+02 -0.19653217106E+02 -0.99503075141E+01  0.26418158034E+02  0.00000000000E+00 0. -1.
</event>
<event>
 7    1  0.6146596E-006  0.3949509E+03  0.7818608E-02  0.1280933E+00
          2   -1    0    0  502    0  0.00000000000E+00  0.00000000000E+00  0.10862881150E+04  0.10862881150E+04  0.00000000000E+00 0. -1.
          1   -1    0    0  501    0 -0.00000000000E+00 -0.00000000000E+00 -0.16188145814E+04  0.16188145814E+04  0.00000000000E+00 0. -1.
         25    2    1    2    0    0  0.90781296818E+02  0.37355837931E+03  0.29126618356E+03  0.49824506669E+03  0.12500020076E+03 0.  0.
          2    1    1    2  501    0 -0.11546684695E+03 -0.37845624560E+03 -0.14892535030E+04  0.15409210618E+04  0.00000000000E+00 0. -1.
          1    1    1    2  502    0  0.24685550134E+02  0.48978662901E+01  0.66546085304E+03  0.66593656785E+03  0.00000000000E+00 0. -1.
         22    1    3    3    0    0  0.10079180519E+03  0.37663061414E+03  0.26911352449E+03  0.47374222586E+03  0.00000000000E+00 0.  1.
         22    1    3    3    0    0 -0.10010508369E+02 -0.30722348326E+01  0.22152659069E+02  0.24502840825E+02  0.00000000000E+00 0.  1.
</event>
<event>
 7    1  0.6146596E-006  0.6226636E+02  0.7818608E-02  0.1461393E+00
          2   -1    0    0  502    0  0.00000000000E+00  0.00000000000E+00  0.11696825148E+03  0.11696825148E+03  0.00000000000E+00 0. -1.
          1   -1    0    0  501    0 -0.00000000000E+00 -0.00000000000E+00 -0.25226595174E+04  0.25226595174E+04  0.00000000000E+00 0. -1.
         25    2    1    2    0    0 -0.27474651192E+02  0.87304422865E+01 -0.11043273322E+03  0.16926764448E+03  0.12500027928E+03 0.  0.
          2    1    1    2  501    0  0.62684205077E+02 -0.28814106401E+01 -0.23787406230E+04  0.23795681465E+04  0.00000000000E+00 0. -1.
          1    1    1    2  502    0 -0.35209553885E+02 -0.58490316464E+01  0.83482090316E+02  0.90791977947E+02  0.00000000000E+00 0. -1.
         22    1    3    3    0    0 -0.69786406564E+02 -0.24316517169E+02 -0.72540121846E+02  0.10355435687E+03  0.00000000000E+00 0.  1.
         22    1    3    3    0    0  0.42311755372E+02  0.33046959455E+02 -0.37892611378E+02  0.65713287614E+02  0.00000000000E+00 0.  1.
</event>
<event>
 7    1  0.6146596E-006  0.3526916E+02  0.7818608E-02  0.1549219E+00
          2   -1    0    0  502    0  0.00000000000E+00  0.00000000000E+00  0.11850077777E+03  0.11850077777E+03  0.00000000000E+00 0. -1.
          1   -1    0    0  501    0 -0.00000000000E+00 -0.00000000000E+00 -0.19289156123E+03  0.19289156123E+03  0.00000000000E+00 0. -1.
         25    2    1    2    0    0  0.12690957362E+02  0.92910182510E+01  0.47799350469E+02  0.13477240000E+03  0.12502575126E+03 0.  0.
          2    1    1    2  501    0 -0.37419591241E+01  0.35070089920E+02 -0.12634453319E+03  0.13117490054E+03  0.00000000000E+00 0. -1.
          1    1    1    2  502    0 -0.89489982383E+01 -0.44361108170E+02  0.41543992632E+01  0.45445038462E+02  0.00000000000E+00 0. -1.
         22    1    3    3    0    0  0.17152655251E+02  0.66061010264E+02  0.33649290911E+02  0.76095633502E+02  0.00000000000E+00 0.  1.
         22    1    3    3    0    0 -0.44616978886E+01 -0.56769992013E+02  0.14150059559E+02  0.58676766499E+02  0.00000000000E+00 0.  1.
</event>
<event>
 7    1  0.6146596E-006  0.4374902E+02  0.7818608E-02  0.1512423E+00
          2   -1    0    0  502    0  0.00000000000E+00  0.00000000000E+00  0.11836310381E+04  0.11836310381E+04  0.00000000000E+00 0. -1.
          1   -1    0    0  501    0 -0.00000000000E+00 -0.00000000000E+00 -0.66403286399E+02  0.66403286399E+02  0.00000000000E+00 0. -1.
         25    2    1    2    0    0  0.93060620415E+01  0.75464866040E+01  0.34747194154E+03  0.36946907340E+03  0.12500837487E+03 0.  0.
          2    1    1    2  501    0  0.35524781539E+02  0.11532348321E+01 -0.49001695215E+02  0.60535164887E+02  0.00000000000E+00 0. -1.
          1    1    1    2  502    0 -0.44830843581E+02 -0.86997214361E+01  0.81875750542E+03  0.82003008626E+03  0.00000000000E+00 0. -1.
         22    1    3    3    0    0  0.62198952871E+02  0.20557413177E+02  0.13397019675E+03  0.14912857067E+03  0.00000000000E+00 0.  1.
         22    1    3    3    0    0 -0.52892890829E+02 -0.13010926573E+02  0.21350174480E+03  0.22034050273E+03  0.00000000000E+00 0.  1.
</event>
<event>
 7    1  0.6146596E-006  0.8139748E+02  0.7818608E-02  0.1471254E+00
          2   -1    0    0  502    0  0.00000000000E+00  0.00000000000E+00  0.32507659787E+03  0.32507659787E+03  0.00000000000E+00 0. -1.
          1   -1    0    0  501    0 -0.00000000000E+00 -0.00000000000E+00 -0.11078153741E+03  0.11078153741E+03  0.00000000000E+00 0. -1.
         25    2    1    2    0    0  0.73153243796E+02  0.67288884962E+02  0.82391243541E+02  0.17969742799E+03  0.12499462987E+03 0.  0.
          2    1    1    2  501    0 -0.48423352028E+02 -0.61354211900E+02 -0.36204894734E+02  0.86139159169E+02  0.00000000000E+00 0. -1.
          1    1    1    2  502    0 -0.24729891768E+02 -0.59346730613E+01  0.16810871165E+03  0.17002154812E+03  0.00000000000E+00 0. -1.
         22    1    3    3    0    0  0.91441233009E+02  0.20258063060E+01  0.53994455957E+02  0.10621207210E+03  0.00000000000E+00 0. -1.
         22    1    3    3    0    0 -0.18287989213E+02  0.65263078656E+02  0.28396787585E+02  0.73485355890E+02  0.00000000000E+00 0. -1.
</event>
<event>
 7    1  0.6146596E-006  0.3009054E+03  0.7818608E-02  0.1182962E+00
          2   -1    0    0  502    0  0.00000000000E+00  0.00000000000E+00  0.24553898958E+04  0.24553898958E+04  0.00000000000E+00 0. -1.
          1   -1    0    0  501    0 -0.00000000000E+00 -0.00000000000E+00 -0.58360576336E+03  0.58360576336E+03  0.00000000000E+00 0. -1.
         25    2    1    2    0    0 -0.26158899916E+03 -0.28379906298E+03  0.58759623586E+03  0.71404979387E+03  0.12500823610E+03 0.  0.
          2    1    1    2  501    0  0.20332555460E+03  0.21431088323E+03 -0.47719202928E+03  0.56123316779E+03  0.00000000000E+00 0. -1.
          1    1    1    2  502    0  0.58263444569E+02  0.69488179755E+02  0.17613799259E+04  0.17637126975E+04  0.00000000000E+00 0. -1.
         22    1    3    3    0    0  0.91439260059E+01 -0.40031608752E+02  0.68714722306E+02  0.80049073347E+02  0.00000000000E+00 0. -1.
         22    1    3    3    0    0 -0.27073292517E+03 -0.24376745423E+03  0.51888151355E+03  0.63400072052E+03  0.00000000000E+00 0. -1.
</event>
<event>
 7    1  0.6146596E-006  0.3338406E+02  0.7818608E-02  0.1575662E+00
          2   -1    0    0  502    0  0.00000000000E+00  0.00000000000E+00  0.59291937130E+03  0.59291937130E+03  0.00000000000E+00 0. -1.
          1   -1    0    0  501    0 -0.00000000000E+00 -0.00000000000E+00 -0.51662428986E+03  0.51662428986E+03  0.00000000000E+00 0. -1.
         25    2    1    2    0    0  0.16158787772E+02  0.24711552170E+02  0.66221369358E+02  0.14451541140E+03  0.12501066810E+03 0.  0.
          2    1    1    2  501    0  0.17478185207E+02 -0.25511893568E+02 -0.47639483738E+03  0.47739751231E+03  0.00000000000E+00 0. -1.
          1    1    1    2  502    0 -0.33636972979E+02  0.80034139805E+00  0.48646854946E+03  0.48763073746E+03  0.00000000000E+00 0. -1.
         22    1    3    3    0    0 -0.40542560199E+02 -0.27224946192E+01  0.70509713181E+02  0.81380162308E+02  0.00000000000E+00 0. -1.
         22    1    3    3    0    0  0.56701347971E+02  0.27434046790E+02 -0.42883438228E+01  0.63135249091E+02  0.00000000000E+00 0. -1.
</event>
<event>
 7    1  0.6146596E-006  0.4158634E+02  0.7818608E-02  0.1538831E+00
          2   -1    0    0  502    0  0.00000000000E+00  0.00000000000E+00  0.78516229694E+02  0.78516229694E+02  0.00000000000E+00 0. -1.
          1   -1    0    0  501    0 -0.00000000000E+00 -0.00000000000E+00 -0.16921531474E+04  0.16921531474E+04  0.00000000000E+00 0. -1.
         25    2    1    2    0    0  0.15715486140E+02  0.46155386199E+01 -0.28657924584E+03  0.31308388529E+03  0.12500230150E+03 0.  0.
          2    1    1    2  501    0  0.23143885068E+02 -0.21192503030E+02 -0.13852881859E+04  0.13856435760E+04  0.00000000000E+00 0. -1.
          1    1    1    2  502    0 -0.38859371209E+02  0.16576964410E+02  0.58230514077E+02  0.71941915803E+02  0.00000000000E+00 0. -1.
         22    1    3    3    0    0 -0.39618354816E+02  0.41605314600E+02 -0.10499061083E+03  0.11968142966E+03  0.00000000000E+00 0. -1.
         22    1    3    3    0    0  0.55333840956E+02 -0.36989775980E+02 -0.18158863500E+03  0.19340245563E+03  0.00000000000E+00 0. -1.
</event>
<event>
 7    1  0.6146596E-006  0.7466734E+02  0.7818608E-02  0.1434038E+00
          2   -1    0    0  502    0  0.00000000000E+00  0.00000000000E+00  0.89711510359E+03  0.89711510359E+03  0.00000000000E+00 0. -1.
          1   -1    0    0  501    0 -0.00000000000E+00 -0.00000000000E+00 -0.11199850854E+04  0.11199850854E+04  0.00000000000E+00 0. -1.
         25    2    1    2    0    0  0.23329187584E+02  0.31092016039E+02  0.12041058432E+03  0.17786181471E+03  0.12500060744E+03 0.  0.
          2    1    1    2  501    0 -0.50224893609E+02 -0.55670036096E+02 -0.10895266073E+04  0.10921034387E+04  0.00000000000E+00 0. -1.
          1    1    1    2  502    0  0.26895706025E+02  0.24578020057E+02  0.74624604113E+03  0.74713493559E+03  0.00000000000E+00 0. -1.
         22    1    3    3    0    0 -0.34505311195E+02  0.28175258259E+02  0.33104434248E+00  0.44548527125E+02  0.00000000000E+00 0. -1.
         22    1    3    3    0    0  0.57834498779E+02  0.29167577793E+01  0.12007953998E+03  0.13331328758E+03  0.00000000000E+00 0. -1.
</event>
<event>
 7    1  0.6146596E-006  0.9080162E+02  0.7818608E-02  0.1477632E+00
          2   -1    0    0  502    0  0.00000000000E+00  0.00000000000E+00  0.19184686210E+04  0.19184686210E+04  0.00000000000E+00 0. -1.
          1   -1    0    0  501    0 -0.00000000000E+00 -0.00000000000E+00 -0.12189945531E+03  0.12189945531E+03  0.00000000000E+00 0. -1.
         25    2    1    2    0    0  0.96171691076E+02  0.34458279673E+02  0.16279220818E+03  0.22926222527E+03  0.12499399062E+03 0.  0.
          2    1    1    2  501    0 -0.67629207743E+01 -0.20709858688E+02 -0.86119338725E+02  0.88832290563E+02  0.00000000000E+00 0. -1.
          1    1    1    2  502    0 -0.89408770302E+02 -0.13748420985E+02  0.17198962963E+04  0.17222735605E+04  0.00000000000E+00 0. -1.
         22    1    3    3    0    0 -0.12427965564E+02 -0.76963964090E+01  0.91551836139E+02  0.92711528658E+02  0.00000000000E+00 0.  1.
         22    1    3    3    0    0  0.10859965664E+03  0.42154676082E+02  0.71240372039E+02  0.13655069661E+03  0.00000000000E+00 0.  1.
</event>
<event>
 7    1  0.6146596E-006  0.1015452E+03  0.7818608E-02  0.1300033E+00
          2   -1    0    0  502    0  0.00000000000E+00  0.00000000000E+00  0.14503389913E+04  0.14503389913E+04  0.00000000000E+00 0. -1.
          1   -1    0    0  501    0 -0.00000000000E+00 -0.00000000000E+00 -0.18991649534E+03  0.18991649534E+03  0.00000000000E+00 0. -1.
         25    2    1    2    0    0  0.18578726367E+02 -0.32011488002E+02  0.44670017992E+03  0.46533407043E+03  0.12499936771E+03 0.  0.
          2    1    1    2  501    0  0.25841482154E+02  0.10077388916E+03 -0.16376304326E+03  0.19401415741E+03  0.00000000000E+00 0. -1.
          1    1    1    2  502    0 -0.44420208522E+02 -0.68762401162E+02  0.97748535931E+03  0.98090725882E+03  0.00000000000E+00 0. -1.
         22    1    3    3    0    0  0.20202697800E+02 -0.28500325193E+02  0.45491475833E+03  0.45625415601E+03  0.00000000000E+00 0.  1.
         22    1    3    3    0    0 -0.16239714323E+01 -0.35111628087E+01 -0.82145784076E+01  0.90799144212E+01  0.00000000000E+00 0.  1.
</event>
<event>
 7    1  0.6146596E-006  0.3629364E+02  0.7818608E-02  0.1539437E+00
          2   -1    0    0  502    0  0.00000000000E+00  0.00000000000E+00  0.36198437522E+03  0.36198437522E+03  0.00000000000E+00 0. -1.
          1   -1    0    0  501    0 -0.00000000000E+00 -0.00000000000E+00 -0.69040893022E+03  0.69040893022E+03  0.00000000000E+00 0. -1.
         25    2    1    2    0    0 -0.45344117876E+02  0.33770838695E+02  0.94256130988E+01  0.13751627458E+03  0.12500130007E+03 0.  0.
          2    1    1    2  501    0  0.92115081469E+01 -0.34610715514E+02 -0.62471677291E+03  0.62574259873E+03  0.00000000000E+00 0. -1.
          1    1    1    2  502    0  0.36132609729E+02  0.83987681890E+00  0.28686660482E+03  0.28913443212E+03  0.00000000000E+00 0. -1.
         22    1    3    3    0    0  0.24970190827E+02  0.55149255056E+02 -0.10332421842E+02  0.61414246753E+02  0.00000000000E+00 0. -1.
         22    1    3    3    0    0 -0.70314308703E+02 -0.21378416361E+02  0.19758034941E+02  0.76102027826E+02  0.00000000000E+00 0. -1.
</event>
<event>
 7    1  0.6146596E-006  0.5106997E+02  0.7818608E-02  0.1506557E+00
          2   -1    0    0  502    0  0.00000000000E+00  0.00000000000E+00  0.15231106041E+04  0.15231106041E+04  0.00000000000E+00 0. -1.
          1   -1    0    0  501    0 -0.00000000000E+00 -0.00000000000E+00 -0.54652364789E+03  0.54652364789E+03  0.00000000000E+00 0. -1.
         25    2    1    2    0    0  0.42624097694E+01  0.51319854313E+02 -0.76559797552E+02  0.15536192343E+03  0.12499611620E+03 0.  0.
          2    1    1    2  501    0 -0.30754938988E+02 -0.76172344838E+01 -0.42953904956E+03  0.43070602925E+03  0.00000000000E+00 0. -1.
          1    1    1    2  502    0  0.26492529218E+02 -0.43702619829E+02  0.14826858033E+04  0.14835662993E+04  0.00000000000E+00 0. -1.
         22    1    3    3    0    0 -0.41163473111E+02 -0.22091592308E+02 -0.14071376450E+02  0.48790097402E+02  0.00000000000E+00 0.  1.
         22    1    3    3    0    0  0.45425882881E+02  0.73411446620E+02 -0.62488421102E+02  0.10657182602E+03  0.00000000000E+00 0.  1.
</event>
<event>
 7    1  0.6146596E-006  0.9781246E+02  0.7818608E-02  0.1439307E+00
          2   -1    0    0  502    0  0.00000000000E+00  0.00000000000E+00  0.40894611163E+03  0.40894611163E+03  0.00000000000E+00 0. -1.
          1   -1    0    0  501    0 -0.00000000000E+00 -0.00000000000E+00 -0.25411924051E+04  0.25411924051E+04  0.00000000000E+00 0. -1.
         25    2    1    2    0    0 -0.86253593984E+02  0.38288814723E+01 -0.21185309618E+03  0.26069433483E+03  0.12500183617E+03 0.  0.
          2    1    1    2  501    0  0.96159273774E+02  0.21002223146E+02 -0.23034017723E+04  0.23055037246E+04  0.00000000000E+00 0. -1.
          1    1    1    2  502    0 -0.99056797901E+01 -0.24831104618E+02  0.38300857501E+03  0.38394045734E+03  0.00000000000E+00 0. -1.
         22    1    3    3    0    0 -0.29010635193E+02  0.59287739128E+02 -0.60020861033E+02  0.89214106084E+02  0.00000000000E+00 0. -1.
         22    1    3    3    0    0 -0.57242958791E+02 -0.55458857655E+02 -0.15183223514E+03  0.17148022875E+03  0.00000000000E+00 0. -1.
</event>
<event>
 7    1  0.6146596E-006  0.7978052E+02  0.7818608E-02  0.1329823E+00
          2   -1    0    0  502    0  0.00000000000E+00  0.00000000000E+00  0.65012437347E+03  0.65012437347E+03  0.00000000000E+00 0. -1.
          1   -1    0    0  501    0 -0.00000000000E+00 -0.00000000000E+00 -0.74616540842E+03  0.74616540842E+03  0.00000000000E+00 0. -1.
         25    2    1    2    0    0  0.45398828474E+02  0.71872111213E+02 -0.50947244826E+02  0.15952204956E+03  0.12500003417E+03 0.  0.
          2    1    1    2  501    0  0.34363274074E+02 -0.73586421528E+02 -0.63566499355E+03  0.64083209975E+03  0.00000000000E+00 0. -1.
          1    1    1    2  502    0 -0.79762102548E+02  0.17143103149E+01  0.59057120343E+03  0.59593563259E+03  0.00000000000E+00 0. -1.
         22    1    3    3    0    0 -0.65125278436E+01  0.36068981791E+02 -0.81564811593E+02  0.89421490462E+02  0.00000000000E+00 0. -1.
         22    1    3    3    0    0  0.51911356318E+02  0.35803129422E+02  0.30617566767E+02  0.70100559098E+02  0.00000000000E+00 0. -1.
</event>
<event>
 7    1  0.6146596E-006  0.8206160E+02  0.7818608E-02  0.1361400E+00
          2   -1    0    0  502    0  0.00000000000E+00  0.00000000000E+00  0.68272582609E+03  0.68272582609E+03  0.00000000000E+00 0. -1.
          1   -1    0    0  501    0 -0.00000000000E+00 -0.00000000000E+00 -0.18388186583E+03  0.18388186583E+03  0.00000000000E+00 0. -1.
         25    2    1    2    0    0  0.14865190080E+02  0.21381298998E+02  0.18964358439E+03  0.22862188545E+03  0.12500057433E+03 0.  0.
          2    1    1    2  501    0 -0.52302426683E+02 -0.67059343776E+02 -0.15138072539E+03  0.17363358962E+03  0.00000000000E+00 0. -1.
          1    1    1    2  502    0  0.37437236604E+02  0.45678044778E+02  0.46058110126E+03  0.46435221686E+03  0.00000000000E+00 0. -1.
         22    1    3    3    0    0 -0.25938442445E+02 -0.21377136277E+02  0.40629736947E+01  0.33856941786E+02  0.00000000000E+00 0. -1.
         22    1    3    3    0    0  0.40803632525E+02  0.42758435274E+02  0.18558061069E+03  0.19476494366E+03  0.00000000000E+00 0. -1.
</event>
<event>
 7    1  0.6146596E-006  0.1279982E+03  0.7818608E-02  0.1337151E+00
          2   -1    0    0  502    0  0.00000000000E+00  0.00000000000E+00  0.30518995418E+03  0.30518995418E+03  0.00000000000E+00 0. -1.
          1   -1    0    0  501    0 -0.00000000000E+00 -0.00000000000E+00 -0.43476604843E+03  0.43476604843E+03  0.00000000000E+00 0. -1.
         25    2    1    2    0    0  0.22502820293E+02 -0.14980088332E+03  0.12995031881E+03  0.23549964985E+03  0.12500527251E+03 0.  0.
          2    1    1    2  501    0  0.17394696795E+02  0.12576569961E+03 -0.36645375753E+03  0.38782462929E+03  0.00000000000E+00 0. -1.
          1    1    1    2  502    0 -0.39897517088E+02  0.24035183708E+02  0.10692734447E+03  0.11663172347E+03  0.00000000000E+00 0. -1.
         22    1    3    3    0    0  0.55066544202E+02 -0.10361221004E+03  0.13487599055E+03  0.17877177402E+03  0.00000000000E+00 0.  1.
         22    1    3    3    0    0 -0.32563723909E+02 -0.46188673281E+02 -0.49256717350E+01  0.56727875832E+02  0.00000000000E+00 0.  1.
</event>
<event>
 7    1  0.6146596E-006  0.1248424E+03  0.7818608E-02  0.1287477E+00
          2   -1    0    0  502    0  0.00000000000E+00  0.00000000000E+00  0.15032729869E+04  0.15032729869E+04  0.00000000000E+00 0. -1.
          1   -1    0    0  501    0 -0.00000000000E+00 -0.00000000000E+00 -0.27407156341E+03  0.27407156341E+03  0.00000000000E+00 0. -1.
         25    2    1    2    0    0 -0.16145391124E+02  0.48777818014E+02  0.79768128369E+03  0.80904881578E+03  0.12499842713E+03 0.  0.
          2    1    1    2  501    0  0.37577204500E+02 -0.12048593650E+03 -0.25139189213E+03  0.28129484642E+03  0.00000000000E+00 0. -1.
          1    1    1    2  502    0 -0.21431813376E+02  0.71708118491E+02  0.68291203194E+03  0.68700088810E+03  0.00000000000E+00 0. -1.
         22    1    3    3    0    0 -0.31324058558E+01  0.79223434896E+02  0.72328227443E+03  0.72761487967E+03  0.00000000000E+00 0. -1.
         22    1    3    3    0    0 -0.13012985268E+02 -0.30445616882E+02  0.74399009252E+02  0.81433936112E+02  0.00000000000E+00 0. -1.
</event>
<event>
 7    1  0.6146596E-006  0.1300534E+03  0.7818608E-02  0.1322059E+00
          2   -1    0    0  502    0  0.00000000000E+00  0.00000000000E+00  0.27206826288E+04  0.27206826288E+04  0.00000000000E+00 0. -1.
          1   -1    0    0  501    0 -0.00000000000E+00 -0.00000000000E+00 -0.39589680370E+02  0.39589680370E+02  0.00000000000E+00 0. -1.
         25    2    1    2    0    0 -0.46193902590E+02  0.77309817180E+02  0.90642628034E+03  0.91942563821E+03  0.12499687213E+03 0.  0.
          2    1    1    2  501    0  0.43242080862E+02 -0.12958145741E+03  0.11008569600E+03  0.17544256076E+03  0.00000000000E+00 0. -1.
          1    1    1    2  502    0  0.29518217282E+01  0.52271640232E+02  0.16645809721E+04  0.16654041102E+04  0.00000000000E+00 0. -1.
         22    1    3    3    0    0 -0.89113232103E+02  0.57451805293E+02  0.58348367595E+03  0.59303885047E+03  0.00000000000E+00 0.  1.
         22    1    3    3    0    0  0.42919329512E+02  0.19858011887E+02  0.32294260439E+03  0.32638678774E+03  0.00000000000E+00 0.  1.
</event>
<event>
 7    1  0.6146596E-006  0.7162193E+02  0.7818608E-02  0.1518081E+00
          2   -1    0    0  502    0  0.00000000000E+00  0.00000000000E+00  0.15034869323E+03  0.15034869323E+03  0.00000000000E+00 0. -1.
          1   -1    0    0  501    0 -0.00000000000E+00 -0.00000000000E+00 -0.41898269980E+03  0.41898269980E+03  0.00000000000E+00 0. -1.
         25    2    1    2    0    0  0.42130604774E+02  0.48626400398E+02  0.22167530984E+02  0.14232786863E+03  0.12500523223E+03 0.  0.
          2    1    1    2  501    0  0.19763242562E+02 -0.67987816377E+01 -0.33799644940E+03  0.33864200714E+03  0.00000000000E+00 0. -1.
          1    1    1    2  502    0 -0.61893847336E+02 -0.41827618760E+02  0.47194911847E+02  0.88361517266E+02  0.00000000000E+00 0. -1.
         22    1    3    3    0    0  0.88949136271E+01  0.25931073659E+02 -0.51523781797E+02  0.58363003352E+02  0.00000000000E+00 0. -1.
         22    1    3    3    0    0  0.33235691147E+02  0.22695326739E+02  0.73691312782E+02  0.83964865279E+02  0.00000000000E+00 0. -1.
</event>
<event>
 7    1  0.6146596E-006  0.7955079E+02  0.7818608E-02  0.1418660E+00
          2   -1    0    0  502    0  0.00000000000E+00  0.00000000000E+00  0.17880194017E+04  0.17880194017E+04  0.00000000000E+00 0. -1.
          1   -1    0    0  501    0 -0.00000000000E+00 -0.00000000000E+00 -0.34346249392E+03  0.34346249392E+03  0.00000000000E+00 0. -1.
         25    2    1    2    0    0  0.49944891176E+02 -0.98901637682E+02  0.36679536244E+03  0.40303794628E+03  0.12499888857E+03 0.  0.
          2    1    1    2  501    0 -0.18307366551E+02  0.77051494799E+02 -0.32025333848E+03  0.32990042942E+03  0.00000000000E+00 0. -1.
          1    1    1    2  502    0 -0.31637524625E+02  0.21850142883E+02  0.13980148838E+04  0.13985435199E+04  0.00000000000E+00 0. -1.
         22    1    3    3    0    0 -0.18292418910E+02  0.69450266615E+01  0.53548734573E+01  0.20285971869E+02  0.00000000000E+00 0.  1.
         22    1    3    3    0    0  0.68237310086E+02 -0.10584666434E+03  0.36144048898E+03  0.38275197441E+03  0.00000000000E+00 0.  1.
</event>
<event>
 7    1  0.6146596E-006  0.7074350E+02  0.7818608E-02  0.1435111E+00
          2   -1    0    0  502    0  0.00000000000E+00  0.00000000000E+00  0.46434229891E+03  0.46434229891E+03  0.00000000000E+00 0. -1.
          1   -1    0    0  501    0 -0.00000000000E+00 -0.00000000000E+00 -0.30547316124E+03  0.30547316124E+03  0.00000000000E+00 0. -1.
         25    2    1    2    0    0 -0.57731135971E+01 -0.49080747646E+02 -0.12505834213E+03  0.18362101705E+03  0.12503935516E+03 0.  0.
          2    1    1    2  501    0 -0.37368991419E+02 -0.76582113289E+01 -0.14574282214E+03  0.15065211557E+03  0.00000000000E+00 0. -1.
          1    1    1    2  502    0  0.43142105016E+02  0.56738958975E+02  0.42967030194E+03  0.43554232752E+03  0.00000000000E+00 0. -1.
         22    1    3    3    0    0  0.17346057348E+02 -0.30840378775E+02  0.16493015749E+02  0.39038881093E+02  0.00000000000E+00 0. -1.
         22    1    3    3    0    0 -0.23119170945E+02 -0.18240368871E+02 -0.14155135788E+03  0.14458213596E+03  0.00000000000E+00 0. -1.
</event>
<event>
 7    1  0.6146596E-006  0.7699910E+02  0.7818608E-02  0.1379136E+00
          2   -1    0    0  502    0  0.00000000000E+00  0.00000000000E+00  0.25480821504E+03  0.25480821504E+03  0.00000000000E+00 0. -1.
          1   -1    0    0  501    0 -0.00000000000E+00 -0.00000000000E+00 -0.27489446503E+03  0.27489446503E+03  0.00000000000E+00 0. -1.
         25    2    1    2    0    0 -0.71118095634E+02 -0.80987320447E+02  0.15598069676E+03  0.22709148360E+03  0.12499533816E+03 0.  0.
          2    1    1    2  501    0  0.50507631853E+02  0.20075678193E+02 -0.21876934335E+03  0.22541978467E+03  0.00000000000E+00 0. -1.
          1    1    1    2  502    0  0.20610463781E+02  0.60911642255E+02  0.42702396604E+02  0.77191411797E+02  0.00000000000E+00 0. -1.
         22    1    3    3    0    0 -0.51234446576E+02 -0.37277582221E+02 -0.54748812834E+00  0.63363131200E+02  0.00000000000E+00 0.  1.
         22    1    3    3    0    0 -0.19883649058E+02 -0.43709738227E+02  0.15652818489E+03  0.16372835240E+03  0.00000000000E+00 0.  1.
</event>
<event>
 7    1  0.6146596E-006  0.8565267E+02  0.7818608E-02  0.1398095E+00
          2   -1    0    0  502    0  0.00000000000E+00  0.00000000000E+00  0.13501893891E+03  0.13501893891E+03  0.00000000000E+00 0. -1.
          1   -1    0    0  501    0 -0.00000000000E+00 -0.00000000000E+00 -0.31037687223E+03  0.31037687223E+03  0.00000000000E+00 0. -1.
         25    2    1    2    0    0  0.90439747803E+02 -0.65596333991E+02  0.40472454583E+02  0.17247061701E+03  0.12500346850E+03 0.  0.
          2    1    1    2  501    0 -0.80347602024E+02  0.24886155199E+02 -0.21511661839E+03  0.23097665982E+03  0.00000000000E+00 0. -1.
          1    1    1    2  502    0 -0.10092145780E+02  0.40710178792E+02 -0.71376951297E+00  0.41948534308E+02  0.00000000000E+00 0. -1.
         22    1    3    3    0    0 -0.11171988084E+02 -0.52197579351E+00 -0.30497543884E+02  0.32483626020E+02  0.00000000000E+00 0.  1.
         22    1    3    3    0    0  0.10161173589E+03 -0.65074358198E+02  0.70969998467E+02  0.13998699099E+03  0.00000000000E+00 0.  1.
</event>
<event>
 7    1  0.6146596E-006  0.3848725E+02  0.7818608E-02  0.1566719E+00
          2   -1    0    0  502    0  0.00000000000E+00  0.00000000000E+00  0.59051394454E+02  0.59051394454E+02  0.00000000000E+00 0. -1.
          1   -1    0    0  501    0 -0.00000000000E+00 -0.00000000000E+00 -0.18553969920E+04  0.18553969920E+04  0.00000000000E+00 0. -1.
         25    2    1    2    0    0 -0.44118600003E+01 -0.11540447207E+02 -0.18545521194E+03  0.22398946962E+03  0.12500000174E+03 0.  0.
          2    1    1    2  501    0  0.28528948386E+01 -0.28221554404E+02 -0.16405710841E+04  0.16408162838E+04  0.00000000000E+00 0. -1.
          1    1    1    2  502    0  0.15589651617E+01  0.39762001611E+02  0.29680698546E+02  0.49642632995E+02  0.00000000000E+00 0. -1.
         22    1    3    3    0    0  0.84297549160E+01 -0.67557637960E+02 -0.10392765103E+03  0.12424190864E+03  0.00000000000E+00 0.  1.
         22    1    3    3    0    0 -0.12841614916E+02  0.56017190753E+02 -0.81527560912E+02  0.99747560981E+02  0.00000000000E+00 0.  1.
</event>
<event>
 7    1  0.6146596E-006  0.1900807E+03  0.7818608E-02  0.1200936E+00
          2   -1    0    0  502    0  0.00000000000E+00  0.00000000000E+00  0.35630350065E+03  0.35630350065E+03  0.00000000000E+00 0. -1.
          1   -1    0    0  501    0 -0.00000000000E+00 -0.00000000000E+00 -0.14823797764E+04  0.14823797764E+04  0.00000000000E+00 0. -1.
         25    2    1    2    0    0  0.84414854173E+02 -0.10738748484E+03 -0.25136981574E+03  0.31220099918E+03  0.12499896048E+03 0.  0.
          2    1    1    2  501    0 -0.74989313129E+02 -0.90819872806E+02 -0.11671474623E+04  0.11730749529E+04  0.00000000000E+00 0. -1.
          1    1    1    2  502    0 -0.94255410442E+01  0.19820735764E+03  0.29244100234E+03  0.35340732490E+03  0.00000000000E+00 0. -1.
         22    1    3    3    0    0 -0.10484176021E+02  0.42057091016E+01 -0.10329306638E+03  0.10390891924E+03  0.00000000000E+00 0. -1.
         22    1    3    3    0    0  0.94899030194E+02 -0.11159319394E+03 -0.14807674936E+03  0.20829207994E+03  0.00000000000E+00 0. -1.
</event>
<event>
 7    1  0.6146596E-006  0.5353210E+02  0.7818608E-02  0.1519380E+00
          2   -1    0    0  502    0  0.00000000000E+00  0.00000000000E+00  0.69253306612E+03  0.69253306612E+03  0.00000000000E+00 0. -1.
          1   -1    0    0  501    0 -0.00000000000E+00 -0.00000000000E+00 -0.30839641815E+03  0.30839641815E+03  0.00000000000E+00 0. -1.
         25    2    1    2    0    0  0.47998609761E+02  0.12926895210E+02  0.13574407710E+03  0.19110898692E+03  0.12500087702E+03 0.  0.
          2    1    1    2  501    0 -0.51693449814E+02  0.14546071791E+02 -0.27777750178E+03  0.28292073352E+03  0.00000000000E+00 0. -1.
          1    1    1    2  502    0  0.36948400530E+01 -0.27472967001E+02  0.52617007266E+03  0.52689976382E+03  0.00000000000E+00 0. -1.
         22    1    3    3    0    0 -0.15731882522E+02  0.24676128954E+02 -0.10546877077E+02  0.31106913764E+02  0.00000000000E+00 0. -1.
         22    1    3    3    0    0  0.63730492283E+02 -0.11749233744E+02  0.14629095418E+03  0.16000207316E+03  0.00000000000E+00 0. -1.
</event>
<event>
 7    1  0.6146596E-006  0.4392134E+02  0.7818608E-02  0.1539612E+00
          2   -1    0    0  502    0  0.00000000000E+00  0.00000000000E+00  0.75528639330E+03  0.75528639330E+03  0.00000000000E+00 0. -1.
          1   -1    0    0  501    0 -0.00000000000E+00 -0.00000000000E+00 -0.91307337682E+02  0.91307337682E+02  0.00000000000E+00 0. -1.
         25    2    1    2    0    0  0.67462747811E+02 -0.18029030802E+02  0.13191872575E+03  0.19468961008E+03  0.12500090310E+03 0.  0.
          2    1    1    2  501    0 -0.42736072764E+02  0.18275416932E+01 -0.51866318995E+02  0.67229657667E+02  0.00000000000E+00 0. -1.
          1    1    1    2  502    0 -0.24726675047E+02  0.16201489108E+02  0.58392664886E+03  0.58467446324E+03  0.00000000000E+00 0. -1.
         22    1    3    3    0    0 -0.36369835227E+02  0.18997620386E+01  0.24033188486E+02  0.43634483601E+02  0.00000000000E+00 0. -1.
         22    1    3    3    0    0  0.10383258304E+03 -0.19928792840E+02  0.10788553726E+03  0.15105512648E+03  0.00000000000E+00 0. -1.
</event>
<event>
 7    1  0.6146596E-006  0.7768173E+02  0.7818608E-02  0.1434150E+00
          2   -1    0    0  502    0  0.00000000000E+00  0.00000000000E+00  0.45144949061E+03  0.45144949061E+03  0.00000000000E+00 0. -1.
          1   -1    0    0  501    0 -0.00000000000E+00 -0.00000000000E+00 -0.36910535977E+03  0.36910535977E+03  0.00000000000E+00 0. -1.
         25    2    1    2    0    0 -0.93127612656E+02  0.47957653138E+02  0.63265376849E+02  0.17492989441E+03  0.12500108527E+03 0.  0.
          2    1    1    2  501    0  0.34985539296E+02  0.61262084602E+00 -0.30795203200E+03  0.30993356914E+03  0.00000000000E+00 0. -1.
          1    1    1    2  502    0  0.58142073360E+02 -0.48570273984E+02  0.32703078599E+03  0.33569138683E+03  0.00000000000E+00 0. -1.
         22    1    3    3    0    0 -0.98970209431E+02  0.74190599375E+02  0.21920943290E+02  0.12561797302E+03  0.00000000000E+00 0. -1.
         22    1    3    3    0    0  0.58425967752E+01 -0.26232946237E+02  0.41344433559E+02  0.49311921395E+02  0.00000000000E+00 0. -1.
</event>
<event>
 7    1  0.6146596E-006  0.1709309E+03  0.7818608E-02  0.1264103E+00
          2   -1    0    0  502    0  0.00000000000E+00  0.00000000000E+00  0.48414572486E+03  0.48414572486E+03  0.00000000000E+00 0. -1.
          1   -1    0    0  501    0 -0.00000000000E+00 -0.00000000000E+00 -0.49209628726E+03  0.49209628726E+03  0.00000000000E+00 0. -1.
         25    2    1    2    0    0 -0.13132351709E+03  0.12598728782E+03  0.79716568470E+02  0.23473064421E+03  0.12500032483E+03 0.  0.
          2    1    1    2  501    0 -0.27219125579E+02 -0.62731267586E+02 -0.38912138830E+03  0.39508422844E+03  0.00000000000E+00 0. -1.
          1    1    1    2  502    0  0.15854264267E+03 -0.63256020237E+02  0.30145425743E+03  0.34642713947E+03  0.00000000000E+00 0. -1.
         22    1    3    3    0    0 -0.15277198958E+03  0.12284114500E+03  0.82859429824E+02  0.21282601536E+03  0.00000000000E+00 0. -1.
         22    1    3    3    0    0  0.21448472497E+02  0.31461428283E+01 -0.31428613537E+01  0.21904628841E+02  0.00000000000E+00 0. -1.
</event>
<event>
 7    1  0.6146596E-006  0.9239393E+02  0.7818608E-02  0.1443247E+00
          2   -1    0    0  502    0  0.00000000000E+00  0.00000000000E+00  0.35289885013E+04  0.35289885013E+04  0.00000000000E+00 0. -1.
          1   -1    0    0  501    0 -0.00000000000E+00 -0.00000000000E+00 -0.26297477554E+04  0.26297477554E+04  0.00000000000E+00 0. -1.
         25    2    1    2    0    0 -0.10182880297E+03 -0.63195088533E+02 -0.78341970251E+03  0.80233118142E+03  0.12500468023E+03 0.  0.
          2    1    1    2  501    0  0.23698397114E+02  0.13916277615E+02 -0.18361633674E+04  0.18363690230E+04  0.00000000000E+00 0. -1.
          1    1    1    2  502    0  0.78130405860E+02  0.49278810918E+02  0.35188238159E+04  0.35200360523E+04  0.00000000000E+00 0. -1.
         22    1    3    3    0    0 -0.91682193760E+02 -0.99368637210E+02 -0.63456775688E+03  0.64881121198E+03  0.00000000000E+00 0. -1.
         22    1    3    3    0    0 -0.10146609213E+02  0.36173548677E+02 -0.14885194563E+03  0.15351996945E+03  0.00000000000E+00 0. -1.
</event>
<event>
 7    1  0.6146596E-006  0.1113489E+03  0.7818608E-02  0.1359434E+00
          2   -1    0    0  502    0  0.00000000000E+00  0.00000000000E+00  0.69312731549E+03  0.69312731549E+03  0.00000000000E+00 0. -1.
          1   -1    0    0  501    0 -0.00000000000E+00 -0.00000000000E+00 -0.67210126868E+03  0.67210126868E+03  0.00000000000E+00 0. -1.
         25    2    1    2    0    0  0.12134046344E+03 -0.31817967451E+02 -0.10433494043E+03  0.20554011042E+03  0.12500026431E+03 0.  0.
          2    1    1    2  501    0 -0.90449234748E+02  0.63501344596E+02 -0.51048192573E+03  0.52230765008E+03  0.00000000000E+00 0. -1.
          1    1    1    2  502    0 -0.30891228688E+02 -0.31683377145E+02  0.63584291298E+03  0.63738082367E+03  0.00000000000E+00 0. -1.
         22    1    3    3    0    0  0.14646282137E+03 -0.15846181372E+02 -0.86341246709E+02  0.17075500107E+03  0.00000000000E+00 0.  1.
         22    1    3    3    0    0 -0.25122357933E+02 -0.15971786079E+02 -0.17993693719E+02  0.34785109347E+02  0.00000000000E+00 0.  1.
</event>
<event>
 7    1  0.6146596E-006  0.1162724E+03  0.7818608E-02  0.1315279E+00
          2   -1    0    0  502    0  0.00000000000E+00  0.00000000000E+00  0.16469973329E+04  0.16469973329E+04  0.00000000000E+00 0. -1.
          1   -1    0    0  501    0 -0.00000000000E+00 -0.00000000000E+00 -0.34011138216E+02  0.34011138216E+02  0.00000000000E+00 0. -1.
         25    2    1    2    0    0  0.49909054066E+02  0.95902875495E+02  0.57656978438E+03  0.59978879710E+03  0.12500243859E+03 0.  0.
          2    1    1    2  501    0 -0.56243863136E+02  0.26617828290E+02  0.33196059335E+02  0.70525593076E+02  0.00000000000E+00 0. -1.
          1    1    1    2  502    0  0.63348090705E+01 -0.12252070379E+03  0.10032203509E+04  0.10106940809E+04  0.00000000000E+00 0. -1.
         22    1    3    3    0    0  0.20257708227E+02  0.76544169409E+01  0.71449434143E+01  0.22803838662E+02  0.00000000000E+00 0.  1.
         22    1    3    3    0    0  0.29651345838E+02  0.88248458554E+02  0.56942484097E+03  0.57698495843E+03  0.00000000000E+00 0.  1.
</event>
<event>
 7    1  0.6146596E-006  0.8834038E+02  0.7818608E-02  0.1456821E+00
          2   -1    0    0  502    0  0.00000000000E+00  0.00000000000E+00  0.14324982274E+03  0.14324982274E+03  0.00000000000E+00 0. -1.
          1   -1    0    0  501    0 -0.00000000000E+00 -0.00000000000E+00 -0.24930287743E+04  0.24930287743E+04  0.00000000000E+00 0. -1.
         25    2    1    2    0    0  0.40002416836E+01  0.78553735286E+02 -0.45818373775E+02  0.15463111780E+03  0.12499907182E+03 0.  0.
          2    1    1    2  501    0 -0.29541092704E+02 -0.83461069352E+02 -0.23900632934E+04  0.23917025259E+04  0.00000000000E+00 0. -1.
          1    1    1    2  502    0  0.25540851020E+02  0.49073340658E+01  0.86102715570E+02  0.89944953316E+02  0.00000000000E+00 0. -1.
         22    1    3    3    0    0 -0.11631052033E+02  0.10559686942E+03 -0.93973856923E+01  0.10665032143E+03  0.00000000000E+00 0.  1.
         22    1    3    3    0    0  0.15631293716E+02 -0.27043134136E+02 -0.36420988083E+02  0.47980796367E+02  0.00000000000E+00 0.  1.
</event>
<event>
 7    1  0.6146596E-006  0.5863220E+02  0.7818608E-02  0.1423494E+00
          2   -1    0    0  502    0  0.00000000000E+00  0.00000000000E+00  0.14798385741E+04  0.14798385741E+04  0.00000000000E+00 0. -1.
          1   -1    0    0  501    0 -0.00000000000E+00 -0.00000000000E+00 -0.10707045331E+03  0.10707045331E+03  0.00000000000E+00 0. -1.
         25    2    1    2    0    0 -0.10058034985E+03 -0.17440933971E+02  0.80047524920E+03  0.81658230694E+03  0.12500178585E+03 0.  0.
          2    1    1    2  501    0  0.47547465599E+02  0.16308723853E+02 -0.91510436374E+02  0.10440735570E+03  0.00000000000E+00 0. -1.
          1    1    1    2  502    0  0.53032884249E+02  0.11322101182E+01  0.66380330796E+03  0.66591936477E+03  0.00000000000E+00 0. -1.
         22    1    3    3    0    0 -0.21202981098E+02  0.41272978379E+02  0.45245334058E+03  0.45482639606E+03  0.00000000000E+00 0. -1.
         22    1    3    3    0    0 -0.79377368751E+02 -0.58713912350E+02  0.34802190862E+03  0.36175591087E+03  0.00000000000E+00 0. -1.
</event>
<event>
 7    1  0.6146596E-006  0.1075373E+03  0.7818608E-02  0.1410146E+00
          2   -1    0    0  502    0  0.00000000000E+00  0.00000000000E+00  0.18252799002E+04  0.18252799002E+04  0.00000000000E+00 0. -1.
          1   -1    0    0  501    0 -0.00000000000E+00 -0.00000000000E+00 -0.13096352164E+04  0.13096352164E+04  0.00000000000E+00 0. -1.
         25    2    1    2    0    0  0.31232323066E+02  0.79334423995E+02  0.39340108682E+03  0.42149591600E+03  0.12499993302E+03 0.  0.
          2    1    1    2  501    0 -0.17205428439E+02 -0.10628671005E+03 -0.12931874882E+04  0.12976620404E+04  0.00000000000E+00 0. -1.
          1    1    1    2  502    0 -0.14026894628E+02  0.26952286052E+02  0.14154310852E+04  0.14157571602E+04  0.00000000000E+00 0. -1.
         22    1    3    3    0    0 -0.16380194816E+02  0.10921050468E+02  0.33528416231E+00  0.19689909625E+02  0.00000000000E+00 0. -1.
         22    1    3    3    0    0  0.47612517883E+02  0.68413373527E+02  0.39306580266E+03  0.40180600637E+03  0.00000000000E+00 0. -1.
</event>
<event>
 7    1  0.6146596E-006  0.1460264E+03  0.7818608E-02  0.1249297E+00
          2   -1    0    0  502    0  0.00000000000E+00  0.00000000000E+00  0.16779266382E+03  0.16779266382E+03  0.00000000000E+00 0. -1.
          1   -1    0    0  501    0 -0.00000000000E+00 -0.00000000000E+00 -0.13797799609E+04  0.13797799609E+04  0.00000000000E+00 0. -1.
         25    2    1    2    0    0  0.10013211514E+03  0.65179757214E+02 -0.32764212625E+03  0.37047096464E+03  0.12499812605E+03 0.  0.
          2    1    1    2  501    0 -0.50019660305E+02  0.77992802674E+02 -0.98866883567E+03  0.99300096189E+03  0.00000000000E+00 0. -1.
          1    1    1    2  502    0 -0.50112454831E+02 -0.14317255989E+03  0.10432366483E+03  0.18410069820E+03  0.00000000000E+00 0. -1.
         22    1    3    3    0    0  0.52887643379E+02  0.10069684340E+03 -0.22048132444E+03  0.24809065181E+03  0.00000000000E+00 0.  1.
         22    1    3    3    0    0  0.47244471757E+02 -0.35517086181E+02 -0.10716080181E+03  0.12238031283E+03  0.00000000000E+00 0.  1.
</event>
<event>
 7    1  0.6146596E-006  0.2137987E+03  0.7818608E-02  0.1257679E+00
          2   -1    0    0  502    0  0.00000000000E+00  0.00000000000E+00  0.12205178312E+04  0.12205178312E+04  0.00000000000E+00 0. -1.
          1   -1    0    0  501    0 -0.00000000000E+00 -0.00000000000E+00 -0.16805120287E+04  0.16805120287E+04  0.00000000000E+00 0. -1.
         25    2    1    2    0    0  0.14950817373E+03  0.15365929374E+03  0.43350094523E+03  0.49950816451E+03  0.12498585653E+03 0.  0.
          2    1    1    2  501    0 -0.10235770434E+03 -0.18782642248E+03 -0.16394258166E+04  0.16533217692E+04  0.00000000000E+00 0. -1.
          1    1    1    2  502    0 -0.47150469392E+02  0.34167128748E+02  0.74593067379E+03  0.74819992619E+03  0.00000000000E+00 0. -1.
         22    1    3    3    0    0  0.73250695886E+02  0.34245903077E+02  0.61964973318E+02  0.10187298093E+03  0.00000000000E+00 0. -1.
         22    1    3    3    0    0  0.76257477843E+02  0.11941339066E+03  0.37153597191E+03  0.39763518358E+03  0.00000000000E+00 0. -1.
</event>
<event>
 7    1  0.6146596E-006  0.7498283E+02  0.7818608E-02  0.1456708E+00
          2   -1    0    0  502    0  0.00000000000E+00  0.00000000000E+00  0.16832449054E+04  0.16832449054E+04  0.00000000000E+00 0. -1.
          1   -1    0    0  501    0 -0.00000000000E+00 -0.00000000000E+00 -0.64601674111E+02  0.64601674111E+02  0.00000000000E+00 0. -1.
         25    2    1    2    0    0 -0.94675263346E+02 -0.28105747629E+02  0.24549775730E+03  0.29265587647E+03  0.12499989860E+03 0.  0.
          2    1    1    2  501    0  0.20796806923E+02  0.22537184853E+02 -0.34177580317E+02  0.45918829206E+02  0.00000000000E+00 0. -1.
          1    1    1    2  502    0  0.73878456423E+02  0.55685627764E+01  0.14073230543E+04  0.14092718738E+04  0.00000000000E+00 0. -1.
         22    1    3    3    0    0  0.29831535615E+01 -0.46386196073E+02  0.14100240752E+03  0.14846635079E+03  0.00000000000E+00 0. -1.
         22    1    3    3    0    0 -0.97658416907E+02  0.18280448444E+02  0.10449534978E+03  0.14418952568E+03  0.00000000000E+00 0. -1.
</event>
<event>
 7    1  0.9352059E-006  0.9910801E+02  0.7818608E-02  0.1452253E+00
          2   -1    0    0  502    0  0.00000000000E+00  0.00000000000E+00  0.23429615770E+04  0.23429615770E+04  0.00000000000E+00 0. -1.
          1   -1    0    0  501    0 -0.00000000000E+00 -0.00000000000E+00 -0.94171369354E+03  0.94171369354E+03  0.00000000000E+00 0. -1.
         25    2    1    2    0    0  0.75917511464E+02  0.27207241403E+02 -0.35679120635E+03  0.38656023056E+03  0.12500057756E+03 0.  0.
          2    1    1    2  501    0  0.10406973321E+02  0.21593777521E+02 -0.56872943036E+03  0.56923436410E+03  0.00000000000E+00 0. -1.
          1    1    1    2  502    0 -0.86324484785E+02 -0.48801018924E+02  0.23267685201E+04  0.23288806759E+04  0.00000000000E+00 0. -1.
         22    1    3    3    0    0 -0.26518281685E+02 -0.10178094644E+02 -0.15115515961E+03  0.15380082949E+03  0.00000000000E+00 0. -1.
         22    1    3    3    0    0  0.10243579315E+03  0.37385336047E+02 -0.20563604674E+03  0.23275940107E+03  0.00000000000E+00 0. -1.
</event>
<event>
 7    1  0.6146596E-006  0.6412152E+02  0.7818608E-02  0.1500045E+00
          2   -1    0    0  502    0  0.00000000000E+00  0.00000000000E+00  0.28316427157E+04  0.28316427157E+04  0.00000000000E+00 0. -1.
          1   -1    0    0  501    0 -0.00000000000E+00 -0.00000000000E+00 -0.89582464117E+03  0.89582464117E+03  0.00000000000E+00 0. -1.
         25    2    1    2    0    0  0.57699712263E+02  0.50296653360E+02  0.14538394530E+03  0.20644929946E+03  0.12500324622E+03 0.  0.
          2    1    1    2  501    0  0.16625019409E+01 -0.26332041911E+02 -0.86470492970E+03  0.86510736663E+03  0.00000000000E+00 0. -1.
          1    1    1    2  502    0 -0.59362214204E+02 -0.23964611449E+02  0.26551390590E+04  0.26559106908E+04  0.00000000000E+00 0. -1.
         22    1    3    3    0    0  0.56554182344E+00  0.33477070706E+02 -0.14007565538E+02  0.36293883685E+02  0.00000000000E+00 0.  1.
         22    1    3    3    0    0  0.57134170440E+02  0.16819582654E+02  0.15939151083E+03  0.17015541578E+03  0.00000000000E+00 0.  1.
</event>
<event>
 7    1  0.6146596E-006  0.2843270E+02  0.7818608E-02  0.1634190E+00
          2   -1    0    0  502    0  0.00000000000E+00  0.00000000000E+00  0.11880191548E+04  0.11880191548E+04  0.00000000000E+00 0. -1.
          1   -1    0    0  501    0 -0.00000000000E+00 -0.00000000000E+00 -0.59140922469E+03  0.59140922469E+03  0.00000000000E+00 0. -1.
         25    2    1    2    0    0 -0.45613098465E+02  0.90463330800E+00  0.17983516689E+03  0.22370920358E+03  0.12499498950E+03 0.  0.
          2    1    1    2  501    0  0.24193340272E+02 -0.14900087187E+02 -0.56895167087E+03  0.56966071841E+03  0.00000000000E+00 0. -1.
          1    1    1    2  502    0  0.21419758193E+02  0.13995453879E+02  0.98572643404E+03  0.98605845747E+03  0.00000000000E+00 0. -1.
         22    1    3    3    0    0  0.28717708945E+02 -0.36188193758E+02  0.40240526111E+02  0.61266566055E+02  0.00000000000E+00 0.  1.
         22    1    3    3    0    0 -0.74330807410E+02  0.37092827066E+02  0.13959464078E+03  0.16244263752E+03  0.00000000000E+00 0.  1.
</event>
<event>
 7    1  0.6146596E-006  0.3927285E+02  0.7818608E-02  0.1518261E+00
          2   -1    0    0  502    0  0.00000000000E+00  0.00000000000E+00  0.19149701257E+04  0.19149701257E+04  0.00000000000E+00 0. -1.
          1   -1    0    0  501    0 -0.00000000000E+00 -0.00000000000E+00 -0.86982509632E+01  0.86982509632E+01  0.00000000000E+00 0. -1.
         25    2    1    2    0    0 -0.58598867585E+01 -0.40009130237E+02  0.10675096833E+04  0.10755635095E+04  0.12499948144E+03 0.  0.
          2    1    1    2  501    0  0.36581902411E+02  0.14287100452E+02  0.89083675792E+02  0.97356346049E+02  0.00000000000E+00 0. -1.
          1    1    1    2  502    0 -0.30722015653E+02  0.25722029785E+02  0.74967851571E+03  0.75074852113E+03  0.00000000000E+00 0. -1.
         22    1    3    3    0    0  0.34123138398E+02  0.27201712586E+02  0.59755546061E+03  0.59914676853E+03  0.00000000000E+00 0.  1.
         22    1    3    3    0    0 -0.39983025156E+02 -0.67210842823E+02  0.46995422265E+03  0.47641674098E+03  0.00000000000E+00 0.  1.
</event>
<event>
 7    1  0.6146596E-006  0.4995434E+02  0.7818608E-02  0.1502228E+00
          2   -1    0    0  502    0  0.00000000000E+00  0.00000000000E+00  0.89713005567E+02  0.89713005567E+02  0.00000000000E+00 0. -1.
          1   -1    0    0  501    0 -0.00000000000E+00 -0.00000000000E+00 -0.13915360989E+04  0.13915360989E+04  0.00000000000E+00 0. -1.
         25    2    1    2    0    0 -0.23247344229E+02  0.30615170410E+02 -0.15224187728E+03  0.20069888021E+03  0.12499889458E+03 0.  0.
          2    1    1    2  501    0  0.26396935391E+02  0.20404469097E+02 -0.12048241355E+04  0.12052859985E+04  0.00000000000E+00 0. -1.
          1    1    1    2  502    0 -0.31495911619E+01 -0.51019639507E+02  0.55242919441E+02  0.75264225820E+02  0.00000000000E+00 0. -1.
         22    1    3    3    0    0  0.47924316807E+02  0.18125330486E+02 -0.31981583325E+02  0.60399415715E+02  0.00000000000E+00 0. -1.
         22    1    3    3    0    0 -0.71171661036E+02  0.12489839924E+02 -0.12026029395E+03  0.14029946449E+03  0.00000000000E+00 0. -1.
</event>
<event>
 7    1  0.6146596E-006  0.4460120E+02  0.7818608E-02  0.1543406E+00
          2   -1    0    0  502    0  0.00000000000E+00  0.00000000000E+00  0.57310396283E+03  0.57310396283E+03  0.00000000000E+00 0. -1.
          1   -1    0    0  501    0 -0.00000000000E+00 -0.00000000000E+00 -0.53117255193E+03  0.53117255193E+03  0.00000000000E+00 0. -1.
         25    2    1    2    0    0  0.86707211394E+01  0.25343251014E+02 -0.38564042993E+02  0.13352931825E+03  0.12500172656E+03 0.  0.
          2    1    1    2  501    0  0.28402397644E+02 -0.86729798891E-01 -0.44371388129E+03  0.44462198794E+03  0.00000000000E+00 0. -1.
          1    1    1    2  502    0 -0.37073118783E+02 -0.25256521215E+02  0.52420933518E+03  0.52612520857E+03  0.00000000000E+00 0. -1.
         22    1    3    3    0    0 -0.13032409759E+02 -0.48649216908E+02 -0.10329420581E+02  0.51412906351E+02  0.00000000000E+00 0. -1.
         22    1    3    3    0    0  0.21703130899E+02  0.73992467922E+02 -0.28234622411E+02  0.82116411897E+02  0.00000000000E+00 0. -1.
</event>
<event>
 7    1  0.6146596E-006  0.6035917E+02  0.7818608E-02  0.1419254E+00
          2   -1    0    0  502    0  0.00000000000E+00  0.00000000000E+00  0.66141273937E+03  0.66141273937E+03  0.00000000000E+00 0. -1.
          1   -1    0    0  501    0 -0.00000000000E+00 -0.00000000000E+00 -0.19631930362E+03  0.19631930362E+03  0.00000000000E+00 0. -1.
         25    2    1    2    0    0 -0.62357199077E+02 -0.49036392398E+02  0.10624773149E+03  0.18222525751E+03  0.12499790387E+03 0.  0.
          2    1    1    2  501    0  0.12887100756E+02  0.58898185559E+02 -0.15130146486E+03  0.16287174984E+03  0.00000000000E+00 0. -1.
          1    1    1    2  502    0  0.49470098321E+02 -0.98617931609E+01  0.51014716913E+03  0.51263503564E+03  0.00000000000E+00 0. -1.
         22    1    3    3    0    0 -0.16612442940E+02  0.50971484874E+00 -0.27675440287E+02  0.32282550468E+02  0.00000000000E+00 0.  1.
         22    1    3    3    0    0 -0.45744756138E+02 -0.49546107247E+02  0.13392317178E+03  0.14994270704E+03  0.00000000000E+00 0.  1.
</event>
<event>
 7    1  0.6146596E-006  0.2592908E+03  0.7818608E-02  0.1288962E+00
          2   -1    0    0  502    0  0.00000000000E+00  0.00000000000E+00  0.25692276757E+03  0.25692276757E+03  0.00000000000E+00 0. -1.
          1   -1    0    0  501    0 -0.00000000000E+00 -0.00000000000E+00 -0.55364975978E+03  0.55364975978E+03  0.00000000000E+00 0. -1.
         25    2    1    2    0    0  0.10471130383E+03 -0.20644861555E+03 -0.30951134480E+03  0.40620852757E+03  0.12499042883E+03 0.  0.
          2    1    1    2  501    0  0.74548026426E+01 -0.34744905742E+02 -0.10692043471E+03  0.11267103406E+03  0.00000000000E+00 0. -1.
          1    1    1    2  502    0 -0.11216610647E+03  0.24119352129E+03  0.11970478729E+03  0.29169296572E+03  0.00000000000E+00 0. -1.
         22    1    3    3    0    0  0.13379922233E+03 -0.17247617572E+03 -0.26011838252E+03  0.33957596501E+03  0.00000000000E+00 0.  1.
         22    1    3    3    0    0 -0.29087918502E+02 -0.33972439826E+02 -0.49392962278E+02  0.66632562559E+02  0.00000000000E+00 0.  1.
</event>
<event>
 7    1  0.6146596E-006  0.9306667E+02  0.7818608E-02  0.1353632E+00
          2   -1    0    0  502    0  0.00000000000E+00  0.00000000000E+00  0.18598077464E+04  0.18598077464E+04  0.00000000000E+00 0. -1.
          1   -1    0    0  501    0 -0.00000000000E+00 -0.00000000000E+00 -0.24908330615E+02  0.24908330615E+02  0.00000000000E+00 0. -1.
         25    2    1    2    0    0 -0.55776754410E+02 -0.87222358184E+02  0.43827310279E+03  0.46736070340E+03  0.12499571334E+03 0.  0.
          2    1    1    2  501    0  0.48625844946E+00  0.93101565047E+02  0.21342569379E+03  0.23284901681E+03  0.00000000000E+00 0. -1.
          1    1    1    2  502    0  0.55290495961E+02 -0.58792068628E+01  0.11832006192E+04  0.11845063568E+04  0.00000000000E+00 0. -1.
         22    1    3    3    0    0 -0.28265121135E+01 -0.93556773879E+02  0.36453574495E+03  0.37636042361E+03  0.00000000000E+00 0.  1.
         22    1    3    3    0    0 -0.52950242297E+02  0.63344156948E+01  0.73737357840E+02  0.91000279794E+02  0.00000000000E+00 0.  1.
</event>
<event>
 7    1  0.6146596E-006  0.1239072E+03  0.7818608E-02  0.1272793E+00
          2   -1    0    0  502    0  0.00000000000E+00  0.00000000000E+00  0.62709236359E+03  0.62709236359E+03  0.00000000000E+00 0. -1.
          1   -1    0    0  501    0 -0.00000000000E+00 -0.00000000000E+00 -0.13278502893E+04  0.13278502893E+04  0.00000000000E+00 0. -1.
         25    2    1    2    0    0 -0.64858610022E+02  0.18400204049E+03 -0.87663438067E+03  0.90673965473E+03  0.12500229551E+03 0.  0.
          2    1    1    2  501    0 -0.10368404127E+02 -0.86090568736E+02 -0.42551834903E+03  0.43426369315E+03  0.00000000000E+00 0. -1.
          1    1    1    2  502    0  0.75227014149E+02 -0.97911471753E+02  0.60139480400E+03  0.61393930501E+03  0.00000000000E+00 0. -1.
         22    1    3    3    0    0 -0.81774671663E+02  0.17455069968E+03 -0.61759498583E+03  0.64697651442E+03  0.00000000000E+00 0. -1.
         22    1    3    3    0    0  0.16916061641E+02  0.94513408059E+01 -0.25903939484E+03  0.25976314031E+03  0.00000000000E+00 0. -1.
</event>
<event>
 7    1  0.6146596E-006  0.6273091E+02  0.7818608E-02  0.1529371E+00
          2   -1    0    0  502    0  0.00000000000E+00  0.00000000000E+00  0.21392936030E+03  0.21392936030E+03  0.00000000000E+00 0. -1.
          1   -1    0    0  501    0 -0.00000000000E+00 -0.00000000000E+00 -0.50376204604E+03  0.50376204604E+03  0.00000000000E+00 0. -1.
         25    2    1    2    0    0  0.84244282185E+01 -0.65791081257E+02  0.70077132418E+02  0.15790760766E+03  0.12499828281E+03 0.  0.
          2    1    1    2  501    0 -0.21654808148E+02  0.45881067197E+01 -0.44973951734E+03  0.45028392698E+03  0.00000000000E+00 0. -1.
          1    1    1    2  502    0  0.13230379930E+02  0.61202974538E+02  0.89829699190E+02  0.10949987170E+03  0.00000000000E+00 0. -1.
         22    1    3    3    0    0  0.19298903552E+02 -0.98182556830E+02  0.72633155866E+02  0.12364399490E+03  0.00000000000E+00 0. -1.
         22    1    3    3    0    0 -0.10874475334E+02  0.32391475573E+02 -0.25560234478E+01  0.34263612761E+02  0.00000000000E+00 0. -1.
</event>
<event>
 7    1  0.6146596E-006  0.1995220E+03  0.7818608E-02  0.1202439E+00
          2   -1    0    0  502    0  0.00000000000E+00  0.00000000000E+00  0.59266763412E+03  0.59266763412E+03  0.00000000000E+00 0. -1.
          1   -1    0    0  501    0 -0.00000000000E+00 -0.00000000000E+00 -0.94100371347E+03  0.94100371347E+03  0.00000000000E+00 0. -1.
         25    2    1    2    0    0  0.17423964196E+03 -0.14169841331E+03 -0.99987286384E+02  0.27579050114E+03  0.12500019965E+03 0.  0.
          2    1    1    2  501    0 -0.10120767174E+03 -0.44088433713E+02 -0.72905865697E+03  0.73736918034E+03  0.00000000000E+00 0. -1.
          1    1    1    2  502    0 -0.73031970226E+02  0.18578684702E+03  0.48070986401E+03  0.52051166611E+03  0.00000000000E+00 0. -1.
         22    1    3    3    0    0  0.25315306418E+02  0.10504531293E+02 -0.50063006878E+02  0.57074640379E+02  0.00000000000E+00 0. -1.
         22    1    3    3    0    0  0.14892433554E+03 -0.15220294460E+03 -0.49924279505E+02  0.21871586076E+03  0.00000000000E+00 0. -1.
</event>
<event>
 7    1  0.6146596E-006  0.8039646E+02  0.7818608E-02  0.1370848E+00
          2   -1    0    0  502    0  0.00000000000E+00  0.00000000000E+00  0.33711234752E+02  0.33711234752E+02  0.00000000000E+00 0. -1.
          1   -1    0    0  501    0 -0.00000000000E+00 -0.00000000000E+00 -0.23510109756E+04  0.23510109756E+04  0.00000000000E+00 0. -1.
         25    2    1    2    0    0  0.20816661562E+02  0.18297623371E+02 -0.15715669392E+04  0.15767736428E+04  0.12499735897E+03 0.  0.
          2    1    1    2  501    0  0.26721025352E+02  0.48897807028E+02 -0.71936157690E+03  0.72151651890E+03  0.00000000000E+00 0. -1.
          1    1    1    2  502    0 -0.47537686915E+02 -0.67195430399E+02 -0.26371224751E+02  0.86432048677E+02  0.00000000000E+00 0. -1.
         22    1    3    3    0    0  0.62794297228E+02 -0.23827524839E+02 -0.94855637684E+03  0.95093116194E+03  0.00000000000E+00 0. -1.
         22    1    3    3    0    0 -0.41977635666E+02  0.42125148210E+02 -0.62301056241E+03  0.62584248088E+03  0.00000000000E+00 0. -1.
</event>
<event>
 7    1  0.6146596E-006  0.1496300E+03  0.7818608E-02  0.1217949E+00
          2   -1    0    0  502    0  0.00000000000E+00  0.00000000000E+00  0.21500293939E+04  0.21500293939E+04  0.00000000000E+00 0. -1.
          1   -1    0    0  501    0 -0.00000000000E+00 -0.00000000000E+00 -0.16861513903E+04  0.16861513903E+04  0.00000000000E+00 0. -1.
         25    2    1    2    0    0 -0.44536650260E+02 -0.17792809726E+03  0.61900066993E+01  0.22203392409E+03  0.12497530258E+03 0.  0.
          2    1    1    2  501    0 -0.80568853693E+02  0.95234905992E+02 -0.15729952028E+04  0.15779337552E+04  0.00000000000E+00 0. -1.
          1    1    1    2  502    0  0.12510550395E+03  0.82693191269E+02  0.20306831997E+04  0.20362131049E+04  0.00000000000E+00 0. -1.
         22    1    3    3    0    0 -0.37424246391E+02 -0.19635943726E+03  0.14888587304E+02  0.20044768108E+03  0.00000000000E+00 0.  1.
         22    1    3    3    0    0 -0.71124038690E+01  0.18431339998E+02 -0.86985806048E+01  0.21586243014E+02  0.00000000000E+00 0.  1.
</event>
<event>
 7    1  0.6146596E-006  0.1930984E+03  0.7818608E-02  0.1294213E+00
          2   -1    0    0  502    0  0.00000000000E+00  0.00000000000E+00  0.74573010932E+03  0.74573010932E+03  0.00000000000E+00 0. -1.
          1   -1    0    0  501    0 -0.00000000000E+00 -0.00000000000E+00 -0.91643362669E+02  0.91643362669E+02  0.00000000000E+00 0. -1.
         25    2    1    2    0    0 -0.19247032953E+03 -0.83948732609E+02  0.45097922106E+03  0.51293386348E+03  0.12500669190E+03 0.  0.
          2    1    1    2  501    0  0.43788614634E+02 -0.12112611642E+02 -0.10888662380E+02  0.46719600820E+02  0.00000000000E+00 0. -1.
          1    1    1    2  502    0  0.14868171490E+03  0.96061344251E+02  0.21399618797E+03  0.27772000769E+03  0.00000000000E+00 0. -1.
         22    1    3    3    0    0 -0.19214962021E+03 -0.50257964409E+02  0.31141022005E+03  0.36935574272E+03  0.00000000000E+00 0. -1.
         22    1    3    3    0    0 -0.32070932627E+00 -0.33690768201E+02  0.13956900101E+03  0.14357812075E+03  0.00000000000E+00 0. -1.
</event>
<event>
 7    1  0.6146596E-006  0.6382514E+02  0.7818608E-02  0.1436580E+00
          2   -1    0    0  502    0  0.00000000000E+00  0.00000000000E+00  0.71747889988E+03  0.71747889988E+03  0.00000000000E+00 0. -1.
          1   -1    0    0  501    0 -0.00000000000E+00 -0.00000000000E+00 -0.13101221402E+03  0.13101221402E+03  0.00000000000E+00 0. -1.
         25    2    1    2    0    0  0.21759061308E+02  0.34419147198E+02  0.15602199043E+03  0.20402520979E+03  0.12500116114E+03 0.  0.
          2    1    1    2  501    0 -0.61738289256E+02 -0.22161230109E+02 -0.96051004201E+02  0.11631221728E+03  0.00000000000E+00 0. -1.
          1    1    1    2  502    0  0.39979227948E+02 -0.12257917089E+02  0.52649569962E+03  0.52815368684E+03  0.00000000000E+00 0. -1.
         22    1    3    3    0    0  0.92838164495E+01  0.60397126089E+02  0.18980466144E+02  0.63986406234E+02  0.00000000000E+00 0. -1.
         22    1    3    3    0    0  0.12475244859E+02 -0.25977978891E+02  0.13704152429E+03  0.14003880355E+03  0.00000000000E+00 0. -1.
</event>
<event>
 7    1  0.6146596E-006  0.4722709E+02  0.7818608E-02  0.1473827E+00
          2   -1    0    0  502    0  0.00000000000E+00  0.00000000000E+00  0.21462934506E+04  0.21462934506E+04  0.00000000000E+00 0. -1.
          1   -1    0    0  501    0 -0.00000000000E+00 -0.00000000000E+00 -0.16230119051E+02  0.16230119051E+02  0.00000000000E+00 0. -1.
         25    2    1    2    0    0 -0.74377161215E+01  0.84466671370E+02  0.11145449452E+04  0.11247385345E+04  0.12504558347E+03 0.  0.
          2    1    1    2  501    0 -0.92219778446E+01 -0.44786717346E+02  0.38377614442E+02  0.59697036914E+02  0.00000000000E+00 0. -1.
          1    1    1    2  502    0  0.16659693966E+02 -0.39679954023E+02  0.97714077188E+03  0.97808799820E+03  0.00000000000E+00 0. -1.
         22    1    3    3    0    0 -0.46080584276E+02  0.82711790273E+02  0.49416486109E+03  0.50315362509E+03  0.00000000000E+00 0.  1.
         22    1    3    3    0    0  0.38642868155E+02  0.17548810971E+01  0.62038008412E+03  0.62158490944E+03  0.00000000000E+00 0.  1.
</event>
<event>
 7    1  0.6146596E-006  0.6831620E+02  0.7818608E-02  0.1379125E+00
          2   -1    0    0  502    0  0.00000000000E+00  0.00000000000E+00  0.76397288305E+03  0.76397288305E+03  0.00000000000E+00 0. -1.
          1   -1    0    0  501    0 -0.00000000000E+00 -0.00000000000E+00 -0.64567174764E+02  0.64567174764E+02  0.00000000000E+00 0. -1.
         25    2    1    2    0    0 -0.69755849154E+00  0.81853644757E+01  0.12668679653E+03  0.17816341142E+03  0.12500067990E+03 0.  0.
          2    1    1    2  501    0  0.47953084289E+02 -0.57521131413E+02  0.13108841036E+01  0.74899247453E+02  0.00000000000E+00 0. -1.
          1    1    1    2  502    0 -0.47255525798E+02  0.49335766938E+02  0.57140802765E+03  0.57547739894E+03  0.00000000000E+00 0. -1.
         22    1    3    3    0    0  0.88902885213E+01  0.62434396027E+02  0.37609385394E+02  0.73427221839E+02  0.00000000000E+00 0.  1.
         22    1    3    3    0    0 -0.95878470128E+01 -0.54249031551E+02  0.89077411132E+02  0.10473618958E+03  0.00000000000E+00 0.  1.
</event>
<event>
 7    1  0.6146596E-006  0.9424966E+02  0.7818608E-02  0.1365357E+00
          2   -1    0    0  502    0  0.00000000000E+00  0.00000000000E+00  0.44225613051E+03  0.44225613051E+03  0.00000000000E+00 0. -1.
          1   -1    0    0  501    0 -0.00000000000E+00 -0.00000000000E+00 -0.33804967085E+03  0.33804967085E+03  0.00000000000E+00 0. -1.
         25    2    1    2    0    0  0.69637770865E+02 -0.60156467478E+02  0.78870585984E+02  0.17410814582E+03  0.12499942958E+03 0.  0.
          2    1    1    2  501    0 -0.93688336456E+02  0.16607289544E+02 -0.28057418002E+03  0.29626875797E+03  0.00000000000E+00 0. -1.
          1    1    1    2  502    0  0.24050565591E+02  0.43549177934E+02  0.30591005369E+03  0.30992889757E+03  0.00000000000E+00 0. -1.
         22    1    3    3    0    0 -0.23782316207E+02 -0.44821297916E+01  0.58711472979E+02  0.63503740921E+02  0.00000000000E+00 0.  1.
         22    1    3    3    0    0  0.93420087072E+02 -0.55674337686E+02  0.20159113005E+02  0.11060440490E+03  0.00000000000E+00 0.  1.
</event>
<event>
 7    1  0.6146596E-006  0.7707271E+02  0.7818608E-02  0.1464918E+00
          2   -1    0    0  502    0  0.00000000000E+00  0.00000000000E+00  0.34998986747E+03  0.34998986747E+03  0.00000000000E+00 0. -1.
          1   -1    0    0  501    0 -0.00000000000E+00 -0.00000000000E+00 -0.16480950080E+04  0.16480950080E+04  0.00000000000E+00 0. -1.
         25    2    1    2    0    0 -0.51268658695E+02  0.67403190008E+02 -0.22850763303E+03  0.27388391142E+03  0.12499997277E+03 0.  0.
          2    1    1    2  501    0 -0.12982343428E+02 -0.24932085769E+02 -0.13922244224E+04  0.13925081660E+04  0.00000000000E+00 0. -1.
          1    1    1    2  502    0  0.64251002123E+02 -0.42471104239E+02  0.32262691496E+03  0.33169279797E+03  0.00000000000E+00 0. -1.
         22    1    3    3    0    0 -0.79838732742E+02  0.23489451438E+01 -0.11704349433E+03  0.14170010711E+03  0.00000000000E+00 0. -1.
         22    1    3    3    0    0  0.28570074047E+02  0.65054244865E+02 -0.11146413870E+03  0.13218380431E+03  0.00000000000E+00 0. -1.
</event>
<event>
 7    1  0.6146596E-006  0.5015402E+02  0.7818608E-02  0.1452759E+00
          2   -1    0    0  502    0  0.00000000000E+00  0.00000000000E+00  0.80166599130E+03  0.80166599130E+03  0.00000000000E+00 0. -1.
          1   -1    0    0  501    0 -0.00000000000E+00 -0.00000000000E+00 -0.61441097025E+03  0.61441097025E+03  0.00000000000E+00 0. -1.
         25    2    1    2    0    0 -0.53487849298E+02 -0.20810282236E+02 -0.24932767949E+03  0.28474922672E+03  0.12499524986E+03 0.  0.
          2    1    1    2  501    0  0.38612502662E+02 -0.27132366666E+02 -0.34496078658E+03  0.34817385738E+03  0.00000000000E+00 0. -1.
          1    1    1    2  502    0  0.14875346636E+02  0.47942648902E+02  0.78154348711E+03  0.78315387745E+03  0.00000000000E+00 0. -1.
         22    1    3    3    0    0 -0.53916079063E+02 -0.45676391221E+02 -0.25007636109E+03  0.25986816402E+03  0.00000000000E+00 0. -1.
         22    1    3    3    0    0  0.42822976519E+00  0.24866108985E+02  0.74868159761E+00  0.24881062697E+02  0.00000000000E+00 0. -1.
</event>
<event>
 7    1  0.6146596E-006  0.4122156E+02  0.7818608E-02  0.1525426E+00
          2   -1    0    0  502    0  0.00000000000E+00  0.00000000000E+00  0.27227334360E+04  0.27227334360E+04  0.00000000000E+00 0. -1.
          1   -1    0    0  501    0 -0.00000000000E+00 -0.00000000000E+00 -0.53449343872E+01  0.53449343872E+01  0.00000000000E+00 0. -1.
         25    2    1    2    0    0  0.11384668703E+02  0.11979862775E+02  0.87878919867E+03  0.88778837553E+03  0.12499846497E+03 0.  0.
          2    1    1    2  501    0 -0.12666579844E+02  0.32173434400E+02  0.75785259323E+03  0.75864097253E+03  0.00000000000E+00 0. -1.
          1    1    1    2  502    0  0.12819111414E+01 -0.44153297175E+02  0.10807467098E+04  0.10816490224E+04  0.00000000000E+00 0. -1.
         22    1    3    3    0    0  0.45755779376E+02 -0.37476446143E+02  0.57874402310E+03  0.58175830001E+03  0.00000000000E+00 0. -1.
         22    1    3    3    0    0 -0.34371110674E+02  0.49456308918E+02  0.30004517557E+03  0.30603007552E+03  0.00000000000E+00 0. -1.
</event>
<event>
 7    1  0.6146596E-006  0.1807444E+03  0.7818608E-02  0.1263863E+00
          2   -1    0    0  502    0  0.00000000000E+00  0.00000000000E+00  0.99911800862E+03  0.99911800862E+03  0.00000000000E+00 0. -1.
          1   -1    0    0  501    0 -0.00000000000E+00 -0.00000000000E+00 -0.20462711949E+04  0.20462711949E+04  0.00000000000E+00 0. -1.
         25    2    1    2    0    0  0.12051205596E+03 -0.31407880943E+02 -0.29666969987E+03  0.34515559006E+03  0.12493942498E+03 0.  0.
          2    1    1    2  501    0  0.61466181393E+02  0.20582922306E+02 -0.17162189108E+04  0.17174426039E+04  0.00000000000E+00 0. -1.
          1    1    1    2  502    0 -0.18197823736E+03  0.10824958637E+02  0.96573542434E+03  0.98279100953E+03  0.00000000000E+00 0. -1.
         22    1    3    3    0    0 -0.16787757195E+02 -0.21033539386E+02 -0.10972094351E+03  0.11297311191E+03  0.00000000000E+00 0. -1.
         22    1    3    3    0    0  0.13729981316E+03 -0.10374341556E+02 -0.18694875636E+03  0.23218247815E+03  0.00000000000E+00 0. -1.
</event>
<event>
 7    1  0.6146596E-006  0.1070702E+03  0.7818608E-02  0.1297077E+00
          2   -1    0    0  502    0  0.00000000000E+00  0.00000000000E+00  0.12447777320E+04  0.12447777320E+04  0.00000000000E+00 0. -1.
          1   -1    0    0  501    0 -0.00000000000E+00 -0.00000000000E+00 -0.75278806680E+02  0.75278806680E+02  0.00000000000E+00 0. -1.
         25    2    1    2    0    0 -0.11889592363E+02  0.47333046893E+02  0.16591287050E+03  0.21338538984E+03  0.12499785704E+03 0.  0.
          2    1    1    2  501    0 -0.73139068427E+02  0.31887062242E+02 -0.15246874981E+02  0.81231614938E+02  0.00000000000E+00 0. -1.
          1    1    1    2  502    0  0.85028660790E+02 -0.79220109134E+02  0.10188329298E+04  0.10254395339E+04  0.00000000000E+00 0. -1.
         22    1    3    3    0    0 -0.35237586536E+02  0.67361109174E+02  0.44395597501E+02  0.88035081709E+02  0.00000000000E+00 0.  1.
         22    1    3    3    0    0  0.23347994173E+02 -0.20028062282E+02  0.12151727300E+03  0.12535030813E+03  0.00000000000E+00 0.  1.
</event>
<event>
 7    1  0.6146596E-006  0.4375053E+03  0.7818608E-02  0.1206464E+00
          2   -1    0    0  502    0  0.00000000000E+00  0.00000000000E+00  0.14446253059E+04  0.14446253059E+04  0.00000000000E+00 0. -1.
          1   -1    0    0  501    0 -0.00000000000E+00 -0.00000000000E+00 -0.15888047758E+04  0.15888047758E+04  0.00000000000E+00 0. -1.
         25    2    1    2    0    0 -0.40907887410E+03 -0.20120063724E+03 -0.81677067153E+02  0.47971164835E+03  0.12499960241E+03 0.  0.
          2    1    1    2  501    0  0.39132224143E+02 -0.28152660928E+02 -0.12696127116E+04  0.12705275836E+04  0.00000000000E+00 0. -1.
          1    1    1    2  502    0  0.36994664995E+03  0.22935329817E+03  0.12071103088E+04  0.12831908498E+04  0.00000000000E+00 0. -1.
         22    1    3    3    0    0 -0.33921546261E+03 -0.20143728590E+03 -0.35815590112E+02  0.39613995850E+03  0.00000000000E+00 0. -1.
         22    1    3    3    0    0 -0.69863411487E+02  0.23664866397E+00 -0.45861477041E+02  0.83571689845E+02  0.00000000000E+00 0. -1.
</event>
<event>
 7    1  0.6146596E-006  0.7711534E+02  0.7818608E-02  0.1453904E+00
          2   -1    0    0  502    0  0.00000000000E+00  0.00000000000E+00  0.18007525468E+04  0.18007525468E+04  0.00000000000E+00 0. -1.
          1   -1    0    0  501    0 -0.00000000000E+00 -0.00000000000E+00 -0.31623125661E+03  0.31623125661E+03  0.00000000000E+00 0. -1.
         25    2    1    2    0    0 -0.67822403536E+01 -0.55786906699E+02  0.93454955315E+02  0.16589135424E+03  0.12501173943E+03 0.  0.
          2    1    1    2  501    0 -0.26895682361E+02 -0.14246825607E+02 -0.27827942354E+03  0.27993889929E+03  0.00000000000E+00 0. -1.
          1    1    1    2  502    0  0.33677922715E+02  0.70033732306E+02  0.16693457584E+04  0.16711535499E+04  0.00000000000E+00 0. -1.
         22    1    3    3    0    0  0.59090045963E+02 -0.30373492990E+02  0.43942015701E+02  0.79656031487E+02  0.00000000000E+00 0. -1.
         22    1    3    3    0    0 -0.65872286317E+02 -0.25413413709E+02  0.49512939614E+02  0.86235322753E+02  0.00000000000E+00 0. -1.
</event>
<event>
 7    1  0.6146596E-006  0.8307620E+02  0.7818608E-02  0.1366591E+00
          2   -1    0    0  502    0  0.00000000000E+00  0.00000000000E+00  0.55998544736E+03  0.55998544736E+03  0.00000000000E+00 0. -1.
          1   -1    0    0  501    0 -0.00000000000E+00 -0.00000000000E+00 -0.15465290336E+04  0.15465290336E+04  0.00000000000E+00 0. -1.
         25    2    1    2    0    0  0.10366276258E+03  0.10416651990E+00 -0.27934493790E+02  0.16477148606E+03  0.12499330973E+03 0.  0.
          2    1    1    2  501    0 -0.33785098480E+02  0.44488677949E+02 -0.14461382765E+04  0.14472168428E+04  0.00000000000E+00 0. -1.
          1    1    1    2  502    0 -0.69877664104E+02 -0.44592844469E+02  0.48752918410E+03  0.49452615205E+03  0.00000000000E+00 0. -1.
         22    1    3    3    0    0 -0.60792299188E+01  0.15590738249E+02 -0.49158128807E+02  0.51928313889E+02  0.00000000000E+00 0. -1.
         22    1    3    3    0    0  0.10974199250E+03 -0.15486571729E+02  0.21223635017E+02  0.11284317217E+03  0.00000000000E+00 0. -1.
</event>
<event>
 7    1  0.6146596E-006  0.3072102E+02  0.7818608E-02  0.1604047E+00
          2   -1    0    0  502    0  0.00000000000E+00  0.00000000000E+00  0.78631796924E+03  0.78631796924E+03  0.00000000000E+00 0. -1.
          1   -1    0    0  501    0 -0.00000000000E+00 -0.00000000000E+00 -0.43904148453E+03  0.43904148453E+03  0.00000000000E+00 0. -1.
         25    2    1    2    0    0 -0.24150450269E+02 -0.49782090123E+02  0.43210328321E+03  0.45321100213E+03  0.12500185735E+03 0.  0.
          2    1    1    2  501    0  0.34869667912E+01  0.30495593073E+02 -0.42735505138E+03  0.42845592548E+03  0.00000000000E+00 0. -1.
          1    1    1    2  502    0  0.20663483478E+02  0.19286497050E+02  0.34252825289E+03  0.34369252617E+03  0.00000000000E+00 0. -1.
         22    1    3    3    0    0 -0.56634372298E+01  0.25082852919E+02  0.29330246896E+03  0.29442751626E+03  0.00000000000E+00 0.  1.
         22    1    3    3    0    0 -0.18487013039E+02 -0.74864943042E+02  0.13880081425E+03  0.15878348586E+03  0.00000000000E+00 0.  1.
</event>
<event>
 7    1  0.6146596E-006  0.3306883E+02  0.7818608E-02  0.1594000E+00
          2   -1    0    0  502    0  0.00000000000E+00  0.00000000000E+00  0.10539117951E+04  0.10539117951E+04  0.00000000000E+00 0. -1.
          1   -1    0    0  501    0 -0.00000000000E+00 -0.00000000000E+00 -0.61556435979E+03  0.61556435979E+03  0.00000000000E+00 0. -1.
         25    2    1    2    0    0  0.23831697292E+02  0.35153854627E+02  0.35222044934E+03  0.37614900752E+03  0.12500035053E+03 0.  0.
          2    1    1    2  501    0  0.81550010029E+01 -0.26678713494E+02 -0.60288045508E+03  0.60352555945E+03  0.00000000000E+00 0. -1.
          1    1    1    2  502    0 -0.31986698295E+02 -0.84751411328E+01  0.68900744108E+03  0.68980158796E+03  0.00000000000E+00 0. -1.
         22    1    3    3    0    0 -0.30676043559E+02  0.37383034033E+02  0.28734290259E+03  0.29138368958E+03  0.00000000000E+00 0.  1.
         22    1    3    3    0    0  0.54507740852E+02 -0.22291794066E+01  0.64877546745E+02  0.84765317938E+02  0.00000000000E+00 0.  1.
</event>
<event>
 7    1  0.6146596E-006  0.8787561E+02  0.7818608E-02  0.1308315E+00
          2   -1    0    0  502    0  0.00000000000E+00  0.00000000000E+00  0.19501808621E+04  0.19501808621E+04  0.00000000000E+00 0. -1.
          1   -1    0    0  501    0 -0.00000000000E+00 -0.00000000000E+00 -0.64271889065E+03  0.64271889065E+03  0.00000000000E+00 0. -1.
         25    2    1    2    0    0  0.75065835931E+02  0.76298384863E+02  0.71976673454E+02  0.17961676681E+03  0.12500087256E+03 0.  0.
          2    1    1    2  501    0 -0.87601063517E+02  0.10678570333E+02 -0.58452661367E+03  0.59115086085E+03  0.00000000000E+00 0. -1.
          1    1    1    2  502    0  0.12535227586E+02 -0.86976955197E+02  0.18200119116E+04  0.18221321250E+04  0.00000000000E+00 0. -1.
         22    1    3    3    0    0 -0.26225519607E+02 -0.95910549998E+01 -0.12690021982E+01  0.27953113981E+02  0.00000000000E+00 0. -1.
         22    1    3    3    0    0  0.10129135554E+03  0.85889439863E+02  0.73245675653E+02  0.15166365283E+03  0.00000000000E+00 0. -1.
</event>
<event>
 7    1  0.6146596E-006  0.5564337E+02  0.7818608E-02  0.1551599E+00
          2   -1    0    0  502    0  0.00000000000E+00  0.00000000000E+00  0.12072929355E+03  0.12072929355E+03  0.00000000000E+00 0. -1.
          1   -1    0    0  501    0 -0.00000000000E+00 -0.00000000000E+00 -0.93642233326E+03  0.93642233326E+03  0.00000000000E+00 0. -1.
         25    2    1    2    0    0  0.47360512299E+02 -0.24475054438E+02  0.22223334658E+02  0.13769735878E+03  0.12499855838E+03 0.  0.
          2    1    1    2  501    0 -0.35783012279E+02  0.42704668166E+02 -0.87487590718E+03  0.87664814243E+03  0.00000000000E+00 0. -1.
          1    1    1    2  502    0 -0.11577500020E+02 -0.18229613728E+02  0.36959532811E+02  0.42806125601E+02  0.00000000000E+00 0. -1.
         22    1    3    3    0    0  0.12442587738E+02 -0.25402534492E+02  0.71731459927E+02  0.77107127372E+02  0.00000000000E+00 0.  1.
         22    1    3    3    0    0  0.34917924562E+02  0.92748005371E+00 -0.49508125269E+02  0.60590231412E+02  0.00000000000E+00 0.  1.
</event>
<event>
 7    1  0.6146596E-006  0.5185472E+02  0.7818608E-02  0.1441894E+00
          2   -1    0    0  502    0  0.00000000000E+00  0.00000000000E+00  0.71884451237E+03  0.71884451237E+03  0.00000000000E+00 0. -1.
          1   -1    0    0  501    0 -0.00000000000E+00 -0.00000000000E+00 -0.16934498829E+04  0.16934498829E+04  0.00000000000E+00 0. -1.
         25    2    1    2    0    0  0.36798270783E+02 -0.13454905958E+02 -0.10357893854E+03  0.16700100680E+03  0.12500237013E+03 0.  0.
          2    1    1    2  501    0  0.87195668864E+00  0.49455462383E+02 -0.15567787186E+04  0.15575643106E+04  0.00000000000E+00 0. -1.
          1    1    1    2  502    0 -0.37670227472E+02 -0.36000556425E+02  0.68575228654E+03  0.68772907790E+03  0.00000000000E+00 0. -1.
         22    1    3    3    0    0  0.67511969734E+02 -0.49442782537E+02 -0.65400017699E+02  0.10620554184E+03  0.00000000000E+00 0.  1.
         22    1    3    3    0    0 -0.30713698951E+02  0.35987876579E+02 -0.38178920837E+02  0.60795464964E+02  0.00000000000E+00 0.  1.
</event>
<event>
 7    1  0.6146596E-006  0.6498899E+02  0.7818608E-02  0.1385015E+00
          2   -1    0    0  502    0  0.00000000000E+00  0.00000000000E+00  0.18248095489E+04  0.18248095489E+04  0.00000000000E+00 0. -1.
          1   -1    0    0  501    0 -0.00000000000E+00 -0.00000000000E+00 -0.92308521072E+03  0.92308521072E+03  0.00000000000E+00 0. -1.
         25    2    1    2    0    0  0.76309587390E+02  0.69930724381E+02  0.24906581937E+03  0.29727523030E+03  0.12500128331E+03 0.  0.
          2    1    1    2  501    0 -0.12686018391E+02 -0.60064527632E+02 -0.89726333971E+03  0.89936098611E+03  0.00000000000E+00 0. -1.
          1    1    1    2  502    0 -0.63623568999E+02 -0.98661967490E+01  0.15499218586E+04  0.15512585433E+04  0.00000000000E+00 0. -1.
         22    1    3    3    0    0  0.23576294110E+02  0.26526766453E+02  0.22034287170E+03  0.22318264290E+03  0.00000000000E+00 0. -1.
         22    1    3    3    0    0  0.52733293280E+02  0.43403957928E+02  0.28722947668E+02  0.74092587394E+02  0.00000000000E+00 0. -1.
</event>
<event>
 7    1  0.6146596E-006  0.3487408E+03  0.7818608E-02  0.1138406E+00
          2   -1    0    0  502    0  0.00000000000E+00  0.00000000000E+00  0.95548690066E+03  0.95548690066E+03  0.00000000000E+00 0. -1.
          1   -1    0    0  501    0 -0.00000000000E+00 -0.00000000000E+00 -0.37995027470E+03  0.37995027470E+03  0.00000000000E+00 0. -1.
         25    2    1    2    0    0  0.27623278110E+03  0.38636806566E+02  0.69737020842E+02  0.31350562695E+03  0.12500069551E+03 0.  0.
          2    1    1    2  501    0 -0.40376730797E+03 -0.70140906150E+02 -0.83442675173E+02  0.41822298567E+03  0.00000000000E+00 0. -1.
          1    1    1    2  502    0  0.12753452687E+03  0.31504099584E+02  0.58924228030E+03  0.60370856274E+03  0.00000000000E+00 0. -1.
         22    1    3    3    0    0  0.17444225575E+02  0.23489503399E+02  0.44217359395E+02  0.53021058530E+02  0.00000000000E+00 0.  1.
         22    1    3    3    0    0  0.25878855553E+03  0.15147303167E+02  0.25519661447E+02  0.26048456842E+03  0.00000000000E+00 0.  1.
</event>
<event>
 7    1  0.6146596E-006  0.7655872E+02  0.7818608E-02  0.1372206E+00
          2   -1    0    0  502    0  0.00000000000E+00  0.00000000000E+00  0.68826113651E+03  0.68826113651E+03  0.00000000000E+00 0. -1.
          1   -1    0    0  501    0 -0.00000000000E+00 -0.00000000000E+00 -0.37265705806E+04  0.37265705806E+04  0.00000000000E+00 0. -1.
         25    2    1    2    0    0 -0.31301947923E+02 -0.13031382577E+03 -0.36414509707E+03  0.40766208684E+03  0.12500088077E+03 0.  0.
          2    1    1    2  501    0  0.15688892416E+02  0.55695428627E+02 -0.33382355331E+04  0.33387369763E+04  0.00000000000E+00 0. -1.
          1    1    1    2  502    0  0.15613055507E+02  0.74618397141E+02  0.66407118612E+03  0.66843265399E+03  0.00000000000E+00 0. -1.
         22    1    3    3    0    0  0.17413167879E+02 -0.88856418951E+02 -0.31278441257E+03  0.32562673470E+03  0.00000000000E+00 0.  1.
         22    1    3    3    0    0 -0.48715115802E+02 -0.41457406817E+02 -0.51360684498E+02  0.82035352133E+02  0.00000000000E+00 0.  1.
</event>
<event>
 7    1  0.6146596E-006  0.1522281E+03  0.7818608E-02  0.1310637E+00
          2   -1    0    0  502    0  0.00000000000E+00  0.00000000000E+00  0.65340883426E+03  0.65340883426E+03  0.00000000000E+00 0. -1.
          1   -1    0    0  501    0 -0.00000000000E+00 -0.00000000000E+00 -0.89883462032E+03  0.89883462032E+03  0.00000000000E+00 0. -1.
         25    2    1    2    0    0 -0.56877118436E+02 -0.18136839327E+03  0.76807105782E+02  0.24012213840E+03  0.12501923521E+03 0.  0.
          2    1    1    2  501    0  0.34361650718E+02  0.35716984575E+02 -0.80542687223E+03  0.80695035320E+03  0.00000000000E+00 0. -1.
          1    1    1    2  502    0  0.22515467718E+02  0.14565140870E+03  0.48319398039E+03  0.50517096297E+03  0.00000000000E+00 0. -1.
         22    1    3    3    0    0 -0.82059475327E+02 -0.75007115538E+02  0.68324745986E+02  0.13049174605E+03  0.00000000000E+00 0. -1.
         22    1    3    3    0    0  0.25182356891E+02 -0.10636127773E+03  0.84823597957E+01  0.10963039235E+03  0.00000000000E+00 0. -1.
</event>
<event>
 7    1  0.6146596E-006  0.6241599E+02  0.7818608E-02  0.1410938E+00
          2   -1    0    0  502    0  0.00000000000E+00  0.00000000000E+00  0.14040137913E+03  0.14040137913E+03  0.00000000000E+00 0. -1.
          1   -1    0    0  501    0 -0.00000000000E+00 -0.00000000000E+00 -0.24012773896E+03  0.24012773896E+03  0.00000000000E+00 0. -1.
         25    2    1    2    0    0  0.30003899405E+02  0.27563295148E+02  0.48990690672E+02  0.14030449047E+03  0.12500117221E+03 0.  0.
          2    1    1    2  501    0  0.38473423100E+01  0.51884321925E+02 -0.14470404417E+03  0.15377270663E+03  0.00000000000E+00 0. -1.
          1    1    1    2  502    0 -0.33851241715E+02 -0.79447617074E+02 -0.40130063296E+01  0.86451920998E+02  0.00000000000E+00 0. -1.
         22    1    3    3    0    0 -0.20907030159E+02  0.57619290850E+02  0.53022668627E+02  0.81046221235E+02  0.00000000000E+00 0.  1.
         22    1    3    3    0    0  0.50910929564E+02 -0.30055995701E+02 -0.40319779548E+01  0.59258269237E+02  0.00000000000E+00 0.  1.
</event>
<event>
 7    1  0.6146596E-006  0.5229917E+02  0.7818608E-02  0.1462945E+00
          2   -1    0    0  502    0  0.00000000000E+00  0.00000000000E+00  0.68414118549E+03  0.68414118549E+03  0.00000000000E+00 0. -1.
          1   -1    0    0  501    0 -0.00000000000E+00 -0.00000000000E+00 -0.29326312543E+04  0.29326312543E+04  0.00000000000E+00 0. -1.
         25    2    1    2    0    0  0.24544735044E+02  0.41496938783E+02  0.42997162411E+03  0.45036566721E+03  0.12501678571E+03 0.  0.
          2    1    1    2  501    0 -0.51485739583E+02 -0.92509058798E+01 -0.29203890216E+04  0.29208574765E+04  0.00000000000E+00 0. -1.
          1    1    1    2  502    0  0.26941004539E+02 -0.32246032903E+02  0.24192732875E+03  0.24554929599E+03  0.00000000000E+00 0. -1.
         22    1    3    3    0    0 -0.27220683160E+02  0.58331328701E+02  0.12527654620E+03  0.14084645018E+03  0.00000000000E+00 0.  1.
         22    1    3    3    0    0  0.51765418203E+02 -0.16834389919E+02  0.30469507791E+03  0.30951921703E+03  0.00000000000E+00 0.  1.
</event>
<event>
 7    1  0.6146596E-006  0.5789304E+02  0.7818608E-02  0.1430329E+00
          2   -1    0    0  502    0  0.00000000000E+00  0.00000000000E+00  0.66395226437E+03  0.66395226437E+03  0.00000000000E+00 0. -1.
          1   -1    0    0  501    0 -0.00000000000E+00 -0.00000000000E+00 -0.49634195797E+03  0.49634195797E+03  0.00000000000E+00 0. -1.
         25    2    1    2    0    0  0.38374479578E+02 -0.92595419763E+02  0.81870428856E+02  0.17993523139E+03  0.12500963135E+03 0.  0.
          2    1    1    2  501    0 -0.55975652736E+01  0.57082681521E+02 -0.44436724724E+03  0.44805358573E+03  0.00000000000E+00 0. -1.
          1    1    1    2  502    0 -0.32776914304E+02  0.35512738242E+02  0.53010712478E+03  0.53230540522E+03  0.00000000000E+00 0. -1.
         22    1    3    3    0    0 -0.29651321836E+02 -0.24980290235E+02  0.74196325921E+02  0.83715653058E+02  0.00000000000E+00 0.  1.
         22    1    3    3    0    0  0.68025801414E+02 -0.67615129527E+02  0.76741029352E+01  0.96219578334E+02  0.00000000000E+00 0.  1.
</event>
<event>
 7    1  0.6146596E-006  0.7298227E+02  0.7818608E-02  0.1413827E+00
          2   -1    0    0  502    0  0.00000000000E+00  0.00000000000E+00  0.84999484524E+02  0.84999484524E+02  0.00000000000E+00 0. -1.
          1   -1    0    0  501    0 -0.00000000000E+00 -0.00000000000E+00 -0.20034154348E+04  0.20034154348E+04  0.00000000000E+00 0. -1.
         25    2    1    2    0    0 -0.99281864845E+02 -0.37933093348E+02 -0.31511476586E+03  0.35527184924E+03  0.12499985178E+03 0.  0.
          2    1    1    2  501    0  0.28158799517E+02  0.33164067217E+02 -0.16482811927E+04  0.16488552585E+04  0.00000000000E+00 0. -1.
          1    1    1    2  502    0  0.71123065328E+02  0.47690261312E+01  0.44980008286E+02  0.84287811558E+02  0.00000000000E+00 0. -1.
         22    1    3    3    0    0 -0.12437349667E+02  0.42111113610E+02 -0.11223029345E+03  0.12051419968E+03  0.00000000000E+00 0.  1.
         22    1    3    3    0    0 -0.86844515178E+02 -0.80044206959E+02 -0.20288447241E+03  0.23475764956E+03  0.00000000000E+00 0.  1.
</event>
<event>
 7    1  0.6146596E-006  0.7502946E+02  0.7818608E-02  0.1391098E+00
          2   -1    0    0  502    0  0.00000000000E+00  0.00000000000E+00  0.46239632694E+03  0.46239632694E+03  0.00000000000E+00 0. -1.
          1   -1    0    0  501    0 -0.00000000000E+00 -0.00000000000E+00 -0.62865526125E+03  0.62865526125E+03  0.00000000000E+00 0. -1.
         25    2    1    2    0    0 -0.58582495117E+01 -0.25626007606E+02  0.58330867486E+02  0.14040386949E+03  0.12497897868E+03 0.  0.
          2    1    1    2  501    0  0.32343350526E+01  0.76188905766E+02 -0.58335969653E+03  0.58832282449E+03  0.00000000000E+00 0. -1.
          1    1    1    2  502    0  0.26239144591E+01 -0.50562898159E+02  0.35876989473E+03  0.36232489421E+03  0.00000000000E+00 0. -1.
         22    1    3    3    0    0  0.21006886072E+02 -0.30039918714E+02 -0.30380085733E+02  0.47609196464E+02  0.00000000000E+00 0.  1.
         22    1    3    3    0    0 -0.26865135584E+02  0.44139111074E+01  0.88710953219E+02  0.92794673027E+02  0.00000000000E+00 0.  1.
</event>
<event>
 7    1  0.6146596E-006  0.1995732E+03  0.7818608E-02  0.1228529E+00
          2   -1    0    0  502    0  0.00000000000E+00  0.00000000000E+00  0.84844185566E+03  0.84844185566E+03  0.00000000000E+00 0. -1.
          1   -1    0    0  501    0 -0.00000000000E+00 -0.00000000000E+00 -0.56817652633E+03  0.56817652633E+03  0.00000000000E+00 0. -1.
         25    2    1    2    0    0 -0.79909271626E+02 -0.24594517898E+03 -0.19251978594E+03  0.34578005702E+03  0.12500182839E+03 0.  0.
          2    1    1    2  501    0  0.33933845585E+02  0.17594997187E+03 -0.26961407060E+03  0.32373082266E+03  0.00000000000E+00 0. -1.
          1    1    1    2  502    0  0.45975426041E+02  0.69995207104E+02  0.74239918587E+03  0.74710750231E+03  0.00000000000E+00 0. -1.
         22    1    3    3    0    0 -0.81592599542E+02 -0.93902871928E+02 -0.13403803377E+03  0.18286961517E+03  0.00000000000E+00 0.  1.
         22    1    3    3    0    0  0.16833279156E+01 -0.15204230705E+03 -0.58481752168E+02  0.16291044185E+03  0.00000000000E+00 0.  1.
</event>
<event>
 7    1  0.6146596E-006  0.1255657E+03  0.7818608E-02  0.1273447E+00
          2   -1    0    0  502    0  0.00000000000E+00  0.00000000000E+00  0.31577677812E+04  0.31577677812E+04  0.00000000000E+00 0. -1.
          1   -1    0    0  501    0 -0.00000000000E+00 -0.00000000000E+00 -0.30271198921E+03  0.30271198921E+03  0.00000000000E+00 0. -1.
         25    2    1    2    0    0  0.93602610109E+01  0.57006851367E+02 -0.12509806997E+03  0.18604648620E+03  0.12500548919E+03 0.  0.
          2    1    1    2  501    0 -0.62801056967E+02  0.57325495897E+02 -0.13346913363E+03  0.15825357774E+03  0.00000000000E+00 0. -1.
          1    1    1    2  502    0  0.53440795956E+02 -0.11433234726E+03  0.31136229956E+04  0.31161797065E+04  0.00000000000E+00 0. -1.
         22    1    3    3    0    0  0.14781486615E+02  0.42382023528E+02  0.13266785949E+02  0.46805297503E+02  0.00000000000E+00 0.  1.
         22    1    3    3    0    0 -0.54212256041E+01  0.14624827839E+02 -0.13836485592E+03  0.13924118870E+03  0.00000000000E+00 0.  1.
</event>
<event>
 7    1  0.6146596E-006  0.9946362E+02  0.7818608E-02  0.1354612E+00
          2   -1    0    0  502    0  0.00000000000E+00  0.00000000000E+00  0.77365980753E+03  0.77365980753E+03  0.00000000000E+00 0. -1.
          1   -1    0    0  501    0 -0.00000000000E+00 -0.00000000000E+00 -0.80323392783E+02  0.80323392783E+02  0.00000000000E+00 0. -1.
         25    2    1    2    0    0  0.91627487722E+01  0.59119221999E+02  0.25579851567E+03  0.29092562530E+03  0.12500320182E+03 0.  0.
          2    1    1    2  501    0 -0.44353105207E+02 -0.96851936574E+02 -0.15010870917E+02  0.10757705055E+03  0.00000000000E+00 0. -1.
          1    1    1    2  502    0  0.35190356435E+02  0.37732714576E+02  0.45254877000E+03  0.45548052447E+03  0.00000000000E+00 0. -1.
         22    1    3    3    0    0  0.42209081132E+02 -0.23610545146E+02  0.72888886779E+02  0.87474877468E+02  0.00000000000E+00 0.  1.
         22    1    3    3    0    0 -0.33046332360E+02  0.82729767145E+02  0.18290962889E+03  0.20345074783E+03  0.00000000000E+00 0.  1.
</event>
<event>
 7    1  0.6146596E-006  0.8440040E+02  0.7818608E-02  0.1356466E+00
          2   -1    0    0  502    0  0.00000000000E+00  0.00000000000E+00  0.16666814953E+04  0.16666814953E+04  0.00000000000E+00 0. -1.
          1   -1    0    0  501    0 -0.00000000000E+00 -0.00000000000E+00 -0.16310273616E+03  0.16310273616E+03  0.00000000000E+00 0. -1.
         25    2    1    2    0    0  0.56408703611E+02 -0.44993576522E+02  0.69007765934E+03  0.70500790529E+03  0.12499042697E+03 0.  0.
          2    1    1    2  501    0 -0.11176652898E+02  0.84198885737E+02 -0.14304359767E+03  0.16636057455E+03  0.00000000000E+00 0. -1.
          1    1    1    2  502    0 -0.45232050712E+02 -0.39205309214E+02  0.95654469750E+03  0.95841575165E+03  0.00000000000E+00 0. -1.
         22    1    3    3    0    0  0.80780256349E+02 -0.10124358993E+00  0.26969206411E+03  0.28153022841E+03  0.00000000000E+00 0. -1.
         22    1    3    3    0    0 -0.24371552739E+02 -0.44892332932E+02  0.42038559523E+03  0.42347767688E+03  0.00000000000E+00 0. -1.
</event>
<event>
 7    1  0.6146596E-006  0.4341035E+02  0.7818608E-02  0.1500231E+00
          2   -1    0    0  502    0  0.00000000000E+00  0.00000000000E+00  0.46505318345E+02  0.46505318345E+02  0.00000000000E+00 0. -1.
          1   -1    0    0  501    0 -0.00000000000E+00 -0.00000000000E+00 -0.16959942274E+04  0.16959942274E+04  0.00000000000E+00 0. -1.
         25    2    1    2    0    0  0.76014802692E+02  0.10407703634E+02 -0.97934933081E+03  0.99027186686E+03  0.12500675184E+03 0.  0.
          2    1    1    2  501    0 -0.33850732850E+02 -0.19212582164E+02 -0.69919045234E+03  0.70027300681E+03  0.00000000000E+00 0. -1.
          1    1    1    2  502    0 -0.42164069842E+02  0.88048785309E+01  0.29050874053E+02  0.51954672118E+02  0.00000000000E+00 0. -1.
         22    1    3    3    0    0  0.88095168338E+02 -0.42585092616E+01 -0.36054748059E+03  0.37117836594E+03  0.00000000000E+00 0.  1.
         22    1    3    3    0    0 -0.12080365646E+02  0.14666212895E+02 -0.61880185022E+03  0.61909350091E+03  0.00000000000E+00 0.  1.
</event>
<event>
 7    1  0.6146596E-006  0.3974895E+02  0.7818608E-02  0.1536416E+00
          2   -1    0    0  502    0  0.00000000000E+00  0.00000000000E+00  0.15638241635E+04  0.15638241635E+04  0.00000000000E+00 0. -1.
          1   -1    0    0  501    0 -0.00000000000E+00 -0.00000000000E+00 -0.90662019146E+03  0.90662019146E+03  0.00000000000E+00 0. -1.
         25    2    1    2    0    0  0.36657481499E+02 -0.36574553627E+02  0.49952517953E+03  0.51751685782E+03  0.12496729261E+03 0.  0.
          2    1    1    2  501    0 -0.39607483152E+02  0.33518563306E+01 -0.89692052799E+03  0.89780088059E+03  0.00000000000E+00 0. -1.
          1    1    1    2  502    0  0.29500016536E+01  0.33222697297E+02  0.10545993205E+04  0.10551266165E+04  0.00000000000E+00 0. -1.
         22    1    3    3    0    0  0.12662576631E+02  0.92078292384E+01  0.33741867379E+00  0.15660102732E+02  0.00000000000E+00 0.  1.
         22    1    3    3    0    0  0.23994904868E+02 -0.45782382866E+02  0.49918776086E+03  0.50185675509E+03  0.00000000000E+00 0.  1.
</event>
<event>
 7    1  0.6146596E-006  0.7087847E+02  0.7818608E-02  0.1392917E+00
          2   -1    0    0  502    0  0.00000000000E+00  0.00000000000E+00  0.44000664875E+03  0.44000664875E+03  0.00000000000E+00 0. -1.
          1   -1    0    0  501    0 -0.00000000000E+00 -0.00000000000E+00 -0.11159519971E+04  0.11159519971E+04  0.00000000000E+00 0. -1.
         25    2    1    2    0    0  0.81841835589E+02  0.30136994538E+02 -0.22405931293E+02  0.15406439126E+03  0.12500994522E+03 0.  0.
          2    1    1    2  501    0 -0.43715720043E+02  0.29647280169E+02 -0.10236705781E+04  0.10250324278E+04  0.00000000000E+00 0. -1.
          1    1    1    2  502    0 -0.38126115546E+02 -0.59784274707E+02  0.37013116104E+03  0.37686182688E+03  0.00000000000E+00 0. -1.
         22    1    3    3    0    0  0.19004554085E+02 -0.48310944889E+02 -0.77353812653E+01  0.52487680416E+02  0.00000000000E+00 0.  1.
         22    1    3    3    0    0  0.62837281504E+02  0.78447939427E+02 -0.14670550027E+02  0.10157671084E+03  0.00000000000E+00 0.  1.
</event>
<event>
 7    1  0.6146596E-006  0.1216209E+03  0.7818608E-02  0.1375775E+00
          2   -1    0    0  502    0  0.00000000000E+00  0.00000000000E+00  0.16864516520E+03  0.16864516520E+03  0.00000000000E+00 0. -1.
          1   -1    0    0  501    0 -0.00000000000E+00 -0.00000000000E+00 -0.35089405305E+03  0.35089405305E+03  0.00000000000E+00 0. -1.
         25    2    1    2    0    0 -0.83422254080E+02 -0.75122704194E+02  0.75523392710E+02  0.18420870458E+03  0.12500548322E+03 0.  0.
          2    1    1    2  501    0 -0.21292676140E+02 -0.28242869843E+02 -0.14689447981E+03  0.15109277267E+03  0.00000000000E+00 0. -1.
          1    1    1    2  502    0  0.10471493022E+03  0.10336557404E+03 -0.11087780075E+03  0.18423774100E+03  0.00000000000E+00 0. -1.
         22    1    3    3    0    0  0.89828844667E+01  0.15017133211E+02  0.49528260167E+02  0.52528611807E+02  0.00000000000E+00 0.  1.
         22    1    3    3    0    0 -0.92405138547E+02 -0.90139837405E+02  0.25995132543E+02  0.13168009278E+03  0.00000000000E+00 0.  1.
</event>
<event>
 7    1  0.6146596E-006  0.1877762E+03  0.7818608E-02  0.1219643E+00
          2   -1    0    0  502    0  0.00000000000E+00  0.00000000000E+00  0.14499114954E+04  0.14499114954E+04  0.00000000000E+00 0. -1.
          1   -1    0    0  501    0 -0.00000000000E+00 -0.00000000000E+00 -0.19117148697E+03  0.19117148697E+03  0.00000000000E+00 0. -1.
         25    2    1    2    0    0  0.89091118418E+02 -0.12725738093E+03  0.20576691533E+03  0.28652446995E+03  0.12499832020E+03 0.  0.
          2    1    1    2  501    0 -0.68554342932E+02 -0.69535010746E+02 -0.12582548977E+03  0.15926980106E+03  0.00000000000E+00 0. -1.
          1    1    1    2  502    0 -0.20536775485E+02  0.19679239167E+03  0.11787985829E+04  0.11952887114E+04  0.00000000000E+00 0. -1.
         22    1    3    3    0    0  0.24774982836E+02  0.23906938222E+02  0.45103106417E+02  0.56741798333E+02  0.00000000000E+00 0. -1.
         22    1    3    3    0    0  0.64316135582E+02 -0.15116431915E+03  0.16066380892E+03  0.22978267162E+03  0.00000000000E+00 0. -1.
</event>
<event>
 7    1  0.6828012E-006  0.7618080E+02  0.7818608E-02  0.1477270E+00
          2   -1    0    0  502    0  0.00000000000E+00  0.00000000000E+00  0.88307201618E+03  0.88307201618E+03  0.00000000000E+00 0. -1.
          1   -1    0    0  501    0 -0.00000000000E+00 -0.00000000000E+00 -0.12680115178E+04  0.12680115178E+04  0.00000000000E+00 0. -1.
         25    2    1    2    0    0  0.67893073988E+02  0.19928877858E+02 -0.72683854174E+03  0.74089478669E+03  0.12499675805E+03 0.  0.
          2    1    1    2  501    0  0.81586222398E+01 -0.24722726409E+02 -0.53216891835E+03  0.53280534342E+03  0.00000000000E+00 0. -1.
          1    1    1    2  502    0 -0.76051696228E+02  0.47938485515E+01  0.87406795843E+03  0.87738340390E+03  0.00000000000E+00 0. -1.
         22    1    3    3    0    0  0.10246463572E+02 -0.10299678324E+02 -0.39147900405E+01  0.15046560084E+02  0.00000000000E+00 0.  1.
         22    1    3    3    0    0  0.57646610417E+02  0.30228556181E+02 -0.72292375170E+03  0.72584822661E+03  0.00000000000E+00 0.  1.
</event>
<event>
 7    1  0.6146596E-006  0.7302016E+02  0.7818608E-02  0.1387933E+00
          2   -1    0    0  502    0  0.00000000000E+00  0.00000000000E+00  0.95854749301E+03  0.95854749301E+03  0.00000000000E+00 0. -1.
          1   -1    0    0  501    0 -0.00000000000E+00 -0.00000000000E+00 -0.63791801555E+02  0.63791801555E+02  0.00000000000E+00 0. -1.
         25    2    1    2    0    0 -0.19829950619E+02  0.10231792712E+03  0.34777908856E+03  0.38397731829E+03  0.12500440539E+03 0.  0.
          2    1    1    2  501    0  0.40415478791E+02 -0.34848734800E+02 -0.27180142385E+02  0.59888274170E+02  0.00000000000E+00 0. -1.
          1    1    1    2  502    0 -0.20585528171E+02 -0.67469192319E+02  0.57415674528E+03  0.57847370211E+03  0.00000000000E+00 0. -1.
         22    1    3    3    0    0  0.23820680573E+02  0.96598038961E+02  0.14102428788E+03  0.17258753062E+03  0.00000000000E+00 0. -1.
         22    1    3    3    0    0 -0.43650631193E+02  0.57198881581E+01  0.20675480068E+03  0.21138978767E+03  0.00000000000E+00 0. -1.
</event>
<event>
 7    1  0.6146596E-006  0.1170734E+03  0.7818608E-02  0.1311764E+00
          2   -1    0    0  502    0  0.00000000000E+00  0.00000000000E+00  0.24139390118E+03  0.24139390118E+03  0.00000000000E+00 0. -1.
          1   -1    0    0  501    0 -0.00000000000E+00 -0.00000000000E+00 -0.76014420779E+03  0.76014420779E+03  0.00000000000E+00 0. -1.
         25    2    1    2    0    0  0.58156438811E+02 -0.10794257613E+03  0.19858356844E+03  0.26475341437E+03  0.12500066260E+03 0.  0.
          2    1    1    2  501    0  0.14996353394E+02  0.62002949243E+02 -0.47998645601E+03  0.48420683007E+03  0.00000000000E+00 0. -1.
          1    1    1    2  502    0 -0.73152792205E+02  0.45939626891E+02 -0.23734741904E+03  0.25257786453E+03  0.00000000000E+00 0. -1.
         22    1    3    3    0    0  0.88351244560E+02 -0.10746854361E+03  0.13262463581E+03  0.19221010458E+03  0.00000000000E+00 0. -1.
         22    1    3    3    0    0 -0.30194805749E+02 -0.47403252280E+00  0.65958932636E+02  0.72543309792E+02  0.00000000000E+00 0. -1.
</event>
<event>
 7    1  0.6146596E-006  0.1672521E+03  0.7818608E-02  0.1226529E+00
          2   -1    0    0  502    0  0.00000000000E+00  0.00000000000E+00  0.69676319793E+03  0.69676319793E+03  0.00000000000E+00 0. -1.
          1   -1    0    0  501    0 -0.00000000000E+00 -0.00000000000E+00 -0.36361170947E+03  0.36361170947E+03  0.00000000000E+00 0. -1.
         25    2    1    2    0    0 -0.69507619305E+02 -0.95761233147E+02  0.20104034542E+03  0.26465919981E+03  0.12500299453E+03 0.  0.
          2    1    1    2  501    0  0.16421998523E+03  0.57839787668E+02 -0.30264323914E+03  0.34915122052E+03  0.00000000000E+00 0. -1.
          1    1    1    2  502    0 -0.94712365928E+02  0.37921445479E+02  0.43475438219E+03  0.44656448708E+03  0.00000000000E+00 0. -1.
         22    1    3    3    0    0 -0.43435122987E+02 -0.76448923060E+02  0.33637494724E+02  0.94141004867E+02  0.00000000000E+00 0.  1.
         22    1    3    3    0    0 -0.26072496317E+02 -0.19312310086E+02  0.16740285070E+03  0.17051819494E+03  0.00000000000E+00 0.  1.
</event>
<event>
 7    1  0.6146596E-006  0.9631349E+02  0.7818608E-02  0.1318018E+00
          2   -1    0    0  502    0  0.00000000000E+00  0.00000000000E+00  0.20735502748E+04  0.20735502748E+04  0.00000000000E+00 0. -1.
          1   -1    0    0  501    0 -0.00000000000E+00 -0.00000000000E+00 -0.57358042918E+03  0.57358042918E+03  0.00000000000E+00 0. -1.
         25    2    1    2    0    0  0.24066994041E+02  0.42564930269E+01  0.48221817436E+03  0.49875516870E+03  0.12500005073E+03 0.  0.
          2    1    1    2  501    0 -0.89344901464E+02 -0.37584506597E+02 -0.56030025340E+03  0.56862244109E+03  0.00000000000E+00 0. -1.
          1    1    1    2  502    0  0.65277907422E+02  0.33328013570E+02  0.15780519246E+04  0.15797530942E+04  0.00000000000E+00 0. -1.
         22    1    3    3    0    0  0.55655461589E+02 -0.22505929928E+02  0.41839359673E+03  0.42267865935E+03  0.00000000000E+00 0. -1.
         22    1    3    3    0    0 -0.31588467548E+02  0.26762422955E+02  0.63824577628E+02  0.76076509343E+02  0.00000000000E+00 0. -1.
</event>
<event>
 7    1  0.6146596E-006  0.2913781E+02  0.7818608E-02  0.1646171E+00
          2   -1    0    0  502    0  0.00000000000E+00  0.00000000000E+00  0.23514236906E+03  0.23514236906E+03  0.00000000000E+00 0. -1.
          1   -1    0    0  501    0 -0.00000000000E+00 -0.00000000000E+00 -0.84815422592E+03  0.84815422592E+03  0.00000000000E+00 0. -1.
         25    2    1    2    0    0  0.24025406431E+01 -0.64189280396E+01 -0.28018177730E+02  0.12828753585E+03  0.12500279490E+03 0.  0.
          2    1    1    2  501    0 -0.21314622583E+02  0.20053754030E+02 -0.76898739281E+03  0.76954407053E+03  0.00000000000E+00 0. -1.
          1    1    1    2  502    0  0.18912081940E+02 -0.13634825991E+02  0.18399371368E+03  0.18546498860E+03  0.00000000000E+00 0. -1.
         22    1    3    3    0    0  0.23932411128E+02 -0.26782497466E+02  0.40201390206E+02  0.53909315034E+02  0.00000000000E+00 0.  1.
         22    1    3    3    0    0 -0.21529870485E+02  0.20363569426E+02 -0.68219567936E+02  0.74378220819E+02  0.00000000000E+00 0.  1.
</event>
<event>
 7    1  0.6146596E-006  0.6032887E+02  0.7818608E-02  0.1408592E+00
          2   -1    0    0  502    0  0.00000000000E+00  0.00000000000E+00  0.27702710024E+03  0.27702710024E+03  0.00000000000E+00 0. -1.
          1   -1    0    0  501    0 -0.00000000000E+00 -0.00000000000E+00 -0.69368786385E+03  0.69368786385E+03  0.00000000000E+00 0. -1.
         25    2    1    2    0    0 -0.16192427727E+01  0.23070495023E+02  0.51475317993E+02  0.13714618986E+03  0.12499799735E+03 0.  0.
          2    1    1    2  501    0  0.56439548214E+02 -0.23386596616E+02 -0.64526480401E+03  0.64815046309E+03  0.00000000000E+00 0. -1.
          1    1    1    2  502    0 -0.54820305441E+02  0.31610159308E+00  0.17712872241E+03  0.18541831115E+03  0.00000000000E+00 0. -1.
         22    1    3    3    0    0  0.68786155716E+01  0.32113552823E+02  0.90458359254E+02  0.96235702242E+02  0.00000000000E+00 0.  1.
         22    1    3    3    0    0 -0.84978583443E+01 -0.90430577998E+01 -0.38983041261E+02  0.40910487613E+02  0.00000000000E+00 0.  1.
</event>
<event>
 7    1  0.6146596E-006  0.7218231E+02  0.7818608E-02  0.1456823E+00
          2   -1    0    0  502    0  0.00000000000E+00  0.00000000000E+00  0.13553477610E+03  0.13553477610E+03  0.00000000000E+00 0. -1.
          1   -1    0    0  501    0 -0.00000000000E+00 -0.00000000000E+00 -0.22265252796E+04  0.22265252796E+04  0.00000000000E+00 0. -1.
         25    2    1    2    0    0 -0.19112749718E+02 -0.82965534677E+02 -0.17143956431E+03  0.22862043207E+03  0.12500880209E+03 0.  0.
          2    1    1    2  501    0  0.29484799588E+02  0.11989990395E+02 -0.20143278588E+04  0.20145793199E+04  0.00000000000E+00 0. -1.
          1    1    1    2  502    0 -0.10372049871E+02  0.70975544282E+02  0.94776919650E+02  0.11886030373E+03  0.00000000000E+00 0. -1.
         22    1    3    3    0    0 -0.46647904321E+02 -0.46104231437E+02 -0.17041326947E+03  0.18259876655E+03  0.00000000000E+00 0. -1.
         22    1    3    3    0    0  0.27535154604E+02 -0.36861303240E+02 -0.10262948381E+01  0.46021665514E+02  0.00000000000E+00 0. -1.
</event>
<event>
 7    1  0.6146596E-006  0.1162693E+03  0.7818608E-02  0.1359158E+00
          2   -1    0    0  502    0  0.00000000000E+00  0.00000000000E+00  0.47093285248E+03  0.47093285248E+03  0.00000000000E+00 0. -1.
          1   -1    0    0  501    0 -0.00000000000E+00 -0.00000000000E+00 -0.24308048849E+03  0.24308048849E+03  0.00000000000E+00 0. -1.
         25    2    1    2    0    0  0.74030684462E+02  0.30285317374E+02  0.14870739686E+03  0.21008991904E+03  0.12500456596E+03 0.  0.
          2    1    1    2  501    0 -0.11645066575E+03 -0.28104733380E+02 -0.19372250834E+03  0.22776971667E+03  0.00000000000E+00 0. -1.
          1    1    1    2  502    0  0.42419981284E+02 -0.21805839932E+01  0.27286747548E+03  0.27615370526E+03  0.00000000000E+00 0. -1.
         22    1    3    3    0    0  0.10127517776E+03  0.35726795264E+02  0.14727325663E+03  0.18227034221E+03  0.00000000000E+00 0. -1.
         22    1    3    3    0    0 -0.27244493298E+02 -0.54414778906E+01  0.14341402286E+01  0.27819576828E+02  0.00000000000E+00 0. -1.
</event>
<event>
 7    1  0.6146596E-006  0.6154125E+03  0.7818608E-02  0.1201616E+00
          2   -1    0    0  502    0  0.00000000000E+00  0.00000000000E+00  0.26119990386E+04  0.26119990386E+04  0.00000000000E+00 0. -1.
          1   -1    0    0  501    0 -0.00000000000E+00 -0.00000000000E+00 -0.92320367388E+03  0.92320367388E+03  0.00000000000E+00 0. -1.
         25    2    1    2    0    0  0.44806160067E+03 -0.39344155505E+03  0.12892564079E+03  0.62274056512E+03  0.12501414063E+03 0.  0.
          2    1    1    2  501    0 -0.25219767646E+01 -0.36022536255E+02 -0.63295906774E+03  0.63398830030E+03  0.00000000000E+00 0. -1.
          1    1    1    2  502    0 -0.44553962391E+03  0.42946409130E+03  0.21928287917E+04  0.22784738471E+04  0.00000000000E+00 0. -1.
         22    1    3    3    0    0  0.10190726271E+02  0.44549938564E+01 -0.10044457444E+02  0.14986293656E+02  0.00000000000E+00 0. -1.
         22    1    3    3    0    0  0.43787087440E+03 -0.39789654891E+03  0.13897009823E+03  0.60775427146E+03  0.00000000000E+00 0. -1.
</event>
<event>
 7    1  0.6146596E-006  0.1057569E+03  0.7818608E-02  0.1314058E+00
          2   -1    0    0  502    0  0.00000000000E+00  0.00000000000E+00  0.16850510438E+03  0.16850510438E+03  0.00000000000E+00 0. -1.
          1   -1    0    0  501    0 -0.00000000000E+00 -0.00000000000E+00 -0.71816121111E+03  0.71816121111E+03  0.00000000000E+00 0. -1.
         25    2    1    2    0    0  0.12408059601E+03  0.52259733263E+02  0.12480646417E+02  0.18414391683E+03  0.12500456609E+03 0.  0.
          2    1    1    2  501    0 -0.64124523087E+02  0.25927487175E+02 -0.59473286034E+03  0.59874148363E+03  0.00000000000E+00 0. -1.
          1    1    1    2  502    0 -0.59956072925E+02 -0.78187220439E+02  0.32596107187E+02  0.10378091503E+03  0.00000000000E+00 0. -1.
         22    1    3    3    0    0  0.32724988581E+02  0.44835892959E+02  0.59296202624E+02  0.81223283735E+02  0.00000000000E+00 0. -1.
         22    1    3    3    0    0  0.91355607431E+02  0.74238403042E+01 -0.46815556208E+02  0.10292063310E+03  0.00000000000E+00 0. -1.
</event>
<event>
 7    1  0.6146596E-006  0.1066990E+03  0.7818608E-02  0.1391470E+00
          2   -1    0    0  502    0  0.00000000000E+00  0.00000000000E+00  0.13921688439E+04  0.13921688439E+04  0.00000000000E+00 0. -1.
          1   -1    0    0  501    0 -0.00000000000E+00 -0.00000000000E+00 -0.16595501859E+03  0.16595501859E+03  0.00000000000E+00 0. -1.
         25    2    1    2    0    0  0.86204308927E+02  0.74029952212E+01  0.36460619371E+03  0.39503131956E+03  0.12500431882E+03 0.  0.
          2    1    1    2  501    0  0.23378253431E+02 -0.26711363036E+02 -0.14554539322E+03  0.14981155208E+03  0.00000000000E+00 0. -1.
          1    1    1    2  502    0 -0.10958256236E+03  0.19308367815E+02  0.10071530248E+04  0.10132809908E+04  0.00000000000E+00 0. -1.
         22    1    3    3    0    0  0.30786335931E+02  0.22539957226E+02  0.32008487216E+03  0.32235100983E+03  0.00000000000E+00 0. -1.
         22    1    3    3    0    0  0.55417972996E+02 -0.15136962005E+02  0.44521321555E+02  0.72680309732E+02  0.00000000000E+00 0. -1.
</event>
<event>
 7    1  0.6146596E-006  0.1366281E+03  0.7818608E-02  0.1225256E+00
          2   -1    0    0  502    0  0.00000000000E+00  0.00000000000E+00  0.75344522271E+03  0.75344522271E+03  0.00000000000E+00 0. -1.
          1   -1    0    0  501    0 -0.00000000000E+00 -0.00000000000E+00 -0.18458572030E+03  0.18458572030E+03  0.00000000000E+00 0. -1.
         25    2    1    2    0    0  0.19334690367E+02 -0.21724235773E+03  0.21598094727E+03  0.33142041474E+03  0.12499459780E+03 0.  0.
          2    1    1    2  501    0 -0.74598938241E+02  0.10222817231E+03 -0.83725572849E+02  0.15174179500E+03  0.00000000000E+00 0. -1.
          1    1    1    2  502    0  0.55264247874E+02  0.11501418542E+03  0.43660412799E+03  0.45486873328E+03  0.00000000000E+00 0. -1.
         22    1    3    3    0    0  0.37769524137E+02 -0.20851031629E+02  0.64047056842E+01  0.43615624820E+02  0.00000000000E+00 0.  1.
         22    1    3    3    0    0 -0.18434833771E+02 -0.19639132610E+03  0.20957624158E+03  0.28780478992E+03  0.00000000000E+00 0.  1.
</event>
<event>
 7    1  0.6146596E-006  0.7947226E+02  0.7818608E-02  0.1344545E+00
          2   -1    0    0  502    0  0.00000000000E+00  0.00000000000E+00  0.43264065143E+03  0.43264065143E+03  0.00000000000E+00 0. -1.
          1   -1    0    0  501    0 -0.00000000000E+00 -0.00000000000E+00 -0.60072007908E+03  0.60072007908E+03  0.00000000000E+00 0. -1.
         25    2    1    2    0    0  0.77797973755E+02 -0.26032360436E+02  0.22780040445E+03  0.27248258094E+03  0.12499409641E+03 0.  0.
          2    1    1    2  501    0 -0.19169169875E+01  0.70344109927E+02 -0.56549284922E+03  0.56985448220E+03  0.00000000000E+00 0. -1.
          1    1    1    2  502    0 -0.75881056767E+02 -0.44311749491E+02  0.16961301711E+03  0.19102366736E+03  0.00000000000E+00 0. -1.
         22    1    3    3    0    0  0.14408584548E+02 -0.55203088063E+02  0.33796914114E+02  0.66311534773E+02  0.00000000000E+00 0. -1.
         22    1    3    3    0    0  0.63389389207E+02  0.29170727627E+02  0.19400349034E+03  0.20617104617E+03  0.00000000000E+00 0. -1.
</event>
<event>
 7    1  0.6146596E-006  0.1002137E+03  0.7818608E-02  0.1370867E+00
          2   -1    0    0  502    0  0.00000000000E+00  0.00000000000E+00  0.14806365860E+04  0.14806365860E+04  0.00000000000E+00 0. -1.
          1   -1    0    0  501    0 -0.00000000000E+00 -0.00000000000E+00 -0.46891711042E+03  0.46891711042E+03  0.00000000000E+00 0. -1.
         25    2    1    2    0    0 -0.58547865749E+02 -0.21551502366E+01  0.24691404765E+02  0.14024077603E+03  0.12500125014E+03 0.  0.
          2    1    1    2  501    0 -0.41074559128E+02 -0.17624772913E+02 -0.40807604714E+03  0.41051651889E+03  0.00000000000E+00 0. -1.
          1    1    1    2  502    0  0.99622424878E+02  0.19779923150E+02  0.13951041180E+04  0.13987964015E+04  0.00000000000E+00 0. -1.
         22    1    3    3    0    0 -0.79950801909E+02  0.41000240490E+02  0.14725471801E+02  0.91049382018E+02  0.00000000000E+00 0.  1.
         22    1    3    3    0    0  0.21402936159E+02 -0.43155390726E+02  0.99659329648E+01  0.49191394012E+02  0.00000000000E+00 0.  1.
</event>
<event>
 7    1  0.6146596E-006  0.2005086E+03  0.7818608E-02  0.1170355E+00
          2   -1    0    0  502    0  0.00000000000E+00  0.00000000000E+00  0.48881220372E+03  0.48881220372E+03  0.00000000000E+00 0. -1.
          1   -1    0    0  501    0 -0.00000000000E+00 -0.00000000000E+00 -0.14891705530E+04  0.14891705530E+04  0.00000000000E+00 0. -1.
         25    2    1    2    0    0  0.11108171711E+03  0.33264580136E+02 -0.23897164246E+02  0.17216893712E+03  0.12500155312E+03 0.  0.
          2    1    1    2  501    0 -0.18652103977E+03  0.10434836168E+03 -0.13676870331E+04  0.13842855556E+04  0.00000000000E+00 0. -1.
          1    1    1    2  502    0  0.75439322669E+02 -0.13761294181E+03  0.39122584807E+03  0.42152826401E+03  0.00000000000E+00 0. -1.
         22    1    3    3    0    0  0.10761360235E+03  0.17045230740E+02  0.32246281858E+02  0.11362680140E+03  0.00000000000E+00 0.  1.
         22    1    3    3    0    0  0.34681147554E+01  0.16219349396E+02 -0.56143446104E+02  0.58542135725E+02  0.00000000000E+00 0.  1.
</event>
<event>
 7    1  0.6146596E-006  0.7415168E+02  0.7818608E-02  0.1399715E+00
          2   -1    0    0  502    0  0.00000000000E+00  0.00000000000E+00  0.17930449295E+04  0.17930449295E+04  0.00000000000E+00 0. -1.
          1   -1    0    0  501    0 -0.00000000000E+00 -0.00000000000E+00 -0.17530008787E+03  0.17530008787E+03  0.00000000000E+00 0. -1.
         25    2    1    2    0    0 -0.88904597850E+02  0.78846032972E+01 -0.70320238253E+02  0.16892412661E+03  0.12499692058E+03 0.  0.
          2    1    1    2  501    0  0.56656796900E+02 -0.43207512513E+02 -0.32412905409E+02  0.78278210311E+02  0.00000000000E+00 0. -1.
          1    1    1    2  502    0  0.32247800950E+02  0.35322909216E+02  0.17204779853E+04  0.17211426804E+04  0.00000000000E+00 0. -1.
         22    1    3    3    0    0 -0.11042754213E+03 -0.15325126946E+02 -0.78355425697E+02  0.13626692303E+03  0.00000000000E+00 0. -1.
         22    1    3    3    0    0  0.21522944277E+02  0.23209730243E+02  0.80351874441E+01  0.32657203579E+02  0.00000000000E+00 0. -1.
</event>
<event>
 7    1  0.6146596E-006  0.1044114E+03  0.7818608E-02  0.1298896E+00
          2   -1    0    0  502    0  0.00000000000E+00  0.00000000000E+00  0.22547078606E+04  0.22547078606E+04  0.00000000000E+00 0. -1.
          1   -1    0    0  501    0 -0.00000000000E+00 -0.00000000000E+00 -0.54358579855E+03  0.54358579855E+03  0.00000000000E+00 0. -1.
         25    2    1    2    0    0  0.16541943592E+03  0.15428041793E+02  0.64071308085E+02  0.21755848312E+03  0.12499978722E+03 0.  0.
          2    1    1    2  501    0 -0.91213274410E+02 -0.46514040427E+02 -0.46045140093E+03  0.47169790121E+03  0.00000000000E+00 0. -1.
          1    1    1    2  502    0 -0.74206161507E+02  0.31085998634E+02  0.21075021549E+04  0.21090372748E+04  0.00000000000E+00 0. -1.
         22    1    3    3    0    0  0.11858103114E+03 -0.35886403279E+02  0.78406772284E+02  0.14661826908E+03  0.00000000000E+00 0. -1.
         22    1    3    3    0    0  0.46838404773E+02  0.51314445071E+02 -0.14335464199E+02  0.70940214043E+02  0.00000000000E+00 0. -1.
</event>
<event>
 7    1  0.6146596E-006  0.4700153E+02  0.7818608E-02  0.1550892E+00
          2   -1    0    0  502    0  0.00000000000E+00  0.00000000000E+00  0.69756468217E+02  0.69756468217E+02  0.00000000000E+00 0. -1.
          1   -1    0    0  501    0 -0.00000000000E+00 -0.00000000000E+00 -0.49183119257E+03  0.49183119257E+03  0.00000000000E+00 0. -1.
         25    2    1    2    0    0  0.27316916982E+02 -0.43655414280E+02 -0.25735746678E+03  0.29070454269E+03  0.12499702510E+03 0.  0.
          2    1    1    2  501    0 -0.25457537682E+02 -0.33883712080E+01 -0.20640629462E+03  0.20799789841E+03  0.00000000000E+00 0. -1.
          1    1    1    2  502    0 -0.18593792999E+01  0.47043785488E+02  0.41689037050E+02  0.62885219683E+02  0.00000000000E+00 0. -1.
         22    1    3    3    0    0  0.50440733017E+02 -0.78431594859E+02 -0.17076411659E+03  0.19456661105E+03  0.00000000000E+00 0. -1.
         22    1    3    3    0    0 -0.23123816035E+02  0.34776180578E+02 -0.86593350191E+02  0.96137931645E+02  0.00000000000E+00 0. -1.
</event>
<event>
 7    1  0.6146596E-006  0.1271631E+03  0.7818608E-02  0.1236317E+00
          2   -1    0    0  502    0  0.00000000000E+00  0.00000000000E+00  0.25199921757E+03  0.25199921757E+03  0.00000000000E+00 0. -1.
          1   -1    0    0  501    0 -0.00000000000E+00 -0.00000000000E+00 -0.21097008893E+04  0.21097008893E+04  0.00000000000E+00 0. -1.
         25    2    1    2    0    0 -0.22875198632E+03 -0.91643527040E+02 -0.42728813275E+02  0.27960318958E+03  0.12500473930E+03 0.  0.
          2    1    1    2  501    0  0.11610611350E+03  0.46607033131E+02 -0.19185227552E+04  0.19225978278E+04  0.00000000000E+00 0. -1.
          1    1    1    2  502    0  0.11264587282E+03  0.45036493908E+02  0.10354989673E+03  0.15949908953E+03  0.00000000000E+00 0. -1.
         22    1    3    3    0    0 -0.19826558355E+02  0.15055978443E+02 -0.37424674487E+02  0.44948650297E+02  0.00000000000E+00 0. -1.
         22    1    3    3    0    0 -0.20892542796E+03 -0.10669950548E+03 -0.53041387880E+01  0.23465453929E+03  0.00000000000E+00 0. -1.
</event>
<event>
 7    1  0.6146596E-006  0.1762565E+03  0.7818608E-02  0.1248006E+00
          2   -1    0    0  502    0  0.00000000000E+00  0.00000000000E+00  0.11192104561E+04  0.11192104561E+04  0.00000000000E+00 0. -1.
          1   -1    0    0  501    0 -0.00000000000E+00 -0.00000000000E+00 -0.12101704089E+04  0.12101704089E+04  0.00000000000E+00 0. -1.
         25    2    1    2    0    0 -0.15803892787E+03 -0.53708163112E+02  0.90224521537E+02  0.22721379601E+03  0.12499910121E+03 0.  0.
          2    1    1    2  501    0  0.12617987921E+03  0.12464408029E+03 -0.11331924485E+04  0.11469885065E+04  0.00000000000E+00 0. -1.
          1    1    1    2  502    0  0.31859048664E+02 -0.70935917174E+02  0.95200797414E+03  0.95517856244E+03  0.00000000000E+00 0. -1.
         22    1    3    3    0    0 -0.10968531354E+03  0.21555149639E+02  0.79380954537E+02  0.13710152598E+03  0.00000000000E+00 0. -1.
         22    1    3    3    0    0 -0.48353614329E+02 -0.75263312751E+02  0.10843567000E+02  0.90112270031E+02  0.00000000000E+00 0. -1.
</event>
<event>
 7    1  0.6146596E-006  0.6943205E+02  0.7818608E-02  0.1387491E+00
          2   -1    0    0  502    0  0.00000000000E+00  0.00000000000E+00  0.21357725795E+03  0.21357725795E+03  0.00000000000E+00 0. -1.
          1   -1    0    0  501    0 -0.00000000000E+00 -0.00000000000E+00 -0.64640960335E+03  0.64640960335E+03  0.00000000000E+00 0. -1.
         25    2    1    2    0    0 -0.17228374806E+02  0.10456414567E+02 -0.30195490507E+03  0.32742565956E+03  0.12499857734E+03 0.  0.
          2    1    1    2  501    0 -0.19677377219E+02 -0.69267770311E+02 -0.32161589120E+03  0.32957852578E+03  0.00000000000E+00 0. -1.
          1    1    1    2  502    0  0.36905752025E+02  0.58811355744E+02  0.19073845088E+03  0.20298267596E+03  0.00000000000E+00 0. -1.
         22    1    3    3    0    0 -0.31198976014E+02  0.30242212673E+02 -0.29999520675E+03  0.30312553770E+03  0.00000000000E+00 0. -1.
         22    1    3    3    0    0  0.13970601208E+02 -0.19785798105E+02 -0.19596983190E+01  0.24300121857E+02  0.00000000000E+00 0. -1.
</event>
<event>
 7    1  0.6146596E-006  0.7344364E+02  0.7818608E-02  0.1369260E+00
          2   -1    0    0  502    0  0.00000000000E+00  0.00000000000E+00  0.38909454431E+03  0.38909454431E+03  0.00000000000E+00 0. -1.
          1   -1    0    0  501    0 -0.00000000000E+00 -0.00000000000E+00 -0.52603544724E+03  0.52603544724E+03  0.00000000000E+00 0. -1.
         25    2    1    2    0    0 -0.14436623120E+02 -0.82418836010E+02 -0.20463474339E+03  0.25397109529E+03  0.12499863368E+03 0.  0.
          2    1    1    2  501    0 -0.43747897368E+02  0.61576891853E+02 -0.28922631537E+03  0.29892717112E+03  0.00000000000E+00 0. -1.
          1    1    1    2  502    0  0.58184520487E+02  0.20841944156E+02  0.35692015583E+03  0.36223172514E+03  0.00000000000E+00 0. -1.
         22    1    3    3    0    0 -0.19255891588E+02  0.17643143279E+02 -0.12005524617E+03  0.12286306198E+03  0.00000000000E+00 0. -1.
         22    1    3    3    0    0  0.48192684681E+01 -0.10006197929E+03 -0.84579497214E+02  0.13110803330E+03  0.00000000000E+00 0. -1.
</event>
<event>
 7    1  0.6146596E-006  0.4384269E+02  0.7818608E-02  0.1517223E+00
          2   -1    0    0  502    0  0.00000000000E+00  0.00000000000E+00  0.40764390376E+03  0.40764390376E+03  0.00000000000E+00 0. -1.
          1   -1    0    0  501    0 -0.00000000000E+00 -0.00000000000E+00 -0.85262912544E+03  0.85262912544E+03  0.00000000000E+00 0. -1.
         25    2    1    2    0    0  0.65493649984E+01  0.15750340540E+02 -0.45255751954E+03  0.46981419153E+03  0.12500439457E+03 0.  0.
          2    1    1    2  501    0 -0.36570155477E+02 -0.32422188672E+02 -0.38917322380E+03  0.39222999977E+03  0.00000000000E+00 0. -1.
          1    1    1    2  502    0  0.30020790479E+02  0.16671848132E+02  0.39674552167E+03  0.39822883791E+03  0.00000000000E+00 0. -1.
         22    1    3    3    0    0 -0.40633143001E+02  0.26326659148E+02 -0.75644297204E+02  0.89812053710E+02  0.00000000000E+00 0. -1.
         22    1    3    3    0    0  0.47182507999E+02 -0.10576318608E+02 -0.37691322233E+03  0.38000213782E+03  0.00000000000E+00 0. -1.
</event>
<event>
 7    1  0.6146596E-006  0.8331397E+02  0.7818608E-02  0.1430785E+00
          2   -1    0    0  502    0  0.00000000000E+00  0.00000000000E+00  0.11704268028E+04  0.11704268028E+04  0.00000000000E+00 0. -1.
          1   -1    0    0  501    0 -0.00000000000E+00 -0.00000000000E+00 -0.63266000246E+02  0.63266000246E+02  0.00000000000E+00 0. -1.
         25    2    1    2    0    0  0.27757117705E+02 -0.54745771293E+02  0.37205978232E+03  0.39726678864E+03  0.12499945070E+03 0.  0.
          2    1    1    2  501    0 -0.10851465220E+02 -0.31657103061E+02 -0.42366563323E+02  0.53989370801E+02  0.00000000000E+00 0. -1.
          1    1    1    2  502    0 -0.16905652485E+02  0.86402874354E+02  0.77746758355E+03  0.78243664360E+03  0.00000000000E+00 0. -1.
         22    1    3    3    0    0 -0.31710413066E+02 -0.46152828196E+02  0.29115403785E+03  0.29648997892E+03  0.00000000000E+00 0.  1.
         22    1    3    3    0    0  0.59467530771E+02 -0.85929430961E+01  0.80905744474E+02  0.10077680971E+03  0.00000000000E+00 0.  1.
</event>
<event>
 7    1  0.6146596E-006  0.1068054E+03  0.7818608E-02  0.1330899E+00
          2   -1    0    0  502    0  0.00000000000E+00  0.00000000000E+00  0.70123124687E+03  0.70123124687E+03  0.00000000000E+00 0. -1.
          1   -1    0    0  501    0 -0.00000000000E+00 -0.00000000000E+00 -0.12882870718E+04  0.12882870718E+04  0.00000000000E+00 0. -1.
         25    2    1    2    0    0 -0.72959845197E+02  0.15820978483E+02  0.12106194801E+03  0.18935234047E+03  0.12499948485E+03 0.  0.
          2    1    1    2  501    0  0.77312824675E+02 -0.74616280398E+02 -0.12502394180E+04  0.12548479846E+04  0.00000000000E+00 0. -1.
          1    1    1    2  502    0 -0.43529794786E+01  0.58795301915E+02  0.54212164512E+03  0.54531799353E+03  0.00000000000E+00 0. -1.
         22    1    3    3    0    0  0.97525946698E+01  0.18880735843E+02  0.10229946938E+03  0.10448338013E+03  0.00000000000E+00 0.  1.
         22    1    3    3    0    0 -0.82712439867E+02 -0.30597573601E+01  0.18762478631E+02  0.84868960334E+02  0.00000000000E+00 0.  1.
</event>
<event>
 7    1  0.6146596E-006  0.6204699E+02  0.7818608E-02  0.1398185E+00
          2   -1    0    0  502    0  0.00000000000E+00  0.00000000000E+00  0.99337219140E+02  0.99337219140E+02  0.00000000000E+00 0. -1.
          1   -1    0    0  501    0 -0.00000000000E+00 -0.00000000000E+00 -0.24382902029E+04  0.24382902029E+04  0.00000000000E+00 0. -1.
         25    2    1    2    0    0  0.14049056997E+02 -0.74170528900E+02 -0.10080696333E+04  0.10185910228E+04  0.12499857129E+03 0.  0.
          2    1    1    2  501    0 -0.54218155315E+02  0.32529534804E+02 -0.14152910441E+04  0.14167026923E+04  0.00000000000E+00 0. -1.
          1    1    1    2  502    0  0.40169098318E+02  0.41640994096E+02  0.84407693553E+02  0.10233370696E+03  0.00000000000E+00 0. -1.
         22    1    3    3    0    0 -0.43382234261E+02 -0.71637725659E+02 -0.71895511487E+03  0.72381657841E+03  0.00000000000E+00 0.  1.
         22    1    3    3    0    0  0.57431291258E+02 -0.25328032407E+01 -0.28911451840E+03  0.29477444438E+03  0.00000000000E+00 0.  1.
</event>
<event>
 7    1  0.6146596E-006  0.7926201E+02  0.7818608E-02  0.1408992E+00
          2   -1    0    0  502    0  0.00000000000E+00  0.00000000000E+00  0.23482287307E+04  0.23482287307E+04  0.00000000000E+00 0. -1.
          1   -1    0    0  501    0 -0.00000000000E+00 -0.00000000000E+00 -0.38031583912E+03  0.38031583912E+03  0.00000000000E+00 0. -1.
         25    2    1    2    0    0  0.68696645550E+02 -0.93227966934E+02  0.16048765026E+04  0.16138972454E+04  0.12500018765E+03 0.  0.
          2    1    1    2  501    0 -0.59020769518E+02  0.52773051722E+02 -0.37104013773E+03  0.37939323931E+03  0.00000000000E+00 0. -1.
          1    1    1    2  502    0 -0.96758760314E+01  0.40454915211E+02  0.73407652665E+03  0.73525408514E+03  0.00000000000E+00 0. -1.
         22    1    3    3    0    0 -0.88693767210E+01  0.14434252545E+02  0.40465740895E+02  0.43869005871E+02  0.00000000000E+00 0. -1.
         22    1    3    3    0    0  0.77566022271E+02 -0.10766221948E+03  0.15644107617E+04  0.15700282395E+04  0.00000000000E+00 0. -1.
</event>
<event>
 7    1  0.6146596E-006  0.5184119E+02  0.7818608E-02  0.1437305E+00
          2   -1    0    0  502    0  0.00000000000E+00  0.00000000000E+00  0.17145837784E+03  0.17145837784E+03  0.00000000000E+00 0. -1.
          1   -1    0    0  501    0 -0.00000000000E+00 -0.00000000000E+00 -0.14911208503E+03  0.14911208503E+03  0.00000000000E+00 0. -1.
         25    2    1    2    0    0  0.17084154688E+02 -0.73035805994E+01 -0.60210531919E+02  0.13998530126E+03  0.12500146312E+03 0.  0.
          2    1    1    2  501    0  0.17675232119E+02  0.48734948576E+02 -0.26967770463E+02  0.58436030725E+02  0.00000000000E+00 0. -1.
          1    1    1    2  502    0 -0.34759386806E+02 -0.41431367977E+02  0.10952459519E+03  0.12214913088E+03  0.00000000000E+00 0. -1.
         22    1    3    3    0    0  0.13021801751E+02 -0.56067321552E+02 -0.69435248388E+02  0.90190717846E+02  0.00000000000E+00 0. -1.
         22    1    3    3    0    0  0.40623529370E+01  0.48763740953E+02  0.92247164682E+01  0.49794583411E+02  0.00000000000E+00 0. -1.
</event>
<event>
 7    1  0.6146596E-006  0.7803462E+02  0.7818608E-02  0.1377013E+00
          2   -1    0    0  502    0  0.00000000000E+00  0.00000000000E+00  0.13098645708E+04  0.13098645708E+04  0.00000000000E+00 0. -1.
          1   -1    0    0  501    0 -0.00000000000E+00 -0.00000000000E+00 -0.60242159268E+03  0.60242159268E+03  0.00000000000E+00 0. -1.
         25    2    1    2    0    0  0.33800364291E+02 -0.11143101304E+03 -0.42454529124E+03  0.45762526197E+03  0.12499136283E+03 0.  0.
          2    1    1    2  501    0  0.16622276887E+02  0.51975725423E+02 -0.15550911588E+03  0.16480552552E+03  0.00000000000E+00 0. -1.
          1    1    1    2  502    0 -0.50422641178E+02  0.59455287622E+02  0.12874973852E+04  0.12898553760E+04  0.00000000000E+00 0. -1.
         22    1    3    3    0    0  0.65153443719E+02 -0.55279829040E+02 -0.34453633522E+03  0.35497340325E+03  0.00000000000E+00 0.  1.
         22    1    3    3    0    0 -0.31353079428E+02 -0.56151184005E+02 -0.80008956018E+02  0.10265185872E+03  0.00000000000E+00 0.  1.
</event>
<event>
 7    1  0.6146596E-006  0.3716731E+03  0.7818608E-02  0.1196582E+00
          2   -1    0    0  502    0  0.00000000000E+00  0.00000000000E+00  0.10062589205E+04  0.10062589205E+04  0.00000000000E+00 0. -1.
          1   -1    0    0  501    0 -0.00000000000E+00 -0.00000000000E+00 -0.51410645368E+03  0.51410645368E+03  0.00000000000E+00 0. -1.
         25    2    1    2    0    0  0.31699840736E+03 -0.86483824396E+02  0.17767952546E+03  0.39390735153E+03  0.12500218269E+03 0.  0.
          2    1    1    2  501    0 -0.36349057457E+03  0.12922975324E+03 -0.31240313032E+03  0.49640854420E+03  0.00000000000E+00 0. -1.
          1    1    1    2  502    0  0.46492167215E+02 -0.42745928847E+02  0.62687607173E+03  0.63004947849E+03  0.00000000000E+00 0. -1.
         22    1    3    3    0    0  0.14595215689E+03  0.45622999893E+01  0.12723800841E+03  0.19368107152E+03  0.00000000000E+00 0.  1.
         22    1    3    3    0    0  0.17104625047E+03 -0.91046124385E+02  0.50441517043E+02  0.20022628001E+03  0.00000000000E+00 0.  1.
</event>
<event>
 7    1  0.6146596E-006  0.1539620E+03  0.7818608E-02  0.1327599E+00
          2   -1    0    0  502    0  0.00000000000E+00  0.00000000000E+00  0.33024238599E+03  0.33024238599E+03  0.00000000000E+00 0. -1.
          1   -1    0    0  501    0 -0.00000000000E+00 -0.00000000000E+00 -0.41490339168E+03  0.41490339168E+03  0.00000000000E+00 0. -1.
         25    2    1    2    0    0 -0.65326881453E+02 -0.17241453429E+03 -0.12240505075E+03  0.25417012392E+03  0.12500032947E+03 0.  0.
          2    1    1    2  501    0 -0.87284438962E+01  0.41190133269E+02 -0.20280566668E+03  0.20713027603E+03  0.00000000000E+00 0. -1.
          1    1    1    2  502    0  0.74055325349E+02  0.13122440102E+03  0.24054971174E+03  0.28384537772E+03  0.00000000000E+00 0. -1.
         22    1    3    3    0    0 -0.55630261181E+02 -0.69543156876E+01 -0.41383487664E+02  0.69682720361E+02  0.00000000000E+00 0. -1.
         22    1    3    3    0    0 -0.96966202727E+01 -0.16546021860E+03 -0.81021563090E+02  0.18448740355E+03  0.00000000000E+00 0. -1.
</event>
<event>
 7    1  0.1003214E-005  0.5289297E+02  0.7818608E-02  0.1434599E+00
          2   -1    0    0  502    0  0.00000000000E+00  0.00000000000E+00  0.65879173512E+03  0.65879173512E+03  0.00000000000E+00 0. -1.
          1   -1    0    0  501    0 -0.00000000000E+00 -0.00000000000E+00 -0.20160165978E+04  0.20160165978E+04  0.00000000000E+00 0. -1.
         25    2    1    2    0    0 -0.86766031043E+02  0.57400556155E+02 -0.89746718529E+03  0.91208320862E+03  0.12500105111E+03 0.  0.
          2    1    1    2  501    0  0.42237949987E+02 -0.28966219290E+02 -0.11095786166E+04  0.11107600068E+04  0.00000000000E+00 0. -1.
          1    1    1    2  502    0  0.44528081057E+02 -0.28434336865E+02  0.64982093917E+03  0.65196511755E+03  0.00000000000E+00 0. -1.
         22    1    3    3    0    0 -0.84829176766E+02  0.93432037276E+02 -0.67195472784E+03  0.68370219474E+03  0.00000000000E+00 0. -1.
         22    1    3    3    0    0 -0.19368542774E+01 -0.36031481121E+02 -0.22551245745E+03  0.22838101388E+03  0.00000000000E+00 0. -1.
</event>
<event>
 7    1  0.6146596E-006  0.1362754E+03  0.7818608E-02  0.1414079E+00
          2   -1    0    0  502    0  0.00000000000E+00  0.00000000000E+00  0.21193629522E+03  0.21193629522E+03  0.00000000000E+00 0. -1.
          1   -1    0    0  501    0 -0.00000000000E+00 -0.00000000000E+00 -0.93614137038E+03  0.93614137038E+03  0.00000000000E+00 0. -1.
         25    2    1    2    0    0  0.57847256471E+02 -0.10490811895E+03 -0.31155322715E+03  0.35643145756E+03  0.12500380830E+03 0.  0.
          2    1    1    2  501    0  0.22180253105E+02 -0.69846415212E+01 -0.57691730957E+03  0.57738577305E+03  0.00000000000E+00 0. -1.
          1    1    1    2  502    0 -0.80027509576E+02  0.11189276047E+03  0.16426546156E+03  0.21426043498E+03  0.00000000000E+00 0. -1.
         22    1    3    3    0    0 -0.29430385053E+02 -0.68743713245E+02 -0.17577268643E+03  0.19101801740E+03  0.00000000000E+00 0.  1.
         22    1    3    3    0    0  0.87277641523E+02 -0.36164405705E+02 -0.13578054072E+03  0.16541344017E+03  0.00000000000E+00 0.  1.
</event>
<event>
 7    1  0.6146596E-006  0.9874897E+02  0.7818608E-02  0.1355588E+00
          2   -1    0    0  502    0  0.00000000000E+00  0.00000000000E+00  0.15750259383E+04  0.15750259383E+04  0.00000000000E+00 0. -1.
          1   -1    0    0  501    0 -0.00000000000E+00 -0.00000000000E+00 -0.12381903247E+04  0.12381903247E+04  0.00000000000E+00 0. -1.
         25    2    1    2    0    0  0.67618301070E+02 -0.11459295099E+01  0.13627624868E+03  0.19690040075E+03  0.12500001627E+03 0.  0.
          2    1    1    2  501    0 -0.87771818940E+02 -0.46292075473E+02 -0.12053671832E+04  0.12094448705E+04  0.00000000000E+00 0. -1.
          1    1    1    2  502    0  0.20153517870E+02  0.47438004983E+02  0.14059265482E+04  0.14068709918E+04  0.00000000000E+00 0. -1.
         22    1    3    3    0    0  0.98107172817E+02  0.16064946889E+02  0.68853705823E+02  0.12092945333E+03  0.00000000000E+00 0. -1.
         22    1    3    3    0    0 -0.30488871747E+02 -0.17210876399E+02  0.67422542852E+02  0.75970947418E+02  0.00000000000E+00 0. -1.
</event>
<event>
 7    1  0.6146596E-006  0.4732376E+03  0.7818608E-02  0.1113812E+00
          2   -1    0    0  502    0  0.00000000000E+00  0.00000000000E+00  0.50418079615E+03  0.50418079615E+03  0.00000000000E+00 0. -1.
          1   -1    0    0  501    0 -0.00000000000E+00 -0.00000000000E+00 -0.78053250010E+03  0.78053250010E+03  0.00000000000E+00 0. -1.
         25    2    1    2    0    0  0.64350691955E+02  0.43466748925E+03 -0.83372733087E+02  0.46438709093E+03  0.12501007890E+03 0.  0.
          2    1    1    2  501    0 -0.11182500639E+03  0.68664404167E+02 -0.27823055372E+03  0.30762294042E+03  0.00000000000E+00 0. -1.
          1    1    1    2  502    0  0.47474314438E+02 -0.50333189342E+03  0.85251582856E+02  0.51270326491E+03  0.00000000000E+00 0. -1.
         22    1    3    3    0    0 -0.23839033213E+01  0.16413159848E+03  0.23753576552E+02  0.16585866578E+03  0.00000000000E+00 0. -1.
         22    1    3    3    0    0  0.66734595276E+02  0.27053589077E+03 -0.10712630964E+03  0.29852842515E+03  0.00000000000E+00 0. -1.
</event>
<event>
 7    1  0.6146596E-006  0.1746345E+03  0.7818608E-02  0.1281623E+00
          2   -1    0    0  502    0  0.00000000000E+00  0.00000000000E+00  0.14768760727E+04  0.14768760727E+04  0.00000000000E+00 0. -1.
          1   -1    0    0  501    0 -0.00000000000E+00 -0.00000000000E+00 -0.15260142023E+03  0.15260142023E+03  0.00000000000E+00 0. -1.
         25    2    1    2    0    0  0.10308404407E+03  0.93895202309E+02  0.20451289828E+03  0.27729653639E+03  0.12500085750E+03 0.  0.
          2    1    1    2  501    0 -0.11054182030E+03 -0.14994611672E+03 -0.40419282135E+02  0.19062279592E+03  0.00000000000E+00 0. -1.
          1    1    1    2  502    0  0.74577762309E+01  0.56050914416E+02  0.11601810363E+04  0.11615581606E+04  0.00000000000E+00 0. -1.
         22    1    3    3    0    0  0.12832920977E+03  0.98229919246E+02  0.17848034168E+03  0.24077528005E+03  0.00000000000E+00 0.  1.
         22    1    3    3    0    0 -0.25245165700E+02 -0.43347169369E+01  0.26032556594E+02  0.36521256345E+02  0.00000000000E+00 0.  1.
</event>
<event>
 7    1  0.6146596E-006  0.1091180E+03  0.7818608E-02  0.1429227E+00
          2   -1    0    0  502    0  0.00000000000E+00  0.00000000000E+00  0.65229838884E+02  0.65229838884E+02  0.00000000000E+00 0. -1.
          1   -1    0    0  501    0 -0.00000000000E+00 -0.00000000000E+00 -0.47458460999E+03  0.47458460999E+03  0.00000000000E+00 0. -1.
         25    2    1    2    0    0 -0.11054747431E+03  0.39964513174E+02 -0.12625666192E+03  0.21303402837E+03  0.12499938469E+03 0.  0.
          2    1    1    2  501    0  0.91241975583E+02 -0.57162796689E+02 -0.28090482250E+03  0.30083251609E+03  0.00000000000E+00 0. -1.
          1    1    1    2  502    0  0.19305498730E+02  0.17198283516E+02 -0.21932866905E+01  0.25947904417E+02  0.00000000000E+00 0. -1.
         22    1    3    3    0    0 -0.19063520977E+02  0.30168461070E+02 -0.11491731017E+03  0.12033096880E+03  0.00000000000E+00 0. -1.
         22    1    3    3    0    0 -0.91483953337E+02  0.97960521039E+01 -0.11339351744E+02  0.92703059566E+02  0.00000000000E+00 0. -1.
</event>
<event>
 7    1  0.6146596E-006  0.7532845E+02  0.7818608E-02  0.1406258E+00
          2   -1    0    0  502    0  0.00000000000E+00  0.00000000000E+00  0.23898319809E+03  0.23898319809E+03  0.00000000000E+00 0. -1.
          1   -1    0    0  501    0 -0.00000000000E+00 -0.00000000000E+00 -0.24014970975E+03  0.24014970975E+03  0.00000000000E+00 0. -1.
         25    2    1    2    0    0 -0.46250472751E+02 -0.87399480512E+01  0.87085681422E+02  0.15945509846E+03  0.12500607823E+03 0.  0.
          2    1    1    2  501    0 -0.43333941968E+02  0.11028031435E+02 -0.18351812439E+03  0.18888713557E+03  0.00000000000E+00 0. -1.
          1    1    1    2  502    0  0.89584414719E+02 -0.22880833842E+01  0.95265931308E+02  0.13079067380E+03  0.00000000000E+00 0. -1.
         22    1    3    3    0    0 -0.64279174173E+02 -0.46722590862E+02  0.22854730385E+02  0.82687069304E+02  0.00000000000E+00 0.  1.
         22    1    3    3    0    0  0.18028701422E+02  0.37982642811E+02  0.64230951037E+02  0.76768029159E+02  0.00000000000E+00 0.  1.
</event>
<event>
 7    1  0.6146596E-006  0.1136316E+03  0.7818608E-02  0.1417403E+00
          2   -1    0    0  502    0  0.00000000000E+00  0.00000000000E+00  0.53736950787E+02  0.53736950787E+02  0.00000000000E+00 0. -1.
          1   -1    0    0  501    0 -0.00000000000E+00 -0.00000000000E+00 -0.10819459785E+04  0.10819459785E+04  0.00000000000E+00 0. -1.
         25    2    1    2    0    0 -0.99966217228E+02 -0.10717112137E+02 -0.42909130306E+03  0.45809818905E+03  0.12500601334E+03 0.  0.
          2    1    1    2  501    0  0.11884832976E+03 -0.88330062150E+01 -0.62724775054E+03  0.63846901886E+03  0.00000000000E+00 0. -1.
          1    1    1    2  502    0 -0.18882112535E+02  0.19550118352E+02  0.28130025895E+02  0.39115721369E+02  0.00000000000E+00 0. -1.
         22    1    3    3    0    0 -0.11528923063E+03 -0.42487097142E+02 -0.36226293152E+03  0.38253260211E+03  0.00000000000E+00 0. -1.
         22    1    3    3    0    0  0.15323013404E+02  0.31769985006E+02 -0.66828371537E+02  0.75565586938E+02  0.00000000000E+00 0. -1.
</event>
<event>
 7    1  0.6146596E-006  0.1026559E+03  0.7818608E-02  0.1368584E+00
          2   -1    0    0  502    0  0.00000000000E+00  0.00000000000E+00  0.14354794545E+04  0.14354794545E+04  0.00000000000E+00 0. -1.
          1   -1    0    0  501    0 -0.00000000000E+00 -0.00000000000E+00 -0.26162438967E+03  0.26162438967E+03  0.00000000000E+00 0. -1.
         25    2    1    2    0    0 -0.12916624862E+03  0.92106745604E+01  0.66286208970E+03  0.68686264610E+03  0.12500155330E+03 0.  0.
          2    1    1    2  501    0  0.34387234007E+02 -0.28190836937E+02 -0.24454011938E+03  0.24854994495E+03  0.00000000000E+00 0. -1.
          1    1    1    2  502    0  0.94779014617E+02  0.18980162377E+02  0.75553309448E+03  0.76169125309E+03  0.00000000000E+00 0. -1.
         22    1    3    3    0    0 -0.81942108668E+02  0.34019220626E+02  0.58959618758E+03  0.59623441778E+03  0.00000000000E+00 0. -1.
         22    1    3    3    0    0 -0.47224139957E+02 -0.24808546066E+02  0.73265902126E+02  0.90628228312E+02  0.00000000000E+00 0. -1.
</event>
<event>
 7    1  0.6146596E-006  0.7102084E+02  0.7818608E-02  0.1386114E+00
          2   -1    0    0  502    0  0.00000000000E+00  0.00000000000E+00  0.20313710752E+04  0.20313710752E+04  0.00000000000E+00 0. -1.
          1   -1    0    0  501    0 -0.00000000000E+00 -0.00000000000E+00 -0.13138942201E+04  0.13138942201E+04  0.00000000000E+00 0. -1.
         25    2    1    2    0    0 -0.28025632746E+02 -0.79389968083E+02  0.22108315017E+02  0.15232065703E+03  0.12499840736E+03 0.  0.
          2    1    1    2  501    0  0.54080540909E+02  0.13243619272E+02 -0.12475169751E+04  0.12487588645E+04  0.00000000000E+00 0. -1.
          1    1    1    2  502    0 -0.26054908163E+02  0.66146348810E+02  0.19428855153E+04  0.19441857738E+04  0.00000000000E+00 0. -1.
         22    1    3    3    0    0  0.49769263551E+02 -0.37762180221E+02  0.95321441058E+01  0.63196705774E+02  0.00000000000E+00 0.  1.
         22    1    3    3    0    0 -0.77794896297E+02 -0.41627787862E+02  0.12576170911E+02  0.89123951253E+02  0.00000000000E+00 0.  1.
</event>
<event>
 7    1  0.6146596E-006  0.5934313E+02  0.7818608E-02  0.1426498E+00
          2   -1    0    0  502    0  0.00000000000E+00  0.00000000000E+00  0.19636645493E+03  0.19636645493E+03  0.00000000000E+00 0. -1.
          1   -1    0    0  501    0 -0.00000000000E+00 -0.00000000000E+00 -0.97099635831E+03  0.97099635831E+03  0.00000000000E+00 0. -1.
         25    2    1    2    0    0  0.50592896453E+02 -0.45268408624E+02 -0.28765050666E+03  0.32089941080E+03  0.12499899152E+03 0.  0.
          2    1    1    2  501    0 -0.43233660465E+01  0.59934705483E+02 -0.66205882623E+03  0.66478022670E+03  0.00000000000E+00 0. -1.
          1    1    1    2  502    0 -0.46269530407E+02 -0.14666296860E+02  0.17507942951E+03  0.18168317574E+03  0.00000000000E+00 0. -1.
         22    1    3    3    0    0  0.26460096501E+02  0.41900005644E+02 -0.13030839944E+03  0.13941314911E+03  0.00000000000E+00 0.  1.
         22    1    3    3    0    0  0.24132799952E+02 -0.87168414268E+02 -0.15734210721E+03  0.18148626169E+03  0.00000000000E+00 0.  1.
</event>
<event>
 7    1  0.6146596E-006  0.4486479E+02  0.7818608E-02  0.1582870E+00
          2   -1    0    0  502    0  0.00000000000E+00  0.00000000000E+00  0.10759323611E+04  0.10759323611E+04  0.00000000000E+00 0. -1.
          1   -1    0    0  501    0 -0.00000000000E+00 -0.00000000000E+00 -0.29704296377E+02  0.29704296377E+02  0.00000000000E+00 0. -1.
         25    2    1    2    0    0 -0.36247089272E+02  0.55225963052E+02  0.27775671987E+03  0.31166855132E+03  0.12499892789E+03 0.  0.
          2    1    1    2  501    0  0.12823986220E+02 -0.17886518894E+02 -0.21260286222E+01  0.22111132455E+02  0.00000000000E+00 0. -1.
          1    1    1    2  502    0  0.23423103052E+02 -0.37339444158E+02  0.77059737347E+03  0.77185697370E+03  0.00000000000E+00 0. -1.
         22    1    3    3    0    0 -0.43841466013E+02 -0.16768784642E+02  0.19997434048E+03  0.20540935502E+03  0.00000000000E+00 0.  1.
         22    1    3    3    0    0  0.75943767410E+01  0.71994747695E+02  0.77782379386E+02  0.10625919629E+03  0.00000000000E+00 0.  1.
</event>
<event>
 7    1  0.6146596E-006  0.1404517E+03  0.7818608E-02  0.1218816E+00
          2   -1    0    0  502    0  0.00000000000E+00  0.00000000000E+00  0.22365042785E+04  0.22365042785E+04  0.00000000000E+00 0. -1.
          1   -1    0    0  501    0 -0.00000000000E+00 -0.00000000000E+00 -0.45482665362E+03  0.45482665362E+03  0.00000000000E+00 0. -1.
         25    2    1    2    0    0  0.60396258930E+02 -0.61542904115E+02  0.19114443241E+03  0.24412430808E+03  0.12500098646E+03 0.  0.
          2    1    1    2  501    0  0.46331644464E+02  0.13868414487E+03 -0.41363413060E+03  0.43871757123E+03  0.00000000000E+00 0. -1.
          1    1    1    2  502    0 -0.10672790339E+03 -0.77141240753E+02  0.20041673231E+04  0.20084890528E+04  0.00000000000E+00 0. -1.
         22    1    3    3    0    0  0.84157987271E+02 -0.29238502340E+01  0.13725779681E+03  0.16103048937E+03  0.00000000000E+00 0. -1.
         22    1    3    3    0    0 -0.23761728341E+02 -0.58619053881E+02  0.53886635597E+02  0.83093818709E+02  0.00000000000E+00 0. -1.
</event>
<event>
 7    1  0.6146596E-006  0.8091099E+02  0.7818608E-02  0.1333808E+00
          2   -1    0    0  502    0  0.00000000000E+00  0.00000000000E+00  0.59222059388E+03  0.59222059388E+03  0.00000000000E+00 0. -1.
          1   -1    0    0  501    0 -0.00000000000E+00 -0.00000000000E+00 -0.10102388130E+04  0.10102388130E+04  0.00000000000E+00 0. -1.
         25    2    1    2    0    0  0.65643741227E+02 -0.87489308532E+02  0.62989356968E+02  0.17764237424E+03  0.12500269662E+03 0.  0.
          2    1    1    2  501    0  0.98825607816E+01  0.80328138369E+02 -0.94812801729E+03  0.95157606737E+03  0.00000000000E+00 0. -1.
          1    1    1    2  502    0 -0.75526302008E+02  0.71611701628E+01  0.46712044118E+03  0.47324096529E+03  0.00000000000E+00 0. -1.
         22    1    3    3    0    0  0.84657311363E+02 -0.58547250836E+02  0.87598606761E+02  0.13515974569E+03  0.00000000000E+00 0.  1.
         22    1    3    3    0    0 -0.19013570137E+02 -0.28942057696E+02 -0.24609249793E+02  0.42482628549E+02  0.00000000000E+00 0.  1.
</event>
<event>
 7    1  0.7344563E-006  0.6393157E+02  0.7818608E-02  0.1422707E+00
          2   -1    0    0  502    0  0.00000000000E+00  0.00000000000E+00  0.66074670104E+03  0.66074670104E+03  0.00000000000E+00 0. -1.
          1   -1    0    0  501    0 -0.00000000000E+00 -0.00000000000E+00 -0.10361342039E+04  0.10361342039E+04  0.00000000000E+00 0. -1.
         25    2    1    2    0    0 -0.86147816437E+01  0.23613950280E+02 -0.32773746247E+03  0.35166512679E+03  0.12499873593E+03 0.  0.
          2    1    1    2  501    0 -0.44848821105E+02  0.11812490952E+02 -0.69407208028E+03  0.69561987056E+03  0.00000000000E+00 0. -1.
          1    1    1    2  502    0  0.53463602749E+02 -0.35426441233E+02  0.64642203987E+03  0.64959590761E+03  0.00000000000E+00 0. -1.
         22    1    3    3    0    0  0.25397656969E+02 -0.11036248587E+02 -0.28686441478E+03  0.28819790463E+03  0.00000000000E+00 0. -1.
         22    1    3    3    0    0 -0.34012438613E+02  0.34650198867E+02 -0.40873047689E+02  0.63467222165E+02  0.00000000000E+00 0. -1.
</event>
<event>
 7    1  0.6146596E-006  0.6210411E+02  0.7818608E-02  0.1530136E+00
          2   -1    0    0  502    0  0.00000000000E+00  0.00000000000E+00  0.15902354716E+04  0.15902354716E+04  0.00000000000E+00 0. -1.
          1   -1    0    0  501    0 -0.00000000000E+00 -0.00000000000E+00 -0.40996185755E+03  0.40996185755E+03  0.00000000000E+00 0. -1.
         25    2    1    2    0    0 -0.94603720326E+01 -0.64611251572E+02  0.36083289749E+03  0.38741479622E+03  0.12500292776E+03 0.  0.
          2    1    1    2  501    0 -0.12464812636E+02  0.60844869457E+02 -0.39413718894E+03  0.39900074361E+03  0.00000000000E+00 0. -1.
          1    1    1    2  502    0  0.21925184669E+02  0.37663821144E+01  0.12135779055E+04  0.12137817893E+04  0.00000000000E+00 0. -1.
         22    1    3    3    0    0 -0.54332932561E+01 -0.72095579322E+02  0.36876717884E+03  0.37578787290E+03  0.00000000000E+00 0.  1.
         22    1    3    3    0    0 -0.40270787765E+01  0.74843277497E+01 -0.79342813463E+01  0.11626923317E+02  0.00000000000E+00 0.  1.
</event>
<event>
 7    1  0.1044696E-005  0.9575637E+02  0.7818608E-02  0.1353934E+00
          2   -1    0    0  502    0  0.00000000000E+00  0.00000000000E+00  0.19661163711E+04  0.19661163711E+04  0.00000000000E+00 0. -1.
          1   -1    0    0  501    0 -0.00000000000E+00 -0.00000000000E+00 -0.84194756860E+03  0.84194756860E+03  0.00000000000E+00 0. -1.
         25    2    1    2    0    0 -0.83653614282E+02 -0.65817154381E+02 -0.94556368575E+02  0.18946124969E+03  0.12499933321E+03 0.  0.
          2    1    1    2  501    0  0.95054527762E+02  0.13134324797E+02 -0.69626893343E+03  0.70285012726E+03  0.00000000000E+00 0. -1.
          1    1    1    2  502    0 -0.11400913480E+02  0.52682829584E+02  0.19149941045E+04  0.19157525627E+04  0.00000000000E+00 0. -1.
         22    1    3    3    0    0 -0.40406012312E+02 -0.16948809160E+02  0.27020214333E+02  0.51478150176E+02  0.00000000000E+00 0. -1.
         22    1    3    3    0    0 -0.43247601970E+02 -0.48868345221E+02 -0.12157658291E+03  0.13798309952E+03  0.00000000000E+00 0. -1.
</event>
<event>
 7    1  0.6146596E-006  0.7762099E+02  0.7818608E-02  0.1404308E+00
          2   -1    0    0  502    0  0.00000000000E+00  0.00000000000E+00  0.82311851045E+03  0.82311851045E+03  0.00000000000E+00 0. -1.
          1   -1    0    0  501    0 -0.00000000000E+00 -0.00000000000E+00 -0.38376060842E+02  0.38376060842E+02  0.00000000000E+00 0. -1.
         25    2    1    2    0    0 -0.11518205740E+03 -0.61165697160E+01  0.39232749698E+03  0.42761043330E+03  0.12500199600E+03 0.  0.
          2    1    1    2  501    0  0.71551450974E+02 -0.52005916449E-01  0.46858945731E+02  0.85529957536E+02  0.00000000000E+00 0. -1.
          1    1    1    2  502    0  0.43630606429E+02  0.61685756325E+01  0.34555600690E+03  0.34835418046E+03  0.00000000000E+00 0. -1.
         22    1    3    3    0    0 -0.94236499840E+02  0.46101725109E+02  0.31478906029E+03  0.33181024613E+03  0.00000000000E+00 0. -1.
         22    1    3    3    0    0 -0.20945557563E+02 -0.52218294825E+02  0.77538436693E+02  0.95800187165E+02  0.00000000000E+00 0. -1.
</event>
<event>
 7    1  0.6146596E-006  0.1172146E+03  0.7818608E-02  0.1376119E+00
          2   -1    0    0  502    0  0.00000000000E+00  0.00000000000E+00  0.69213745950E+03  0.69213745950E+03  0.00000000000E+00 0. -1.
          1   -1    0    0  501    0 -0.00000000000E+00 -0.00000000000E+00 -0.77947126371E+02  0.77947126371E+02  0.00000000000E+00 0. -1.
         25    2    1    2    0    0  0.85788802658E+02 -0.12265122346E+03  0.13434621346E+03  0.23680297666E+03  0.12499481351E+03 0.  0.
          2    1    1    2  501    0 -0.21046359259E+02  0.29938839338E+02 -0.36146100108E+01  0.36774294617E+02  0.00000000000E+00 0. -1.
          1    1    1    2  502    0 -0.64742443398E+02  0.92712384126E+02  0.48345872968E+03  0.49650731460E+03  0.00000000000E+00 0. -1.
         22    1    3    3    0    0 -0.10563770322E+02  0.11085868595E+02 -0.95088629524E+01  0.18025210139E+02  0.00000000000E+00 0. -1.
         22    1    3    3    0    0  0.96352572980E+02 -0.13373709206E+03  0.14385507642E+03  0.21877776652E+03  0.00000000000E+00 0. -1.
</event>
<event>
 7    1  0.6146596E-006  0.8199064E+02  0.7818608E-02  0.1407813E+00
          2   -1    0    0  502    0  0.00000000000E+00  0.00000000000E+00  0.48053165865E+03  0.48053165865E+03  0.00000000000E+00 0. -1.
          1   -1    0    0  501    0 -0.00000000000E+00 -0.00000000000E+00 -0.15149023561E+04  0.15149023561E+04  0.00000000000E+00 0. -1.
         25    2    1    2    0    0 -0.95883086800E+01 -0.49744449176E+02  0.26577145843E+02  0.13746842254E+03  0.12499910650E+03 0.  0.
          2    1    1    2  501    0 -0.16514793533E+02  0.80820322502E+02 -0.14572539624E+04  0.14595868504E+04  0.00000000000E+00 0. -1.
          1    1    1    2  502    0  0.26103102213E+02 -0.31075873326E+02  0.39630611913E+03  0.39837874179E+03  0.00000000000E+00 0. -1.
         22    1    3    3    0    0 -0.21097533205E+02  0.34520436531E+02  0.32957734537E+02  0.52182168520E+02  0.00000000000E+00 0.  1.
         22    1    3    3    0    0  0.11509224525E+02 -0.84264885706E+02 -0.63805886939E+01  0.85286254018E+02  0.00000000000E+00 0.  1.
</event>
<event>
 7    1  0.6146596E-006  0.6961986E+02  0.7818608E-02  0.1425633E+00
          2   -1    0    0  502    0  0.00000000000E+00  0.00000000000E+00  0.76931831070E+03  0.76931831070E+03  0.00000000000E+00 0. -1.
          1   -1    0    0  501    0 -0.00000000000E+00 -0.00000000000E+00 -0.37811807844E+03  0.37811807844E+03  0.00000000000E+00 0. -1.
         25    2    1    2    0    0  0.67597558253E+02 -0.28694651379E+01 -0.43850731012E+01  0.14220258973E+03  0.12499873579E+03 0.  0.
          2    1    1    2  501    0 -0.59326764391E+02 -0.37948030302E+02 -0.30012551703E+03  0.30827754370E+03  0.00000000000E+00 0. -1.
          1    1    1    2  502    0 -0.82707938615E+01  0.40817495440E+02  0.69571082239E+03  0.69695625570E+03  0.00000000000E+00 0. -1.
         22    1    3    3    0    0 -0.31006560529E+02 -0.43671623730E+01  0.24147748464E+02  0.39542289500E+02  0.00000000000E+00 0.  1.
         22    1    3    3    0    0  0.98604118781E+02  0.14976972351E+01 -0.28532821565E+02  0.10266030023E+03  0.00000000000E+00 0.  1.
</event>
<event>
 7    1  0.6146596E-006  0.2151536E+03  0.7818608E-02  0.1280612E+00
          2   -1    0    0  502    0  0.00000000000E+00  0.00000000000E+00  0.24086620927E+03  0.24086620927E+03  0.00000000000E+00 0. -1.
          1   -1    0    0  501    0 -0.00000000000E+00 -0.00000000000E+00 -0.22313949183E+04  0.22313949183E+04  0.00000000000E+00 0. -1.
         25    2    1    2    0    0  0.23199236171E+03 -0.67419079824E+02 -0.18589416363E+03  0.32946220739E+03  0.12499167096E+03 0.  0.
          2    1    1    2  501    0 -0.41967710756E+02 -0.19647471174E+02 -0.19087292181E+04  0.19092916330E+04  0.00000000000E+00 0. -1.
          1    1    1    2  502    0 -0.19002465096E+03  0.87066550998E+02  0.10409467270E+03  0.23350728716E+03  0.00000000000E+00 0. -1.
         22    1    3    3    0    0  0.90110317135E+02 -0.90587510161E+02 -0.97200544807E+02  0.16054255561E+03  0.00000000000E+00 0.  1.
         22    1    3    3    0    0  0.14188204458E+03  0.23168430337E+02 -0.88693618825E+02  0.16891965178E+03  0.00000000000E+00 0.  1.
</event>
<event>
 7    1  0.6146596E-006  0.1156391E+03  0.7818608E-02  0.1428269E+00
          2   -1    0    0  502    0  0.00000000000E+00  0.00000000000E+00  0.77643736156E+03  0.77643736156E+03  0.00000000000E+00 0. -1.
          1   -1    0    0  501    0 -0.00000000000E+00 -0.00000000000E+00 -0.83760112779E+03  0.83760112779E+03  0.00000000000E+00 0. -1.
         25    2    1    2    0    0  0.11914279819E+03 -0.18224943059E+02 -0.56949586328E+03  0.59537967893E+03  0.12499707548E+03 0.  0.
          2    1    1    2  501    0 -0.11198016664E+03 -0.52833099160E+01 -0.24263948801E+03  0.26728522636E+03  0.00000000000E+00 0. -1.
          1    1    1    2  502    0 -0.71626315453E+01  0.23508252975E+02  0.75097158507E+03  0.75137358406E+03  0.00000000000E+00 0. -1.
         22    1    3    3    0    0  0.12374709528E+03  0.28139497906E+02 -0.42705150260E+03  0.44550887848E+03  0.00000000000E+00 0.  1.
         22    1    3    3    0    0 -0.46042970861E+01 -0.46364440964E+02 -0.14244436069E+03  0.14987080046E+03  0.00000000000E+00 0.  1.
</event>
<event>
 7    1  0.6146596E-006  0.8679001E+02  0.7818608E-02  0.1450902E+00
          2   -1    0    0  502    0  0.00000000000E+00  0.00000000000E+00  0.11191666767E+03  0.11191666767E+03  0.00000000000E+00 0. -1.
          1   -1    0    0  501    0 -0.00000000000E+00 -0.00000000000E+00 -0.97672116994E+03  0.97672116994E+03  0.00000000000E+00 0. -1.
         25    2    1    2    0    0  0.49914463265E+02  0.98898746589E+02 -0.12246911353E+03  0.20711363390E+03  0.12499983143E+03 0.  0.
          2    1    1    2  501    0 -0.11509116718E+02 -0.25136352588E+02 -0.78675658317E+03  0.78724215916E+03  0.00000000000E+00 0. -1.
          1    1    1    2  502    0 -0.38405346548E+02 -0.73762394001E+02  0.44421194432E+02  0.94282044563E+02  0.00000000000E+00 0. -1.
         22    1    3    3    0    0  0.25817645545E+02  0.12410291452E+03 -0.11563676007E+03  0.17158072297E+03  0.00000000000E+00 0.  1.
         22    1    3    3    0    0  0.24096817721E+02 -0.25204167930E+02 -0.68323534548E+01  0.35532910928E+02  0.00000000000E+00 0.  1.
</event>
<event>
 7    1  0.6146596E-006  0.1008228E+03  0.7818608E-02  0.1368848E+00
          2   -1    0    0  502    0  0.00000000000E+00  0.00000000000E+00  0.20256994480E+04  0.20256994480E+04  0.00000000000E+00 0. -1.
          1   -1    0    0  501    0 -0.00000000000E+00 -0.00000000000E+00 -0.19989954208E+03  0.19989954208E+03  0.00000000000E+00 0. -1.
         25    2    1    2    0    0  0.12251596939E+03  0.74069575746E+02  0.13297730825E+03  0.23195886564E+03  0.12500194412E+03 0.  0.
          2    1    1    2  501    0 -0.42944357631E+02 -0.14020389816E+02 -0.14563561174E+03  0.15248121389E+03  0.00000000000E+00 0. -1.
          1    1    1    2  502    0 -0.79571611759E+02 -0.60049185930E+02  0.18384582094E+04  0.18411589105E+04  0.00000000000E+00 0. -1.
         22    1    3    3    0    0  0.38884129244E+02  0.93851765663E+02  0.53092889230E+02  0.11462540867E+03  0.00000000000E+00 0. -1.
         22    1    3    3    0    0  0.83631840147E+02 -0.19782189917E+02  0.79884419016E+02  0.11733345697E+03  0.00000000000E+00 0. -1.
</event>
<event>
 7    1  0.6146596E-006  0.2109456E+03  0.7818608E-02  0.1318132E+00
          2   -1    0    0  502    0  0.00000000000E+00  0.00000000000E+00  0.27286595660E+03  0.27286595660E+03  0.00000000000E+00 0. -1.
          1   -1    0    0  501    0 -0.00000000000E+00 -0.00000000000E+00 -0.77570129930E+03  0.77570129930E+03  0.00000000000E+00 0. -1.
         25    2    1    2    0    0 -0.22360469157E+03 -0.84703934367E+01 -0.48061873135E+03  0.54469247526E+03  0.12499888812E+03 0.  0.
          2    1    1    2  501    0  0.19495983199E+03  0.25705970888E+02 -0.22473055424E+03  0.29862008479E+03  0.00000000000E+00 0. -1.
          1    1    1    2  502    0  0.28644859580E+02 -0.17235577451E+02  0.20251394288E+03  0.20525469585E+03  0.00000000000E+00 0. -1.
         22    1    3    3    0    0 -0.10722581213E+03  0.40308676020E+02 -0.13667946739E+03  0.17833519269E+03  0.00000000000E+00 0.  1.
         22    1    3    3    0    0 -0.11637887945E+03 -0.48779069457E+02 -0.34393926396E+03  0.36635728257E+03  0.00000000000E+00 0.  1.
</event>
<event>
 7    1  0.6146596E-006  0.8039168E+02  0.7818608E-02  0.1354886E+00
          2   -1    0    0  502    0  0.00000000000E+00  0.00000000000E+00  0.96140416050E+03  0.96140416050E+03  0.00000000000E+00 0. -1.
          1   -1    0    0  501    0 -0.00000000000E+00 -0.00000000000E+00 -0.12790937536E+03  0.12790937536E+03  0.00000000000E+00 0. -1.
         25    2    1    2    0    0 -0.47619077410E+02  0.64153385898E+02  0.38178782697E+03  0.40959747736E+03  0.12499966071E+03 0.  0.
          2    1    1    2  501    0 -0.14043590063E+02 -0.80088686303E+02 -0.97428032750E+02  0.12690012475E+03  0.00000000000E+00 0. -1.
          1    1    1    2  502    0  0.61662667472E+02  0.15935300405E+02  0.54913499092E+03  0.55281593375E+03  0.00000000000E+00 0. -1.
         22    1    3    3    0    0 -0.69714922560E+02  0.87832824960E+02  0.25189638004E+03  0.27572914580E+03  0.00000000000E+00 0. -1.
         22    1    3    3    0    0  0.22095845150E+02 -0.23679439062E+02  0.12989144694E+03  0.13386833156E+03  0.00000000000E+00 0. -1.
</event>
<event>
 7    1  0.6146596E-006  0.2043256E+03  0.7818608E-02  0.1346987E+00
          2   -1    0    0  502    0  0.00000000000E+00  0.00000000000E+00  0.11613722858E+04  0.11613722858E+04  0.00000000000E+00 0. -1.
          1   -1    0    0  501    0 -0.00000000000E+00 -0.00000000000E+00 -0.26316703976E+04  0.26316703976E+04  0.00000000000E+00 0. -1.
         25    2    1    2    0    0  0.15832743673E+03  0.16304853147E+03  0.46034498277E+03  0.52838895448E+03  0.12499993287E+03 0.  0.
          2    1    1    2  501    0 -0.15113843518E+03 -0.13722816065E+03 -0.25933663303E+04  0.26013887287E+04  0.00000000000E+00 0. -1.
          1    1    1    2  502    0 -0.71890015418E+01 -0.25820370823E+02  0.66272323571E+03  0.66326500017E+03  0.00000000000E+00 0. -1.
         22    1    3    3    0    0  0.12421222173E+03  0.46326655973E+02  0.18710095096E+03  0.22930678344E+03  0.00000000000E+00 0.  1.
         22    1    3    3    0    0  0.34115214996E+02  0.11672187550E+03  0.27324403181E+03  0.29908217104E+03  0.00000000000E+00 0.  1.
</event>
<event>
 7    1  0.6146596E-006  0.1784516E+03  0.7818608E-02  0.1229834E+00
          2   -1    0    0  502    0  0.00000000000E+00  0.00000000000E+00  0.45074224489E+03  0.45074224489E+03  0.00000000000E+00 0. -1.
          1   -1    0    0  501    0 -0.00000000000E+00 -0.00000000000E+00 -0.10767269034E+04  0.10767269034E+04  0.00000000000E+00 0. -1.
         25    2    1    2    0    0  0.19662903875E+03 -0.12200467864E+03 -0.15634878305E+03  0.30597355926E+03  0.12500702585E+03 0.  0.
          2    1    1    2  501    0 -0.10559784409E+03  0.13785664410E+03 -0.83077143343E+03  0.84872641858E+03  0.00000000000E+00 0. -1.
          1    1    1    2  502    0 -0.91031194662E+02 -0.15851965459E+02  0.36113555797E+03  0.37276917045E+03  0.00000000000E+00 0. -1.
         22    1    3    3    0    0  0.16893934360E+03 -0.14716828271E+03 -0.14498591142E+03  0.26687060490E+03  0.00000000000E+00 0.  1.
         22    1    3    3    0    0  0.27689695152E+02  0.25163604069E+02 -0.11362871636E+02  0.39102954353E+02  0.00000000000E+00 0.  1.
</event>
<event>
 7    1  0.6146596E-006  0.8290745E+02  0.7818608E-02  0.1449174E+00
          2   -1    0    0  502    0  0.00000000000E+00  0.00000000000E+00  0.10555317418E+04  0.10555317418E+04  0.00000000000E+00 0. -1.
          1   -1    0    0  501    0 -0.00000000000E+00 -0.00000000000E+00 -0.27556200687E+03  0.27556200687E+03  0.00000000000E+00 0. -1.
         25    2    1    2    0    0 -0.44512946964E+02  0.63222459737E+02  0.93103182762E+03  0.94256691674E+03  0.12503458168E+03 0.  0.
          2    1    1    2  501    0  0.68657176498E+02 -0.46602916082E+02 -0.26145593943E+03  0.27430794363E+03  0.00000000000E+00 0. -1.
          1    1    1    2  502    0 -0.24144229534E+02 -0.16619543655E+02  0.11039384674E+03  0.11421888832E+03  0.00000000000E+00 0. -1.
         22    1    3    3    0    0 -0.69960185135E+02  0.13608177050E+00  0.63383576499E+03  0.63768505000E+03  0.00000000000E+00 0. -1.
         22    1    3    3    0    0  0.25447238171E+02  0.63086377967E+02  0.29719606264E+03  0.30488186673E+03  0.00000000000E+00 0. -1.
</event>
<event>
 7    1  0.6146596E-006  0.4708937E+02  0.7818608E-02  0.1502096E+00
          2   -1    0    0  502    0  0.00000000000E+00  0.00000000000E+00  0.10173128724E+04  0.10173128724E+04  0.00000000000E+00 0. -1.
          1   -1    0    0  501    0 -0.00000000000E+00 -0.00000000000E+00 -0.10385938931E+03  0.10385938931E+03  0.00000000000E+00 0. -1.
         25    2    1    2    0    0 -0.41630034252E+02 -0.30800957216E+02  0.24590091957E+03  0.28066729829E+03  0.12500044547E+03 0.  0.
          2    1    1    2  501    0  0.31807496898E+02 -0.15597049715E+02 -0.82066978776E+02  0.89386653502E+02  0.00000000000E+00 0. -1.
          1    1    1    2  502    0  0.98225373538E+01  0.46398006931E+02  0.74961954225E+03  0.75111830986E+03  0.00000000000E+00 0. -1.
         22    1    3    3    0    0 -0.40040164890E+02  0.43108409265E+02  0.82591388887E+02  0.10140457224E+03  0.00000000000E+00 0.  1.
         22    1    3    3    0    0 -0.15898693626E+01 -0.73909366481E+02  0.16330953069E+03  0.17926272605E+03  0.00000000000E+00 0.  1.
</event>
<event>
 7    1  0.6146596E-006  0.9275833E+02  0.7818608E-02  0.1306868E+00
          2   -1    0    0  502    0  0.00000000000E+00  0.00000000000E+00  0.37548961037E+03  0.37548961037E+03  0.00000000000E+00 0. -1.
          1   -1    0    0  501    0 -0.00000000000E+00 -0.00000000000E+00 -0.11988699467E+03  0.11988699467E+03  0.00000000000E+00 0. -1.
         25    2    1    2    0    0 -0.78239407016E+02 -0.43378674982E+02  0.70469395571E+02  0.16909644380E+03  0.12499822935E+03 0.  0.
          2    1    1    2  501    0  0.63120115690E+02 -0.55686950279E+02 -0.29670790035E+02  0.89249880770E+02  0.00000000000E+00 0. -1.
          1    1    1    2  502    0  0.15119291326E+02  0.99065625261E+02  0.21480401017E+03  0.23703028047E+03  0.00000000000E+00 0. -1.
         22    1    3    3    0    0  0.86398518016E+01  0.16442816007E+02  0.60333270566E+02  0.63127781322E+02  0.00000000000E+00 0. -1.
         22    1    3    3    0    0 -0.86879258818E+02 -0.59821490989E+02  0.10136125005E+02  0.10596866248E+03  0.00000000000E+00 0. -1.
</event>
<event>
 7    1  0.6146596E-006  0.4129908E+02  0.7818608E-02  0.1584478E+00
          2   -1    0    0  502    0  0.00000000000E+00  0.00000000000E+00  0.12426393531E+04  0.12426393531E+04  0.00000000000E+00 0. -1.
          1   -1    0    0  501    0 -0.00000000000E+00 -0.00000000000E+00 -0.15059917242E+03  0.15059917242E+03  0.00000000000E+00 0. -1.
         25    2    1    2    0    0 -0.70094221427E+01  0.19753635826E+02 -0.21619092324E+02  0.12857877641E+03  0.12500311382E+03 0.  0.
          2    1    1    2  501    0 -0.21182425436E+02  0.10571297698E+02 -0.73274557103E+02  0.77003949256E+02  0.00000000000E+00 0. -1.
          1    1    1    2  502    0  0.28191847579E+02 -0.30324933524E+02  0.11869338301E+04  0.11876557998E+04  0.00000000000E+00 0. -1.
         22    1    3    3    0    0  0.35348242751E+02 -0.39513330543E+02 -0.16444751374E+01  0.53042491029E+02  0.00000000000E+00 0. -1.
         22    1    3    3    0    0 -0.42357664893E+02  0.59266966369E+02 -0.19974617187E+02  0.75536285383E+02  0.00000000000E+00 0. -1.
</event>
<event>
 7    1  0.6146596E-006  0.1691617E+03  0.7818608E-02  0.1247101E+00
          2   -1    0    0  502    0  0.00000000000E+00  0.00000000000E+00  0.71134206997E+03  0.71134206997E+03  0.00000000000E+00 0. -1.
          1   -1    0    0  501    0 -0.00000000000E+00 -0.00000000000E+00 -0.40869761553E+03  0.40869761553E+03  0.00000000000E+00 0. -1.
         25    2    1    2    0    0 -0.99794506835E+02 -0.19755550103E+03  0.18290958352E+03  0.31315849604E+03  0.12500083326E+03 0.  0.
          2    1    1    2  501    0 -0.93595124151E+01  0.81224309901E+02 -0.32462066827E+03  0.33475896890E+03  0.00000000000E+00 0. -1.
          1    1    1    2  502    0  0.10915401925E+03  0.11633119113E+03  0.44435553919E+03  0.47212222057E+03  0.00000000000E+00 0. -1.
         22    1    3    3    0    0  0.23789443551E+02 -0.28744688607E+02  0.59582365648E+02  0.70301159619E+02  0.00000000000E+00 0. -1.
         22    1    3    3    0    0 -0.12358395039E+03 -0.16881081242E+03  0.12332721787E+03  0.24285733642E+03  0.00000000000E+00 0. -1.
</event>
<event>
 7    1  0.6146596E-006  0.1164698E+03  0.7818608E-02  0.1338200E+00
          2   -1    0    0  502    0  0.00000000000E+00  0.00000000000E+00  0.49683438796E+03  0.49683438796E+03  0.00000000000E+00 0. -1.
          1   -1    0    0  501    0 -0.00000000000E+00 -0.00000000000E+00 -0.14832899505E+04  0.14832899505E+04  0.00000000000E+00 0. -1.
         25    2    1    2    0    0 -0.72845154691E+02 -0.17516125161E+02 -0.47047123113E+03  0.49252534995E+03  0.12499923928E+03 0.  0.
          2    1    1    2  501    0 -0.27771934599E+02 -0.42445436278E+02 -0.99407561940E+03  0.99536889267E+03  0.00000000000E+00 0. -1.
          1    1    1    2  502    0  0.10061708929E+03  0.59961561439E+02  0.47809128804E+03  0.49223009579E+03  0.00000000000E+00 0. -1.
         22    1    3    3    0    0 -0.72030749275E+02  0.43459412720E+02 -0.29494621850E+03  0.30670901715E+03  0.00000000000E+00 0. -1.
         22    1    3    3    0    0 -0.81440541608E+00 -0.60975537881E+02 -0.17552501263E+03  0.18581633280E+03  0.00000000000E+00 0. -1.
</event>
<event>
 7    1  0.6146596E-006  0.4289091E+02  0.7818608E-02  0.1598269E+00
          2   -1    0    0  502    0  0.00000000000E+00  0.00000000000E+00  0.81364726500E+02  0.81364726500E+02  0.00000000000E+00 0. -1.
          1   -1    0    0  501    0 -0.00000000000E+00 -0.00000000000E+00 -0.14256515530E+03  0.14256515530E+03  0.00000000000E+00 0. -1.
         25    2    1    2    0    0  0.24845673152E+02  0.54834508668E+02 -0.27397536476E+02  0.14142585101E+03  0.12500606191E+03 0.  0.
          2    1    1    2  501    0 -0.88054756577E+01 -0.19021444597E+02 -0.37632845662E+02  0.43076476513E+02  0.00000000000E+00 0. -1.
          1    1    1    2  502    0 -0.16040197494E+02 -0.35813064072E+02  0.38299533350E+01  0.39427554279E+02  0.00000000000E+00 0. -1.
         22    1    3    3    0    0 -0.18086909789E+02  0.24789180779E+02  0.43518752378E+02  0.53249615942E+02  0.00000000000E+00 0. -1.
         22    1    3    3    0    0  0.42932582942E+02  0.30045327889E+02 -0.70916288854E+02  0.88176235069E+02  0.00000000000E+00 0. -1.
</event>
<event>
 7    1  0.6146596E-006  0.6169625E+02  0.7818608E-02  0.1453952E+00
          2   -1    0    0  502    0  0.00000000000E+00  0.00000000000E+00  0.10791254596E+02  0.10791254596E+02  0.00000000000E+00 0. -1.
          1   -1    0    0  501    0 -0.00000000000E+00 -0.00000000000E+00 -0.14297506579E+04  0.14297506579E+04  0.00000000000E+00 0. -1.
         25    2    1    2    0    0  0.29568871798E+02 -0.57330529697E+02 -0.94554567527E+03  0.95595097571E+03  0.12499814449E+03 0.  0.
          2    1    1    2  501    0 -0.56717978112E+02  0.30700693750E+02 -0.26492791156E+03  0.27266510587E+03  0.00000000000E+00 0. -1.
          1    1    1    2  502    0  0.27149106314E+02  0.26629835948E+02 -0.20848581643E+03  0.21192583086E+03  0.00000000000E+00 0. -1.
         22    1    3    3    0    0 -0.35471554622E+02 -0.19258964153E+02 -0.63913665483E+03  0.64040987066E+03  0.00000000000E+00 0.  1.
         22    1    3    3    0    0  0.65040426420E+02 -0.38071565544E+02 -0.30640902044E+03  0.31554110505E+03  0.00000000000E+00 0.  1.
</event>
<event>
 7    1  0.6146596E-006  0.5486698E+02  0.7818608E-02  0.1421960E+00
          2   -1    0    0  502    0  0.00000000000E+00  0.00000000000E+00  0.61611586517E+03  0.61611586517E+03  0.00000000000E+00 0. -1.
          1   -1    0    0  501    0 -0.00000000000E+00 -0.00000000000E+00 -0.20172633242E+04  0.20172633242E+04  0.00000000000E+00 0. -1.
         25    2    1    2    0    0 -0.82819333050E+01  0.58213269376E+02  0.46634109008E+03  0.48637055876E+03  0.12499973193E+03 0.  0.
          2    1    1    2  501    0 -0.46433915867E+02 -0.29228013374E+02 -0.19999957216E+04  0.20007481780E+04  0.00000000000E+00 0. -1.
          1    1    1    2  502    0  0.54715849172E+02 -0.28985256002E+02  0.13250717253E+03  0.14626045257E+03  0.00000000000E+00 0. -1.
         22    1    3    3    0    0  0.37745123985E+02  0.77015547721E+02  0.24707288276E+03  0.26153603647E+03  0.00000000000E+00 0.  1.
         22    1    3    3    0    0 -0.46027057290E+02 -0.18802278345E+02  0.21926820732E+03  0.22483452230E+03  0.00000000000E+00 0.  1.
</event>
<event>
 7    1  0.6146596E-006  0.5310582E+02  0.7818608E-02  0.1438520E+00
          2   -1    0    0  502    0  0.00000000000E+00  0.00000000000E+00  0.40984188652E+03  0.40984188652E+03  0.00000000000E+00 0. -1.
          1   -1    0    0  501    0 -0.00000000000E+00 -0.00000000000E+00 -0.33995198085E+03  0.33995198085E+03  0.00000000000E+00 0. -1.
         25    2    1    2    0    0 -0.36963402014E+02 -0.23909932284E+02  0.31908024684E+02  0.13631177053E+03  0.12499919518E+03 0.  0.
          2    1    1    2  501    0  0.39046631764E+02 -0.30473825343E+02 -0.28331319282E+03  0.28761025487E+03  0.00000000000E+00 0. -1.
          1    1    1    2  502    0 -0.20832297499E+01  0.54383757627E+02  0.32129507380E+03  0.32587184197E+03  0.00000000000E+00 0. -1.
         22    1    3    3    0    0  0.11030937417E+01 -0.51850423098E+01  0.75382574657E+02  0.75568737197E+02  0.00000000000E+00 0.  1.
         22    1    3    3    0    0 -0.38066495755E+02 -0.18724889974E+02 -0.43474549974E+02  0.60743033337E+02  0.00000000000E+00 0.  1.
</event>
<event>
 7    1  0.6146596E-006  0.1043760E+03  0.7818608E-02  0.1352583E+00
          2   -1    0    0  502    0  0.00000000000E+00  0.00000000000E+00  0.61404860877E+03  0.61404860877E+03  0.00000000000E+00 0. -1.
          1   -1    0    0  501    0 -0.00000000000E+00 -0.00000000000E+00 -0.69783061565E+03  0.69783061565E+03  0.00000000000E+00 0. -1.
         25    2    1    2    0    0 -0.12578749798E+03 -0.64486586313E+02 -0.77836594148E+02  0.20411741061E+03  0.12499746983E+03 0.  0.
          2    1    1    2  501    0  0.75894761488E+02  0.68072982854E+02 -0.55103243951E+03  0.56038441735E+03  0.00000000000E+00 0. -1.
          1    1    1    2  502    0  0.49892736491E+02 -0.35863965402E+01  0.54508702677E+03  0.54737739646E+03  0.00000000000E+00 0. -1.
         22    1    3    3    0    0 -0.24637905441E+02 -0.66669861869E+02 -0.74387681615E+02  0.10288548995E+03  0.00000000000E+00 0. -1.
         22    1    3    3    0    0 -0.10114959254E+03  0.21832755558E+01 -0.34489125326E+01  0.10123192066E+03  0.00000000000E+00 0. -1.
</event>
<event>
 7    1  0.6146596E-006  0.3118222E+02  0.7818608E-02  0.1644262E+00
          2   -1    0    0  502    0  0.00000000000E+00  0.00000000000E+00  0.10882406195E+04  0.10882406195E+04  0.00000000000E+00 0. -1.
          1   -1    0    0  501    0 -0.00000000000E+00 -0.00000000000E+00 -0.13246196600E+03  0.13246196600E+03  0.00000000000E+00 0. -1.
         25    2    1    2    0    0 -0.13212105712E+01 -0.92768675814E+01  0.18909285947E+02  0.12676643718E+03  0.12499745050E+03 0.  0.
          2    1    1    2  501    0  0.98809821836E+00 -0.22001518439E+02 -0.76743295894E+02  0.79840945739E+02  0.00000000000E+00 0. -1.
          1    1    1    2  502    0  0.33311235284E+00  0.31278386021E+02  0.10136126634E+04  0.10140952025E+04  0.00000000000E+00 0. -1.
         22    1    3    3    0    0  0.20283433790E+02 -0.30742314062E+02 -0.43695287215E+02  0.57147053162E+02  0.00000000000E+00 0.  1.
         22    1    3    3    0    0 -0.21604644361E+02  0.21465446481E+02  0.62604573162E+02  0.69619384021E+02  0.00000000000E+00 0.  1.
</event>
<event>
 7    1  0.6146596E-006  0.1883525E+03  0.7818608E-02  0.1322825E+00
          2   -1    0    0  502    0  0.00000000000E+00  0.00000000000E+00  0.10101749811E+04  0.10101749811E+04  0.00000000000E+00 0. -1.
          1   -1    0    0  501    0 -0.00000000000E+00 -0.00000000000E+00 -0.13451223127E+04  0.13451223127E+04  0.00000000000E+00 0. -1.
         25    2    1    2    0    0  0.10648902984E+03 -0.18904802212E+03 -0.30288197750E-01  0.25040720276E+03  0.12499879252E+03 0.  0.
          2    1    1    2  501    0 -0.62128020982E+00  0.35898924078E+02 -0.12098424452E+04  0.12103750910E+04  0.00000000000E+00 0. -1.
          1    1    1    2  502    0 -0.10586774963E+03  0.15314909804E+03  0.87492540176E+03  0.89451500003E+03  0.00000000000E+00 0. -1.
         22    1    3    3    0    0  0.11182257109E+03 -0.19723105125E+03  0.20521660277E+02  0.22765217663E+03  0.00000000000E+00 0.  1.
         22    1    3    3    0    0 -0.53335412492E+01  0.81830291324E+01 -0.20551948475E+02  0.22755026129E+02  0.00000000000E+00 0.  1.
</event>
<event>
 7    1  0.6146596E-006  0.4480954E+02  0.7818608E-02  0.1499287E+00
          2   -1    0    0  502    0  0.00000000000E+00  0.00000000000E+00  0.26689548749E+04  0.26689548749E+04  0.00000000000E+00 0. -1.
          1   -1    0    0  501    0 -0.00000000000E+00 -0.00000000000E+00 -0.86250616123E+01  0.86250616123E+01  0.00000000000E+00 0. -1.
         25    2    1    2    0    0 -0.37769189200E+02 -0.61609594114E+02  0.99455618562E+03  0.10049818651E+04  0.12499715672E+03 0.  0.
          2    1    1    2  501    0  0.56845957644E+01  0.41336634594E+02  0.13381715267E+03  0.14017154611E+03  0.00000000000E+00 0. -1.
          1    1    1    2  502    0  0.32084593435E+02  0.20272959520E+02  0.15319564750E+04  0.15324265252E+04  0.00000000000E+00 0. -1.
         22    1    3    3    0    0 -0.70710181427E+02 -0.16026086876E+02  0.77323665251E+03  0.77662840921E+03  0.00000000000E+00 0.  1.
         22    1    3    3    0    0  0.32940992227E+02 -0.45583507239E+02  0.22131953311E+03  0.22835345593E+03  0.00000000000E+00 0.  1.
</event>
<event>
 7    1  0.6146596E-006  0.7694498E+02  0.7818608E-02  0.1472704E+00
          2   -1    0    0  502    0  0.00000000000E+00  0.00000000000E+00  0.11759141538E+04  0.11759141538E+04  0.00000000000E+00 0. -1.
          1   -1    0    0  501    0 -0.00000000000E+00 -0.00000000000E+00 -0.16526743084E+04  0.16526743084E+04  0.00000000000E+00 0. -1.
         25    2    1    2    0    0  0.82060763753E+01  0.49729159312E+02  0.47415447947E+03  0.49294007609E+03  0.12500847666E+03 0.  0.
          2    1    1    2  501    0 -0.10901716702E+02 -0.76218819912E+02 -0.16421231631E+04  0.16439272000E+04  0.00000000000E+00 0. -1.
          1    1    1    2  502    0  0.26956403266E+01  0.26489660600E+02  0.69120852908E+03  0.69172118608E+03  0.00000000000E+00 0. -1.
         22    1    3    3    0    0 -0.52754131287E+02  0.34267946769E+02  0.32560689764E+03  0.33162801801E+03  0.00000000000E+00 0. -1.
         22    1    3    3    0    0  0.60960207663E+02  0.15461212543E+02  0.14854758184E+03  0.16131205808E+03  0.00000000000E+00 0. -1.
</event>
<event>
 7    1  0.6146596E-006  0.6451176E+02  0.7818608E-02  0.1399935E+00
          2   -1    0    0  502    0  0.00000000000E+00  0.00000000000E+00  0.30593127263E+03  0.30593127263E+03  0.00000000000E+00 0. -1.
          1   -1    0    0  501    0 -0.00000000000E+00 -0.00000000000E+00 -0.10692553967E+04  0.10692553967E+04  0.00000000000E+00 0. -1.
         25    2    1    2    0    0  0.31471758661E+02 -0.70852604008E+01 -0.52888265433E+02  0.13950927363E+03  0.12499998520E+03 0.  0.
          2    1    1    2  501    0  0.17627290494E+02  0.51972520279E+02 -0.96805403008E+03  0.96960841034E+03  0.00000000000E+00 0. -1.
          1    1    1    2  502    0 -0.49099049156E+02 -0.44887259879E+02  0.25761817144E+03  0.26606898538E+03  0.00000000000E+00 0. -1.
         22    1    3    3    0    0  0.79177154144E+02 -0.15168816872E+02 -0.35606209338E+02  0.88130113395E+02  0.00000000000E+00 0.  1.
         22    1    3    3    0    0 -0.47705395482E+02  0.80835564713E+01 -0.17282056096E+02  0.51379160233E+02  0.00000000000E+00 0.  1.
</event>
<event>
 7    1  0.6146596E-006  0.4594632E+03  0.7818608E-02  0.1102693E+00
          2   -1    0    0  502    0  0.00000000000E+00  0.00000000000E+00  0.25174582473E+04  0.25174582473E+04  0.00000000000E+00 0. -1.
          1   -1    0    0  501    0 -0.00000000000E+00 -0.00000000000E+00 -0.24284370870E+04  0.24284370870E+04  0.00000000000E+00 0. -1.
         25    2    1    2    0    0 -0.12534793679E+03 -0.34572112497E+03  0.17781591305E+03  0.42717550292E+03  0.12500083942E+03 0.  0.
          2    1    1    2  501    0  0.81005588096E+02 -0.13307394438E+03 -0.22749653626E+04  0.22802933980E+04  0.00000000000E+00 0. -1.
          1    1    1    2  502    0  0.44342348690E+02  0.47879506935E+03  0.21861706098E+04  0.22384264334E+04  0.00000000000E+00 0. -1.
         22    1    3    3    0    0 -0.67746853291E+02 -0.28168004892E+03  0.88116083477E+02  0.30281633090E+03  0.00000000000E+00 0.  1.
         22    1    3    3    0    0 -0.57601083495E+02 -0.64041076050E+02  0.89699829577E+02  0.12435917203E+03  0.00000000000E+00 0.  1.
</event>
<event>
 7    1  0.6146596E-006  0.4726812E+02  0.7818608E-02  0.1540270E+00
          2   -1    0    0  502    0  0.00000000000E+00  0.00000000000E+00  0.84655080867E+03  0.84655080867E+03  0.00000000000E+00 0. -1.
          1   -1    0    0  501    0 -0.00000000000E+00 -0.00000000000E+00 -0.12672591489E+04  0.12672591489E+04  0.00000000000E+00 0. -1.
         25    2    1    2    0    0  0.38299905692E+02  0.38201141122E+01  0.49672145560E+03  0.51365202685E+03  0.12499889677E+03 0.  0.
          2    1    1    2  501    0  0.12481164878E+01  0.27322854776E+02 -0.12567885215E+04  0.12570861084E+04  0.00000000000E+00 0. -1.
          1    1    1    2  502    0 -0.39548022180E+02 -0.31142968888E+02  0.33935872568E+03  0.34307182231E+03  0.00000000000E+00 0. -1.
         22    1    3    3    0    0 -0.12624933935E+02 -0.13178682334E+02  0.41781518269E+03  0.41821357404E+03  0.00000000000E+00 0.  1.
         22    1    3    3    0    0  0.50924839627E+02  0.16998796446E+02  0.78906272905E+02  0.95438452813E+02  0.00000000000E+00 0.  1.
</event>
<event>
 7    1  0.6146596E-006  0.1403413E+03  0.7818608E-02  0.1246493E+00
          2   -1    0    0  502    0  0.00000000000E+00  0.00000000000E+00  0.11503953436E+04  0.11503953436E+04  0.00000000000E+00 0. -1.
          1   -1    0    0  501    0 -0.00000000000E+00 -0.00000000000E+00 -0.71864132154E+03  0.71864132154E+03  0.00000000000E+00 0. -1.
         25    2    1    2    0    0 -0.80735134966E+02  0.93940398126E+02 -0.29156874374E+03  0.34055865524E+03  0.12499961966E+03 0.  0.
          2    1    1    2  501    0  0.94828461108E+01 -0.16289648158E+03 -0.38373609331E+03  0.41698750268E+03  0.00000000000E+00 0. -1.
          1    1    1    2  502    0  0.71252288855E+02  0.68956083454E+02  0.11070588591E+04  0.11114905073E+04  0.00000000000E+00 0. -1.
         22    1    3    3    0    0 -0.11195740835E+03  0.76330014401E+02 -0.19419298334E+03  0.23679452519E+03  0.00000000000E+00 0. -1.
         22    1    3    3    0    0  0.31222273387E+02  0.17610383725E+02 -0.97375760407E+02  0.10376413005E+03  0.00000000000E+00 0. -1.
</event>
<event>
 7    1  0.6146596E-006  0.5789229E+02  0.7818608E-02  0.1428047E+00
          2   -1    0    0  502    0  0.00000000000E+00  0.00000000000E+00  0.16454764660E+04  0.16454764660E+04  0.00000000000E+00 0. -1.
          1   -1    0    0  501    0 -0.00000000000E+00 -0.00000000000E+00 -0.54613225943E+02  0.54613225943E+02  0.00000000000E+00 0. -1.
         25    2    1    2    0    0  0.85321402996E+01 -0.98157134327E+02  0.57507718784E+03  0.59669645621E+03  0.12500107379E+03 0.  0.
          2    1    1    2  501    0 -0.21451225036E+02  0.44245875061E+02 -0.29033889185E+02  0.57103583396E+02  0.00000000000E+00 0. -1.
          1    1    1    2  502    0  0.12919084737E+02  0.53911259266E+02  0.10448199414E+04  0.10462896523E+04  0.00000000000E+00 0. -1.
         22    1    3    3    0    0 -0.57362199236E+02 -0.54237738483E+02  0.32097813566E+03  0.33054366996E+03  0.00000000000E+00 0. -1.
         22    1    3    3    0    0  0.65894339535E+02 -0.43919395844E+02  0.25409905218E+03  0.26615278626E+03  0.00000000000E+00 0. -1.
</event>
<event>
 7    1  0.6146596E-006  0.9263109E+02  0.7818608E-02  0.1406906E+00
          2   -1    0    0  502    0  0.00000000000E+00  0.00000000000E+00  0.24168216280E+03  0.24168216280E+03  0.00000000000E+00 0. -1.
          1   -1    0    0  501    0 -0.00000000000E+00 -0.00000000000E+00 -0.11059008280E+04  0.11059008280E+04  0.00000000000E+00 0. -1.
         25    2    1    2    0    0 -0.11254873458E+03  0.52209786786E+02 -0.33173158856E+03  0.37558525583E+03  0.12500143221E+03 0.  0.
          2    1    1    2  501    0  0.77362014487E+02 -0.43797472137E+02 -0.74810356015E+03  0.75336713265E+03  0.00000000000E+00 0. -1.
          1    1    1    2  502    0  0.35186720093E+02 -0.84123146493E+01  0.21561648351E+03  0.21863060232E+03  0.00000000000E+00 0. -1.
         22    1    3    3    0    0 -0.61679848632E+02 -0.37846739493E+02 -0.12544533495E+03  0.14482165404E+03  0.00000000000E+00 0.  1.
         22    1    3    3    0    0 -0.50868885948E+02  0.90056526279E+02 -0.20628625361E+03  0.23076360179E+03  0.00000000000E+00 0.  1.
</event>
<event>
 7    1  0.6146596E-006  0.1117194E+03  0.7818608E-02  0.1315417E+00
          2   -1    0    0  502    0  0.00000000000E+00  0.00000000000E+00  0.19492985118E+04  0.19492985118E+04  0.00000000000E+00 0. -1.
          1   -1    0    0  501    0 -0.00000000000E+00 -0.00000000000E+00 -0.16931070524E+03  0.16931070524E+03  0.00000000000E+00 0. -1.
         25    2    1    2    0    0 -0.42100139827E+02  0.12105079380E+03  0.21962175647E+03  0.28334657771E+03  0.12500340289E+03 0.  0.
          2    1    1    2  501    0 -0.42830925921E+02 -0.48466293609E+02 -0.12788921222E+03  0.14331476000E+03  0.00000000000E+00 0. -1.
          1    1    1    2  502    0  0.84931065747E+02 -0.72584500187E+02  0.16882552623E+04  0.16919478793E+04  0.00000000000E+00 0. -1.
         22    1    3    3    0    0  0.10674807295E+02  0.11471870355E+03  0.10043574438E+03  0.15284525248E+03  0.00000000000E+00 0.  1.
         22    1    3    3    0    0 -0.52774947122E+02  0.63320902439E+01  0.11918601209E+03  0.13050132523E+03  0.00000000000E+00 0.  1.
</event>
<event>
 7    1  0.6146596E-006  0.1967883E+03  0.7818608E-02  0.1292144E+00
          2   -1    0    0  502    0  0.00000000000E+00  0.00000000000E+00  0.28214072918E+04  0.28214072918E+04  0.00000000000E+00 0. -1.
          1   -1    0    0  501    0 -0.00000000000E+00 -0.00000000000E+00 -0.49837868536E+03  0.49837868536E+03  0.00000000000E+00 0. -1.
         25    2    1    2    0    0 -0.15429223421E+03  0.54763863350E+02  0.46689167070E+03  0.51031040791E+03  0.12499482384E+03 0.  0.
          2    1    1    2  501    0 -0.44415930853E+02 -0.96341554055E+01 -0.47112391949E+03  0.47331103873E+03  0.00000000000E+00 0. -1.
          1    1    1    2  502    0  0.19870816506E+03 -0.45129707945E+02  0.23272608552E+04  0.23361645305E+04  0.00000000000E+00 0. -1.
         22    1    3    3    0    0 -0.12242947653E+03  0.86459624427E+02  0.27464539604E+03  0.31288070722E+03  0.00000000000E+00 0. -1.
         22    1    3    3    0    0 -0.31862757670E+02 -0.31695761077E+02  0.19224627466E+03  0.19742970070E+03  0.00000000000E+00 0. -1.
</event>
<event>
 7    1  0.6146596E-006  0.5822483E+02  0.7818608E-02  0.1475693E+00
          2   -1    0    0  502    0  0.00000000000E+00  0.00000000000E+00  0.13761035829E+04  0.13761035829E+04  0.00000000000E+00 0. -1.
          1   -1    0    0  501    0 -0.00000000000E+00 -0.00000000000E+00 -0.11006823376E+03  0.11006823376E+03  0.00000000000E+00 0. -1.
         25    2    1    2    0    0 -0.28248981860E+02  0.17189479267E+02  0.75385750524E+02  0.14967106144E+03  0.12499972831E+03 0.  0.
          2    1    1    2  501    0  0.34110972269E+02 -0.51133320910E+02 -0.59693953435E+02  0.85682804653E+02  0.00000000000E+00 0. -1.
          1    1    1    2  502    0 -0.58619904090E+01  0.33943841643E+02  0.12503435521E+04  0.12508179506E+04  0.00000000000E+00 0. -1.
         22    1    3    3    0    0 -0.91573216214E+01 -0.11200297041E+02 -0.32990351686E+02  0.36023138362E+02  0.00000000000E+00 0.  1.
         22    1    3    3    0    0 -0.19091660239E+02  0.28389776309E+02  0.10837610221E+03  0.11364792308E+03  0.00000000000E+00 0.  1.
</event>
<event>
 7    1  0.6146596E-006  0.3299620E+02  0.7818608E-02  0.1615725E+00
          2   -1    0    0  502    0  0.00000000000E+00  0.00000000000E+00  0.19079977783E+04  0.19079977783E+04  0.00000000000E+00 0. -1.
          1   -1    0    0  501    0 -0.00000000000E+00 -0.00000000000E+00 -0.28766777908E+03  0.28766777908E+03  0.00000000000E+00 0. -1.
         25    2    1    2    0    0 -0.43388720985E+02 -0.24278085708E+02  0.86441129545E+03  0.87481678069E+03  0.12500202202E+03 0.  0.
          2    1    1    2  501    0  0.32918080881E+02  0.20697574996E+01 -0.28135641789E+03  0.28328310545E+03  0.00000000000E+00 0. -1.
          1    1    1    2  502    0  0.10470640104E+02  0.22208328209E+02  0.10372751216E+04  0.10375656712E+04  0.00000000000E+00 0. -1.
         22    1    3    3    0    0 -0.52214911752E+00  0.47559554162E+02  0.22621156866E+03  0.23115764670E+03  0.00000000000E+00 0. -1.
         22    1    3    3    0    0 -0.42866571867E+02 -0.71837639870E+02  0.63819972680E+03  0.64365913399E+03  0.00000000000E+00 0. -1.
</event>
<event>
 7    1  0.6146596E-006  0.6755855E+02  0.7818608E-02  0.1441237E+00
          2   -1    0    0  502    0  0.00000000000E+00  0.00000000000E+00  0.31191158593E+04  0.31191158593E+04  0.00000000000E+00 0. -1.
          1   -1    0    0  501    0 -0.00000000000E+00 -0.00000000000E+00 -0.14340487268E+03  0.14340487268E+03  0.00000000000E+00 0. -1.
         25    2    1    2    0    0 -0.21999229806E+02 -0.10187839330E+03  0.44894652917E+03  0.47753833498E+03  0.12500680855E+03 0.  0.
          2    1    1    2  501    0  0.20156664529E+02  0.63770776334E+02 -0.12030097953E+03  0.13764203106E+03  0.00000000000E+00 0. -1.
          1    1    1    2  502    0  0.18425652774E+01  0.38107616971E+02  0.26470654369E+04  0.26473403659E+04  0.00000000000E+00 0. -1.
         22    1    3    3    0    0 -0.13711061408E+02 -0.90783957063E+02  0.45369999982E+03  0.46289675944E+03  0.00000000000E+00 0.  1.
         22    1    3    3    0    0 -0.82881683980E+01 -0.11094436242E+02 -0.47534706497E+01  0.14641575534E+02  0.00000000000E+00 0.  1.
</event>
<event>
 7    1  0.6146596E-006  0.6358479E+02  0.7818608E-02  0.1533092E+00
          2   -1    0    0  502    0  0.00000000000E+00  0.00000000000E+00  0.80304277073E+03  0.80304277073E+03  0.00000000000E+00 0. -1.
          1   -1    0    0  501    0 -0.00000000000E+00 -0.00000000000E+00 -0.14309021368E+03  0.14309021368E+03  0.00000000000E+00 0. -1.
         25    2    1    2    0    0  0.76827569911E+02  0.15079627396E+02  0.53548996746E+03  0.55542323797E+03  0.12496238381E+03 0.  0.
          2    1    1    2  501    0 -0.21038651733E+02  0.33867929064E+01 -0.12888557797E+03  0.13063532233E+03  0.00000000000E+00 0. -1.
          1    1    1    2  502    0 -0.55788918178E+02 -0.18466420302E+02  0.25334816756E+03  0.26007442411E+03  0.00000000000E+00 0. -1.
         22    1    3    3    0    0  0.26079065285E+02 -0.15343587463E+02  0.45244341711E+03  0.45345406494E+03  0.00000000000E+00 0. -1.
         22    1    3    3    0    0  0.50748504627E+02  0.30423214859E+02  0.83046550348E+02  0.10196917303E+03  0.00000000000E+00 0. -1.
</event>
<event>
 7    1  0.6146596E-006  0.7293181E+02  0.7818608E-02  0.1437682E+00
          2   -1    0    0  502    0  0.00000000000E+00  0.00000000000E+00  0.52992896985E+02  0.52992896985E+02  0.00000000000E+00 0. -1.
          1   -1    0    0  501    0 -0.00000000000E+00 -0.00000000000E+00 -0.74460989243E+03  0.74460989243E+03  0.00000000000E+00 0. -1.
         25    2    1    2    0    0  0.30252481783E+02 -0.98023862393E+02 -0.55041230088E+03  0.57367457769E+03  0.12499971951E+03 0.  0.
          2    1    1    2  501    0 -0.24337137519E+02  0.26924162873E+02 -0.14788258034E+03  0.15227102277E+03  0.00000000000E+00 0. -1.
          1    1    1    2  502    0 -0.59153442645E+01  0.71099699520E+02  0.66778857725E+01  0.71657188949E+02  0.00000000000E+00 0. -1.
         22    1    3    3    0    0 -0.17586195117E+02  0.24387088912E+02 -0.91472614047E+02  0.96287296591E+02  0.00000000000E+00 0.  1.
         22    1    3    3    0    0  0.47838676900E+02 -0.12241095130E+03 -0.45893968683E+03  0.47738728110E+03  0.00000000000E+00 0.  1.
</event>
<event>
 7    1  0.6146596E-006  0.7145445E+02  0.7818608E-02  0.1362221E+00
          2   -1    0    0  502    0  0.00000000000E+00  0.00000000000E+00  0.17042268826E+04  0.17042268826E+04  0.00000000000E+00 0. -1.
          1   -1    0    0  501    0 -0.00000000000E+00 -0.00000000000E+00 -0.14679323854E+03  0.14679323854E+03  0.00000000000E+00 0. -1.
         25    2    1    2    0    0  0.40645168602E+02  0.68480429363E+02  0.10809892889E+04  0.10911014065E+04  0.12499135070E+03 0.  0.
          2    1    1    2  501    0  0.26687524696E+02 -0.66491249993E+02 -0.13069960137E+03  0.14904930761E+03  0.00000000000E+00 0. -1.
          1    1    1    2  502    0 -0.67332693298E+02 -0.19891793705E+01  0.60714395657E+03  0.61086940701E+03  0.00000000000E+00 0. -1.
         22    1    3    3    0    0 -0.12866314153E+02  0.34628454882E+02  0.87075956122E+03  0.87154281902E+03  0.00000000000E+00 0. -1.
         22    1    3    3    0    0  0.53511482755E+02  0.33851974481E+02  0.21022972763E+03  0.21955858750E+03  0.00000000000E+00 0. -1.
</event>
<event>
 7    1  0.6146596E-006  0.1580937E+03  0.7818608E-02  0.1278901E+00
          2   -1    0    0  502    0  0.00000000000E+00  0.00000000000E+00  0.71159229961E+03  0.71159229961E+03  0.00000000000E+00 0. -1.
          1   -1    0    0  501    0 -0.00000000000E+00 -0.00000000000E+00 -0.18429792981E+04  0.18429792981E+04  0.00000000000E+00 0. -1.
         25    2    1    2    0    0  0.52107708515E+02 -0.11340688077E+03 -0.61351613629E+02  0.18699057019E+03  0.12500047581E+03 0.  0.
          2    1    1    2  501    0 -0.11615742497E+03  0.11088550953E+03 -0.17134613692E+04  0.17209700774E+04  0.00000000000E+00 0. -1.
          1    1    1    2  502    0  0.64049716459E+02  0.25213712465E+01  0.64342598434E+03  0.64661095012E+03  0.00000000000E+00 0. -1.
         22    1    3    3    0    0 -0.10698764698E+02 -0.14178605165E+02 -0.67104080822E+02  0.69415085345E+02  0.00000000000E+00 0.  1.
         22    1    3    3    0    0  0.62806473214E+02 -0.99228275607E+02  0.57524671928E+01  0.11757548484E+03  0.00000000000E+00 0.  1.
</event>
<event>
 7    1  0.6146596E-006  0.3436177E+02  0.7818608E-02  0.1618263E+00
          2   -1    0    0  502    0  0.00000000000E+00  0.00000000000E+00  0.33860000481E+03  0.33860000481E+03  0.00000000000E+00 0. -1.
          1   -1    0    0  501    0 -0.00000000000E+00 -0.00000000000E+00 -0.35933710923E+03  0.35933710923E+03  0.00000000000E+00 0. -1.
         25    2    1    2    0    0  0.30713941232E+01 -0.39467239602E+02  0.10022696877E+03  0.16503896741E+03  0.12500127611E+03 0.  0.
          2    1    1    2  501    0 -0.22180882334E+02  0.26263293897E+02 -0.32536786779E+03  0.32717885253E+03  0.00000000000E+00 0. -1.
          1    1    1    2  502    0  0.19109488210E+02  0.13203945704E+02  0.20440379460E+03  0.20571929411E+03  0.00000000000E+00 0. -1.
         22    1    3    3    0    0 -0.23866082115E+02 -0.69951402664E+02  0.22415476676E+02  0.77234980448E+02  0.00000000000E+00 0.  1.
         22    1    3    3    0    0  0.26937476239E+02  0.30484163062E+02  0.77811492098E+02  0.87803986961E+02  0.00000000000E+00 0.  1.
</event>
<event>
 7    1  0.6146596E-006  0.5653799E+02  0.7818608E-02  0.1467022E+00
          2   -1    0    0  502    0  0.00000000000E+00  0.00000000000E+00  0.44662164007E+03  0.44662164007E+03  0.00000000000E+00 0. -1.
          1   -1    0    0  501    0 -0.00000000000E+00 -0.00000000000E+00 -0.46007735683E+03  0.46007735683E+03  0.00000000000E+00 0. -1.
         25    2    1    2    0    0 -0.45184985189E+01  0.19004540492E+02 -0.29672029239E+03  0.32257060731E+03  0.12500910125E+03 0.  0.
          2    1    1    2  501    0 -0.18631809083E+02  0.32823311870E+02 -0.14616712344E+03  0.15096139270E+03  0.00000000000E+00 0. -1.
          1    1    1    2  502    0  0.23150307602E+02 -0.51827852362E+02  0.42943169907E+03  0.43316699688E+03  0.00000000000E+00 0. -1.
         22    1    3    3    0    0 -0.33022520145E+02  0.50393014339E+02 -0.25869312320E+03  0.26561640522E+03  0.00000000000E+00 0. -1.
         22    1    3    3    0    0  0.28504021626E+02 -0.31388473847E+02 -0.38027169193E+02  0.56954202094E+02  0.00000000000E+00 0. -1.
</event>
<event>
 7    1  0.6146596E-006  0.4482721E+02  0.7818608E-02  0.1483028E+00
          2   -1    0    0  502    0  0.00000000000E+00  0.00000000000E+00  0.16956621987E+03  0.16956621987E+03  0.00000000000E+00 0. -1.
          1   -1    0    0  501    0 -0.00000000000E+00 -0.00000000000E+00 -0.15011312096E+04  0.15011312096E+04  0.00000000000E+00 0. -1.
         25    2    1    2    0    0  0.50872952217E+01  0.50000875799E+02 -0.17094417338E+03  0.21765232325E+03  0.12499862100E+03 0.  0.
          2    1    1    2  501    0 -0.37931233464E+02 -0.19125763583E+02 -0.13030041771E+04  0.13036964596E+04  0.00000000000E+00 0. -1.
          1    1    1    2  502    0  0.32843938242E+02 -0.30875112216E+02  0.14238336073E+03  0.14934864662E+03  0.00000000000E+00 0. -1.
         22    1    3    3    0    0 -0.56180064317E+02  0.90726624008E+00 -0.69182944825E+02  0.89125207508E+02  0.00000000000E+00 0. -1.
         22    1    3    3    0    0  0.61267359538E+02  0.49093609559E+02 -0.10176122856E+03  0.12852711575E+03  0.00000000000E+00 0. -1.
</event>
<event>
 7    1  0.6146596E-006  0.4875352E+02  0.7818608E-02  0.1454020E+00
          2   -1    0    0  502    0  0.00000000000E+00  0.00000000000E+00  0.14026977712E+03  0.14026977712E+03  0.00000000000E+00 0. -1.
          1   -1    0    0  501    0 -0.00000000000E+00 -0.00000000000E+00 -0.67735424288E+03  0.67735424288E+03  0.00000000000E+00 0. -1.
         25    2    1    2    0    0  0.23747024103E+02 -0.11799734961E+02 -0.15216457315E+03  0.19870150661E+03  0.12500030603E+03 0.  0.
          2    1    1    2  501    0 -0.35557413916E+02 -0.35501641462E+02 -0.49551613261E+03  0.49805715928E+03  0.00000000000E+00 0. -1.
          1    1    1    2  502    0  0.11810389813E+02  0.47301376423E+02  0.11059624001E+03  0.12086535411E+03  0.00000000000E+00 0. -1.
         22    1    3    3    0    0  0.58162970680E+02 -0.49732650456E+02 -0.88804979308E+02  0.11722880205E+03  0.00000000000E+00 0. -1.
         22    1    3    3    0    0 -0.34415946576E+02  0.37932915495E+02 -0.63359593845E+02  0.81472704564E+02  0.00000000000E+00 0. -1.
</event>
<event>
 7    1  0.6146596E-006  0.1122657E+03  0.7818608E-02  0.1260284E+00
          2   -1    0    0  502    0  0.00000000000E+00  0.00000000000E+00  0.25248813649E+04  0.25248813649E+04  0.00000000000E+00 0. -1.
          1   -1    0    0  501    0 -0.00000000000E+00 -0.00000000000E+00 -0.24873037830E+03  0.24873037830E+03  0.00000000000E+00 0. -1.
         25    2    1    2    0    0 -0.14668614053E+02 -0.42011863743E+02  0.76855134158E+03  0.77992153469E+03  0.12500508265E+03 0.  0.
          2    1    1    2  501    0 -0.52999214576E+02 -0.94197176397E+02 -0.22753575109E+03  0.25190185155E+03  0.00000000000E+00 0. -1.
          1    1    1    2  502    0  0.67667828629E+02  0.13620904014E+03  0.17351353961E+04  0.17417883570E+04  0.00000000000E+00 0. -1.
         22    1    3    3    0    0 -0.14501465743E+00  0.44527882949E+02  0.28849133934E+03  0.29190753033E+03  0.00000000000E+00 0.  1.
         22    1    3    3    0    0 -0.14523599396E+02 -0.86539746692E+02  0.48006000224E+03  0.48801400435E+03  0.00000000000E+00 0.  1.
</event>
<event>
 7    1  0.6146596E-006  0.1048238E+03  0.7818608E-02  0.1394518E+00
          2   -1    0    0  502    0  0.00000000000E+00  0.00000000000E+00  0.19295758667E+03  0.19295758667E+03  0.00000000000E+00 0. -1.
          1   -1    0    0  501    0 -0.00000000000E+00 -0.00000000000E+00 -0.64200007269E+03  0.64200007269E+03  0.00000000000E+00 0. -1.
         25    2    1    2    0    0 -0.11497032307E+03  0.30228992019E+02  0.24592067864E+02  0.17424666618E+03  0.12500065491E+03 0.  0.
          2    1    1    2  501    0  0.14137409267E+02 -0.32303312209E+02 -0.53924292910E+03  0.54039458445E+03  0.00000000000E+00 0. -1.
          1    1    1    2  502    0  0.10083291380E+03  0.20743201893E+01  0.65608375213E+02  0.12031640873E+03  0.00000000000E+00 0. -1.
         22    1    3    3    0    0 -0.14198447422E+03  0.28748201623E+02  0.25889576053E+02  0.14716086492E+03  0.00000000000E+00 0.  1.
         22    1    3    3    0    0  0.27014151149E+02  0.14807903961E+01 -0.12975081891E+01  0.27085801262E+02  0.00000000000E+00 0.  1.
</event>
<event>
 7    1  0.6146596E-006  0.1959638E+03  0.7818608E-02  0.1358855E+00
          2   -1    0    0  502    0  0.00000000000E+00  0.00000000000E+00  0.24551592688E+04  0.24551592688E+04  0.00000000000E+00 0. -1.
          1   -1    0    0  501    0 -0.00000000000E+00 -0.00000000000E+00 -0.38777563660E+03  0.38777563660E+03  0.00000000000E+00 0. -1.
         25    2    1    2    0    0 -0.28912544939E+02 -0.21281152257E+03  0.25958749375E+03  0.35935411249E+03  0.12500012742E+03 0.  0.
          2    1    1    2  501    0 -0.11203677881E+02  0.22646440628E+02 -0.33301185664E+03  0.33396898109E+03  0.00000000000E+00 0. -1.
          1    1    1    2  502    0  0.40116222821E+02  0.19016508195E+03  0.21408079951E+04  0.21496118118E+04  0.00000000000E+00 0. -1.
         22    1    3    3    0    0 -0.44072648501E+02 -0.19020922857E+03  0.14938583895E+03  0.24584157065E+03  0.00000000000E+00 0. -1.
         22    1    3    3    0    0  0.15160103562E+02 -0.22602294002E+02  0.11020165480E+03  0.11351254184E+03  0.00000000000E+00 0. -1.
</event>
<event>
 7    1  0.6146596E-006  0.9203438E+02  0.7818608E-02  0.1368531E+00
          2   -1    0    0  502    0  0.00000000000E+00  0.00000000000E+00  0.41872923063E+03  0.41872923063E+03  0.00000000000E+00 0. -1.
          1   -1    0    0  501    0 -0.00000000000E+00 -0.00000000000E+00 -0.54059756370E+03  0.54059756370E+03  0.00000000000E+00 0. -1.
         25    2    1    2    0    0  0.55573867571E+02  0.20851512566E+02 -0.10451815836E+03  0.17341621595E+03  0.12500359272E+03 0.  0.
          2    1    1    2  501    0 -0.71452637853E+02 -0.67861636982E+02 -0.39393378934E+03  0.40607205224E+03  0.00000000000E+00 0. -1.
          1    1    1    2  502    0  0.15878770282E+02  0.47010124416E+02  0.37658361462E+03  0.37983852614E+03  0.00000000000E+00 0. -1.
         22    1    3    3    0    0 -0.27521236867E+02  0.42824794726E+01  0.11177726284E+02  0.30011658968E+02  0.00000000000E+00 0.  1.
         22    1    3    3    0    0  0.83095104438E+02  0.16569033094E+02 -0.11569588464E+03  0.14340455698E+03  0.00000000000E+00 0.  1.
</event>
<event>
 7    1  0.6146596E-006  0.1460890E+03  0.7818608E-02  0.1273551E+00
          2   -1    0    0  502    0  0.00000000000E+00  0.00000000000E+00  0.26481391090E+03  0.26481391090E+03  0.00000000000E+00 0. -1.
          1   -1    0    0  501    0 -0.00000000000E+00 -0.00000000000E+00 -0.76767038321E+03  0.76767038321E+03  0.00000000000E+00 0. -1.
         25    2    1    2    0    0  0.54476720747E+02  0.17528684729E+03 -0.16242124620E+02  0.22267117716E+03  0.12500181835E+03 0.  0.
          2    1    1    2  501    0  0.31234835734E+02 -0.65993216452E+02 -0.61580875970E+03  0.62012188165E+03  0.00000000000E+00 0. -1.
          1    1    1    2  502    0 -0.85711556481E+02 -0.10929363083E+03  0.12919441201E+03  0.18969123530E+03  0.00000000000E+00 0. -1.
         22    1    3    3    0    0  0.52704258378E+02  0.64586715633E+01 -0.49374285122E+00  0.53100819877E+02  0.00000000000E+00 0. -1.
         22    1    3    3    0    0  0.17724623690E+01  0.16882817572E+03 -0.15748381768E+02  0.16957035728E+03  0.00000000000E+00 0. -1.
</event>
<event>
 7    1  0.6146596E-006  0.9940011E+02  0.7818608E-02  0.1336638E+00
          2   -1    0    0  502    0  0.00000000000E+00  0.00000000000E+00  0.51284250841E+03  0.51284250841E+03  0.00000000000E+00 0. -1.
          1   -1    0    0  501    0 -0.00000000000E+00 -0.00000000000E+00 -0.79510589390E+03  0.79510589390E+03  0.00000000000E+00 0. -1.
         25    2    1    2    0    0  0.62383945486E+02  0.14345352824E+03 -0.77709274397E+02  0.21479105622E+03  0.12500318030E+03 0.  0.
          2    1    1    2  501    0 -0.42230228287E+02 -0.86677054604E+02 -0.64320348179E+03  0.65038990072E+03  0.00000000000E+00 0. -1.
          1    1    1    2  502    0 -0.20153717198E+02 -0.56776473633E+02  0.43864937069E+03  0.44276744537E+03  0.00000000000E+00 0. -1.
         22    1    3    3    0    0  0.70870544192E+02  0.33013872623E+02  0.21936117456E+01  0.78213565013E+02  0.00000000000E+00 0. -1.
         22    1    3    3    0    0 -0.84865987062E+01  0.11043965561E+03 -0.79902886143E+02  0.13657749121E+03  0.00000000000E+00 0. -1.
</event>
<event>
 7    1  0.6146596E-006  0.3302464E+02  0.7818608E-02  0.1582526E+00
          2   -1    0    0  502    0  0.00000000000E+00  0.00000000000E+00  0.69371160153E+03  0.69371160153E+03  0.00000000000E+00 0. -1.
          1   -1    0    0  501    0 -0.00000000000E+00 -0.00000000000E+00 -0.37209919782E+03  0.37209919782E+03  0.00000000000E+00 0. -1.
         25    2    1    2    0    0  0.26385901459E+02  0.20168954352E+02  0.19262855579E+03  0.23202188684E+03  0.12500157181E+03 0.  0.
          2    1    1    2  501    0 -0.26882031077E+02  0.13233292574E+02 -0.35118427153E+03  0.35246014838E+03  0.00000000000E+00 0. -1.
          1    1    1    2  502    0  0.49612961784E+00 -0.33402246925E+02  0.48016811945E+03  0.48132876413E+03  0.00000000000E+00 0. -1.
         22    1    3    3    0    0 -0.42713318788E+01 -0.49243448465E+02  0.49106951189E+02  0.69675348207E+02  0.00000000000E+00 0.  1.
         22    1    3    3    0    0  0.30657233338E+02  0.69412402816E+02  0.14352160460E+03  0.16234653864E+03  0.00000000000E+00 0.  1.
</event>
<event>
 7    1  0.6146596E-006  0.2650116E+03  0.7818608E-02  0.1203988E+00
          2   -1    0    0  502    0  0.00000000000E+00  0.00000000000E+00  0.45968891256E+03  0.45968891256E+03  0.00000000000E+00 0. -1.
          1   -1    0    0  501    0 -0.00000000000E+00 -0.00000000000E+00 -0.10003893601E+04  0.10003893601E+04  0.00000000000E+00 0. -1.
         25    2    1    2    0    0  0.72585154860E+02  0.19865446112E+03 -0.92776644206E+02  0.26261151205E+03  0.12500040369E+03 0.  0.
          2    1    1    2  501    0  0.67736330455E+02  0.45740384668E+02 -0.76723776716E+03  0.77157902032E+03  0.00000000000E+00 0. -1.
          1    1    1    2  502    0 -0.14032148531E+03 -0.24439484578E+03  0.31931396378E+03  0.42588774032E+03  0.00000000000E+00 0. -1.
         22    1    3    3    0    0  0.19360904722E+02  0.16866323865E+03 -0.10594467308E+03  0.20011598251E+03  0.00000000000E+00 0.  1.
         22    1    3    3    0    0  0.53224250137E+02  0.29991222466E+02  0.13168028872E+02  0.62495529537E+02  0.00000000000E+00 0.  1.
</event>
<event>
 7    1  0.6146596E-006  0.1187862E+03  0.7818608E-02  0.1330320E+00
          2   -1    0    0  502    0  0.00000000000E+00  0.00000000000E+00  0.21136449976E+04  0.21136449976E+04  0.00000000000E+00 0. -1.
          1   -1    0    0  501    0 -0.00000000000E+00 -0.00000000000E+00 -0.48424356780E+03  0.48424356780E+03  0.00000000000E+00 0. -1.
         25    2    1    2    0    0  0.69832676050E+02  0.37522277495E+02 -0.50770241093E+02  0.15647245413E+03  0.12498594949E+03 0.  0.
          2    1    1    2  501    0  0.48650716782E+02 -0.21723396180E+02 -0.37701422558E+03  0.38076045550E+03  0.00000000000E+00 0. -1.
          1    1    1    2  502    0 -0.11848339283E+03 -0.15798881315E+02  0.20571858965E+04  0.20606556558E+04  0.00000000000E+00 0. -1.
         22    1    3    3    0    0  0.16519577793E+02  0.55547571311E+02  0.24138974072E+02  0.62778333828E+02  0.00000000000E+00 0.  1.
         22    1    3    3    0    0  0.53313098257E+02 -0.18025293817E+02 -0.74909215165E+02  0.93694120304E+02  0.00000000000E+00 0.  1.
</event>
<event>
 7    1  0.6146596E-006  0.1253154E+03  0.7818608E-02  0.1326228E+00
          2   -1    0    0  502    0  0.00000000000E+00  0.00000000000E+00  0.75174384933E+03  0.75174384933E+03  0.00000000000E+00 0. -1.
          1   -1    0    0  501    0 -0.00000000000E+00 -0.00000000000E+00 -0.10636654324E+04  0.10636654324E+04  0.00000000000E+00 0. -1.
         25    2    1    2    0    0 -0.75099470479E+02 -0.11749160978E+03 -0.13645485604E+03  0.23170890283E+03  0.12499951631E+03 0.  0.
          2    1    1    2  501    0 -0.26903657542E+02  0.44919944466E+02 -0.87322898445E+03  0.87479738653E+03  0.00000000000E+00 0. -1.
          1    1    1    2  502    0  0.10200312802E+03  0.72571665315E+02  0.69776225742E+03  0.70890299238E+03  0.00000000000E+00 0. -1.
         22    1    3    3    0    0  0.12543793436E+02 -0.79912993758E+02 -0.10229890466E+03  0.13041663705E+03  0.00000000000E+00 0.  1.
         22    1    3    3    0    0 -0.87643263914E+02 -0.37578616024E+02 -0.34155951387E+02  0.10129226578E+03  0.00000000000E+00 0.  1.
</event>
<event>
 7    1  0.6146596E-006  0.9253772E+02  0.7818608E-02  0.1431929E+00
          2   -1    0    0  502    0  0.00000000000E+00  0.00000000000E+00  0.69100459099E+02  0.69100459099E+02  0.00000000000E+00 0. -1.
          1   -1    0    0  501    0 -0.00000000000E+00 -0.00000000000E+00 -0.47217292088E+03  0.47217292088E+03  0.00000000000E+00 0. -1.
         25    2    1    2    0    0 -0.63692215658E+02 -0.27814521428E+02 -0.67116731152E+02  0.15798810956E+03  0.12500096490E+03 0.  0.
          2    1    1    2  501    0  0.93201174166E+02  0.23184341444E+02 -0.33985225911E+03  0.35316218735E+03  0.00000000000E+00 0. -1.
          1    1    1    2  502    0 -0.29508958508E+02  0.46301799835E+01  0.38965284827E+01  0.30123083061E+02  0.00000000000E+00 0. -1.
         22    1    3    3    0    0 -0.37449229382E+02  0.37636352833E+01 -0.99058196767E+02  0.10596761807E+03  0.00000000000E+00 0.  1.
         22    1    3    3    0    0 -0.26242986276E+02 -0.31578156711E+02  0.31941465615E+02  0.52020491497E+02  0.00000000000E+00 0.  1.
</event>
<event>
 7    1  0.6146596E-006  0.7127795E+02  0.7818608E-02  0.1495848E+00
          2   -1    0    0  502    0  0.00000000000E+00  0.00000000000E+00  0.71347458198E+03  0.71347458198E+03  0.00000000000E+00 0. -1.
          1   -1    0    0  501    0 -0.00000000000E+00 -0.00000000000E+00 -0.47406589486E+02  0.47406589486E+02  0.00000000000E+00 0. -1.
         25    2    1    2    0    0  0.30585308558E+02  0.40774546108E+02  0.24821862536E+03  0.28254887202E+03  0.12499341740E+03 0.  0.
          2    1    1    2  501    0 -0.49592079565E+02 -0.56125668588E+02  0.17080386938E+02  0.76819298669E+02  0.00000000000E+00 0. -1.
          1    1    1    2  502    0  0.19006771007E+02  0.15351122479E+02  0.40076898020E+03  0.40151300078E+03  0.00000000000E+00 0. -1.
         22    1    3    3    0    0  0.61697868895E+02  0.67647405767E+02  0.19387212631E+03  0.21440429075E+03  0.00000000000E+00 0.  1.
         22    1    3    3    0    0 -0.31112560338E+02 -0.26872859659E+02  0.54346499046E+02  0.68144581264E+02  0.00000000000E+00 0.  1.
</event>
<event>
 7    1  0.6146596E-006  0.8980600E+02  0.7818608E-02  0.1466368E+00
          2   -1    0    0  502    0  0.00000000000E+00  0.00000000000E+00  0.10680692967E+04  0.10680692967E+04  0.00000000000E+00 0. -1.
          1   -1    0    0  501    0 -0.00000000000E+00 -0.00000000000E+00 -0.32933712966E+03  0.32933712966E+03  0.00000000000E+00 0. -1.
         25    2    1    2    0    0  0.17462582814E+02  0.72147873373E+02  0.71441475839E+03  0.72905673700E+03  0.12500008532E+03 0.  0.
          2    1    1    2  501    0 -0.15492398595E+01 -0.89943927444E+02 -0.31530640370E+03  0.32788784431E+03  0.00000000000E+00 0. -1.
          1    1    1    2  502    0 -0.15913342954E+02  0.17796054071E+02  0.33962381234E+03  0.34046184505E+03  0.00000000000E+00 0. -1.
         22    1    3    3    0    0  0.88239988470E+01 -0.26680443581E+02  0.50685719014E+02  0.57954733519E+02  0.00000000000E+00 0. -1.
         22    1    3    3    0    0  0.86385839667E+01  0.98828316954E+02  0.66372903938E+03  0.67110200348E+03  0.00000000000E+00 0. -1.
</event>
